 Gaussian 16, Revision A.03,

 -----------------------------------------------------------
 # opt freq B3LYP/6-31G(d) empiricaldispersion=gd3bj scf=xqc
 -----------------------------------------------------------

 -------------------------------
 CID_103866883_JID_8630_neutraal
 -------------------------------
 Symbolic Z-matrix:
 Charge =  0 Multiplicity = 1

 SCF Done:  E(RB3LYP) =  -748.552550769     A.U. after   14 cycles
 SCF Done:  E(RB3LYP) =  -748.559168326     A.U. after   12 cycles
 SCF Done:  E(RB3LYP) =  -748.560343966     A.U. after   12 cycles
 SCF Done:  E(RB3LYP) =  -748.561274043     A.U. after   12 cycles
 SCF Done:  E(RB3LYP) =  -748.561606494     A.U. after   12 cycles
 SCF Done:  E(RB3LYP) =  -748.561977268     A.U. after   11 cycles
 SCF Done:  E(RB3LYP) =  -748.562218659     A.U. after   11 cycles
 SCF Done:  E(RB3LYP) =  -748.562264253     A.U. after   10 cycles
 SCF Done:  E(RB3LYP) =  -748.562288436     A.U. after   10 cycles
 SCF Done:  E(RB3LYP) =  -748.562298742     A.U. after    9 cycles
 SCF Done:  E(RB3LYP) =  -748.566634462     A.U. after    7 cycles
 SCF Done:  E(RB3LYP) =  -748.566634513     A.U. after    6 cycles
 SCF Done:  E(RB3LYP) =  -748.566634539     A.U. after    6 cycles
 SCF Done:  E(RB3LYP) =  -748.566634555     A.U. after    6 cycles
 SCF Done:  E(RB3LYP) =  -748.566634563     A.U. after    6 cycles
 Optimization completed.
    -- Stationary point found.
 Normal termination of Gaussian 16 at Fri Dec 11 22:14:49 2020.

 --------------------------------------------------------------------
 #N Geom=AllCheck Guess=TCheck SCRF=Check GenChk RB3LYP/6-31G(d) Freq
 --------------------------------------------------------------------

 Structure from the checkpoint file:  "JID_8630.chk"
 -------------------------------
 CID_103866883_JID_8630_neutraal
 -------------------------------
 Charge =  0 Multiplicity = 1

 SCF Done:  E(RB3LYP) =  -748.566634563     A.U. after    1 cycles

  Exact polarizability: 200.153 -16.150 171.073 -27.057  -9.508 140.651
 Approx polarizability: 275.758 -27.829 273.877 -51.193 -24.821 226.561

                      1                      2                      3
                      A                      A                      A
 Frequencies --     20.2060                27.3440                50.1978
 Red. masses --      4.0382                 3.4932                 2.8307
 Frc consts  --      0.0010                 0.0015                 0.0042
 IR Inten    --      0.2560                 0.5461                 0.0639

                      4                      5                      6
                      A                      A                      A
 Frequencies --     62.9180                81.5001               100.0898
 Red. masses --      1.1778                 3.6018                 1.5130
 Frc consts  --      0.0027                 0.0141                 0.0089
 IR Inten    --      0.4133                 0.1710                 0.2285

                      7                      8                      9
                      A                      A                      A
 Frequencies --    102.9772               134.1297               139.1074
 Red. masses --      1.6730                 1.5666                 1.0486
 Frc consts  --      0.0105                 0.0166                 0.0120
 IR Inten    --      0.1952                 1.8991                 0.0385

                     10                     11                     12
                      A                      A                      A
 Frequencies --    152.8647               157.4498               177.7554
 Red. masses --      2.0236                 1.3082                 1.8147
 Frc consts  --      0.0279                 0.0191                 0.0338
 IR Inten    --      1.4573                 1.2312                 1.1437

                     13                     14                     15
                      A                      A                      A
 Frequencies --    209.6498               252.9994               255.7371
 Red. masses --      2.7799                 3.0197                 2.9963
 Frc consts  --      0.0720                 0.1139                 0.1155
 IR Inten    --      5.4307                 1.0484                 5.7240

                     16                     17                     18
                      A                      A                      A
 Frequencies --    288.0351               296.1081               298.7288
 Red. masses --      2.8765                 2.7914                 2.5853
 Frc consts  --      0.1406                 0.1442                 0.1359
 IR Inten    --      1.2586                 0.7511                 0.3696

                     19                     20                     21
                      A                      A                      A
 Frequencies --    313.1651               332.6226               372.6922
 Red. masses --      2.7586                 2.3520                 3.8698
 Frc consts  --      0.1594                 0.1533                 0.3167
 IR Inten    --      1.5469                 1.5062                 0.3334

                     22                     23                     24
                      A                      A                      A
 Frequencies --    434.5460               452.9412               491.9515
 Red. masses --      4.1856                 3.2822                 3.5098
 Frc consts  --      0.4657                 0.3967                 0.5005
 IR Inten    --      0.4642                 1.6535                 0.5759

                     25                     26                     27
                      A                      A                      A
 Frequencies --    509.5606               525.6187               535.4827
 Red. masses --      3.0133                 2.5771                 3.7072
 Frc consts  --      0.4610                 0.4195                 0.6263
 IR Inten    --      3.9522                 0.3767                 4.3849

                     28                     29                     30
                      A                      A                      A
 Frequencies --    612.8525               626.0552               638.9123
 Red. masses --      4.9696                 4.4665                 4.5290
 Frc consts  --      1.0997                 1.0314                 1.0893
 IR Inten    --     14.1909                 2.2542                 2.2228

                     31                     32                     33
                      A                      A                      A
 Frequencies --    645.7020               678.9142               712.0862
 Red. masses --      4.0477                 3.5338                 2.4067
 Frc consts  --      0.9943                 0.9597                 0.7190
 IR Inten    --     10.3162                 1.0844                 8.0306

                     34                     35                     36
                      A                      A                      A
 Frequencies --    741.4667               759.9600               777.3141
 Red. masses --      3.0872                 3.1749                 2.0164
 Frc consts  --      1.0000                 1.0803                 0.7178
 IR Inten    --      6.7534                21.3837                 2.5141

                     37                     38                     39
                      A                      A                      A
 Frequencies --    803.9700               810.5128               841.8092
 Red. masses --      3.0135                 2.2910                 2.7789
 Frc consts  --      1.1476                 0.8868                 1.1602
 IR Inten    --     32.3404                50.3897                43.3212

                     40                     41                     42
                      A                      A                      A
 Frequencies --    890.1732               904.5009               990.8140
 Red. masses --      1.3644                 1.3356                 2.0703
 Frc consts  --      0.6370                 0.6438                 1.1975
 IR Inten    --     11.7941                 1.3476                 1.2035

                     43                     44                     45
                      A                      A                      A
 Frequencies --   1020.5498              1021.8949              1028.5058
 Red. masses --      1.4876                 2.2905                 2.3352
 Frc consts  --      0.9128                 1.4093                 1.4554
 IR Inten    --      0.4034                12.4987                20.5526

                     46                     47                     48
                      A                      A                      A
 Frequencies --   1031.4541              1053.6814              1059.1007
 Red. masses --      1.6501                 1.8580                 1.4257
 Frc consts  --      1.0343                 1.2154                 0.9422
 IR Inten    --     10.4084                 5.2396                 4.1602

                     49                     50                     51
                      A                      A                      A
 Frequencies --   1067.8696              1076.2713              1079.8467
 Red. masses --      2.6213                 1.6415                 1.5192
 Frc consts  --      1.7612                 1.1203                 1.0437
 IR Inten    --     12.3322                11.8837                 3.1155

                     52                     53                     54
                      A                      A                      A
 Frequencies --   1085.2819              1093.2953              1100.0699
 Red. masses --      1.5836                 1.5308                 2.4296
 Frc consts  --      1.0990                 1.0781                 1.7323
 IR Inten    --      0.6049                 3.1328                 2.0328

                     55                     56                     57
                      A                      A                      A
 Frequencies --   1156.1789              1189.4991              1209.5083
 Red. masses --      1.3362                 1.6616                 2.5998
 Frc consts  --      1.0524                 1.3852                 2.2408
 IR Inten    --     12.9304                19.0518                13.3426

                     58                     59                     60
                      A                      A                      A
 Frequencies --   1224.3055              1235.4730              1281.7626
 Red. masses --      3.3115                 1.6257                 1.9308
 Frc consts  --      2.9245                 1.4620                 1.8690
 IR Inten    --     12.3315                 3.3657                13.5837

                     61                     62                     63
                      A                      A                      A
 Frequencies --   1304.9259              1325.6480              1344.6188
 Red. masses --      4.2390                 1.3359                 3.3516
 Frc consts  --      4.2529                 1.3831                 3.5702
 IR Inten    --      1.5070                 0.8714                28.5956

                     64                     65                     66
                      A                      A                      A
 Frequencies --   1356.2929              1379.7905              1399.2449
 Red. masses --      3.9418                 1.4268                 3.0947
 Frc consts  --      4.2722                 1.6004                 3.5699
 IR Inten    --      1.0489                 7.5544                 5.4606

                     67                     68                     69
                      A                      A                      A
 Frequencies --   1431.3629              1435.3821              1443.0892
 Red. masses --      1.7958                 1.3053                 1.3788
 Frc consts  --      2.1678                 1.5845                 1.6918
 IR Inten    --      2.8289                 5.7122                 1.3358

                     70                     71                     72
                      A                      A                      A
 Frequencies --   1449.9781              1451.0129              1456.4559
 Red. masses --      1.6992                 1.2563                 1.9931
 Frc consts  --      2.1048                 1.5584                 2.4911
 IR Inten    --      0.6722                 0.2568                27.2461

                     73                     74                     75
                      A                      A                      A
 Frequencies --   1480.3474              1498.6868              1507.1590
 Red. masses --      1.3181                 1.7878                 1.0455
 Frc consts  --      1.7019                 2.3659                 1.3993
 IR Inten    --      4.5813                34.9772                 0.0079

                     76                     77                     78
                      A                      A                      A
 Frequencies --   1507.5638              1511.0729              1514.9298
 Red. masses --      1.0833                 1.0686                 1.1459
 Frc consts  --      1.4506                 1.4376                 1.5494
 IR Inten    --      6.1613                10.0459                 4.2017

                     79                     80                     81
                      A                      A                      A
 Frequencies --   1519.0837              1522.2145              1522.3692
 Red. masses --      1.0812                 1.0881                 1.0700
 Frc consts  --      1.4700                 1.4855                 1.4610
 IR Inten    --      9.2563                 8.0363                17.7632

                     82                     83                     84
                      A                      A                      A
 Frequencies --   1525.3681              1528.5505              1536.3972
 Red. masses --      1.1259                 1.1743                 1.1784
 Frc consts  --      1.5434                 1.6165                 1.6389
 IR Inten    --      0.4309                 3.8648                19.2548

                     85                     86                     87
                      A                      A                      A
 Frequencies --   1543.0964              1555.6106              1557.6559
 Red. masses --      1.3081                 2.4850                 2.5417
 Frc consts  --      1.8351                 3.5431                 3.6335
 IR Inten    --     12.9252                15.7290                 8.5624

                     88                     89                     90
                      A                      A                      A
 Frequencies --   1617.3221              1621.7656              1678.8570
 Red. masses --      5.2473                 6.1150                 6.0371
 Frc consts  --      8.0869                 9.4759                10.0255
 IR Inten    --     10.0591                 0.1553                 2.3806

                     91                     92                     93
                      A                      A                      A
 Frequencies --   3035.1710              3036.2210              3039.5823
 Red. masses --      1.0390                 1.0381                 1.0456
 Frc consts  --      5.6396                 5.6384                 5.6916
 IR Inten    --      8.2613                70.1232                27.8780

                     94                     95                     96
                      A                      A                      A
 Frequencies --   3049.7846              3056.2071              3067.1840
 Red. masses --      1.0403                 1.0399                 1.0658
 Frc consts  --      5.7007                 5.7228                 5.9077
 IR Inten    --     26.0063                57.2727                44.7705

                     97                     98                     99
                      A                      A                      A
 Frequencies --   3080.9985              3082.6345              3101.1001
 Red. masses --      1.1002                 1.1000                 1.0898
 Frc consts  --      6.1530                 6.1589                 6.1752
 IR Inten    --     44.1391                 0.0194                20.6664

                    100                    101                    102
                      A                      A                      A
 Frequencies --   3109.5885              3123.9095              3126.4377
 Red. masses --      1.0962                 1.0997                 1.0995
 Frc consts  --      6.2451                 6.3232                 6.3323
 IR Inten    --     13.8501                24.1541                 9.2965

                    103                    104                    105
                      A                      A                      A
 Frequencies --   3128.4048              3128.4858              3132.8599
 Red. masses --      1.0991                 1.0974                 1.1009
 Frc consts  --      6.3377                 6.3281                 6.3664
 IR Inten    --     27.7633                 9.6529                 8.9526

                    106                    107                    108
                      A                      A                      A
 Frequencies --   3145.1483              3147.3194              3166.6120
 Red. masses --      1.1025                 1.0890                 1.0896
 Frc consts  --      6.4258                 6.3554                 6.4376
 IR Inten    --     11.5530                32.0856                23.2897

                    109                    110                    111
                      A                      A                      A
 Frequencies --   3166.9153              3271.2556              3500.8153
 Red. masses --      1.1048                 1.0978                 1.0738
 Frc consts  --      6.5285                 6.9216                 7.7538
 IR Inten    --      7.6753                 1.5693                 0.1726

 - Thermochemistry -
 -------------------
 Temperature   298.150 Kelvin.  Pressure   1.00000 Atm.
 Atom     1 has atomic number  6 and mass  12.00000

 Molecular mass:   243.17355 amu.
 Principal axes and moments of inertia in atomic units:
                           1         2         3
     Eigenvalues --  2574.377406806.191777545.30645
           X            0.99982  -0.01236  -0.01435
           Y            0.01242   0.99992   0.00386
           Z            0.01430  -0.00403   0.99989
 This molecule is an asymmetric top.
 Rotational symmetry number  1.
 Warning -- assumption of classical behavior for rotation
           may cause significant error
 Rotational temperatures (Kelvin)      0.03364     0.01273     0.01148
 Rotational constants (GHZ):           0.70104     0.26516     0.23919
 Zero-point vibrational energy     887919.0 (Joules/Mol)
                                  212.21773 (Kcal/Mol)
 Warning -- explicit consideration of  28 degrees of freedom as
           vibrations may cause significant error
 Vibrational temperatures:     29.07    39.34    72.22    90.52   117.26
          (Kelvin)            144.01   148.16   192.98   200.14   219.94
                              226.54   255.75   301.64   364.01   367.95
                              414.42   426.03   429.80   450.57   478.57
                              536.22   625.21   651.68   707.81   733.14
                              756.25   770.44   881.76   900.75   919.25
                              929.02   976.81  1024.53  1066.81  1093.41
                             1118.38  1156.73  1166.15  1211.18  1280.76
                             1301.37  1425.56  1468.34  1470.28  1479.79
                             1484.03  1516.01  1523.81  1536.43  1548.51
                             1553.66  1561.48  1573.01  1582.76  1663.48
                             1711.42  1740.21  1761.50  1777.57  1844.17
                             1877.50  1907.31  1934.61  1951.40  1985.21
                             2013.20  2059.41  2065.19  2076.28  2086.20
                             2087.68  2095.52  2129.89  2156.28  2168.47
                             2169.05  2174.10  2179.65  2185.62  2190.13
                             2190.35  2194.66  2199.24  2210.53  2220.17
                             2238.18  2241.12  2326.97  2333.36  2415.50
                             4366.93  4368.44  4373.28  4387.96  4397.20
                             4412.99  4432.87  4435.22  4461.79  4474.00
                             4494.61  4498.25  4501.08  4501.19  4507.49
                             4525.17  4528.29  4556.05  4556.48  4706.61
                             5036.89

 Zero-point correction=                           0.338190 (Hartree/Particle)
 Thermal correction to Energy=                    0.357242
 Thermal correction to Enthalpy=                  0.358187
 Thermal correction to Gibbs Free Energy=         0.289578
 Sum of electronic and zero-point Energies=           -748.228444
 Sum of electronic and thermal Energies=              -748.209392
 Sum of electronic and thermal Enthalpies=            -748.208448
 Sum of electronic and thermal Free Energies=         -748.277056

                     E (Thermal)             CV                S
                      KCal/Mol        Cal/Mol-Kelvin    Cal/Mol-Kelvin
 Total                  224.173             70.445            144.398
 Electronic               0.000              0.000              0.000
 Translational            0.889              2.981             42.367
 Rotational               0.889              2.981             33.247
 Vibrational            222.396             64.484             68.785
 Vibration     1          0.593              1.986              6.614
 Vibration     2          0.593              1.984              6.013
 Vibration     3          0.595              1.978              4.810
 Vibration     4          0.597              1.972              4.364
 Vibration     5          0.600              1.962              3.854
 Vibration     6          0.604              1.949              3.453
 Vibration     7          0.605              1.947              3.397
 Vibration     8          0.613              1.919              2.886
 Vibration     9          0.615              1.914              2.816
 Vibration    10          0.619              1.899              2.636
 Vibration    11          0.621              1.894              2.580
 Vibration    12          0.628              1.870              2.352
 Vibration    13          0.642              1.826              2.047
 Vibration    14          0.664              1.758              1.710
 Vibration    15          0.666              1.753              1.691
 Vibration    16          0.685              1.696              1.485
 Vibration    17          0.690              1.681              1.439
 Vibration    18          0.692              1.676              1.424
 Vibration    19          0.701              1.649              1.346
 Vibration    20          0.715              1.610              1.247
 Vibration    21          0.744              1.528              1.069
 Vibration    22          0.795              1.395              0.844
 Vibration    23          0.811              1.354              0.787
 Vibration    24          0.848              1.268              0.679
 Vibration    25          0.865              1.229              0.635
 Vibration    26          0.881              1.193              0.597
 Vibration    27          0.890              1.172              0.575
 Vibration    28          0.972              1.005              0.428

 Optimization completed.
    -- Stationary point found.
 Normal termination of Gaussian 16 at Fri Dec 11 22:35:40 2020.

 ----------------------------------------------------------------------
 # B3LYP/6-311++G(d,p) empiricaldispersion=gd3bj scf=xqc pop=npa geom=c
 heck
 ----------------------------------------------------------------------

 ---------------------------------------
 CID_103866883_JID_8630_Energie_neutraal
 ---------------------------------------
 Structure from the checkpoint file:  "JID_8630.chk"
 Charge =  0 Multiplicity = 1

 SCF Done:  E(RB3LYP) =  -748.763457425     A.U. after   15 cycles
 Normal termination of Gaussian 16 at Fri Dec 11 22:45:10 2020.

 ----------------------------------------------------------------------
 # B3LYP/6-311++G(d,p) empiricaldispersion=gd3bj scf=xqc pop=npa geom=c
 heck
 ----------------------------------------------------------------------

 -------------------------------------
 CID_103866883_JID_8630_Energie_kation
 -------------------------------------
 Structure from the checkpoint file:  "JID_8630.chk"
 Charge =  1 Multiplicity = 2

 SCF Done:  E(UB3LYP) =  -748.492866835     A.U. after   25 cycles
 Normal termination of Gaussian 16 at Fri Dec 11 23:07:23 2020.
 Gaussian 16:  ES64L-G16RevA.03 25-Dec-2016

 ----------------------------------------------------------------------
 # B3LYP/6-311++G(d,p) empiricaldispersion=gd3bj scf=xqc pop=npa geom=c
 heck
 ----------------------------------------------------------------------

 ------------------------------------
 CID_103866883_JID_8630_Energie_anion
 ------------------------------------
 Structure from the checkpoint file:  "JID_8630.chk"
 Charge = -1 Multiplicity = 2

                         Standard orientation:
 ---------------------------------------------------------------------
 Center     Atomic      Atomic             Coordinates (Angstroms)
 Number     Number       Type             X           Y           Z
 ---------------------------------------------------------------------
      1          6           0        4.143064   -1.663507    0.547305
      2          6           0        3.024405   -0.657624    0.439377
      3          6           0        1.955513   -0.689451    1.336747
      4          6           0        0.888670    0.215400    1.286583
      5          6           0        0.903283    1.201695    0.284586
      6          6           0        1.980249    1.240483   -0.608121
      7          6           0        3.040827    0.335630   -0.558325
      8          6           0        4.177889    0.427380   -1.544986
      9          6           0       -0.242680    2.169763    0.065028
     10          7           0       -1.173080    1.757857   -1.014458
     11          6           0       -1.833463    0.528783   -0.764576
     12          6           0       -1.485712   -0.758860   -1.140957
     13          7           0       -2.455796   -1.580048   -0.655791
     14          7           0       -3.398515   -0.905387    0.046074
     15          6           0       -3.036371    0.379361   -0.023454
     16          6           0       -3.834930    1.461456    0.628336
     17          6           0       -2.508608   -3.024066   -0.713543
     18          6           0       -0.224170    0.109544    2.303968
     19          1           0        3.968756   -2.360715    1.372111
     20          1           0        4.249592   -2.252442   -0.373029
     21          1           0        5.111204   -1.175746    0.720119
     22          1           0        1.951536   -1.453501    2.111789
     23          1           0        1.992291    2.014262   -1.375648
     24          1           0        4.026358    1.253763   -2.245922
     25          1           0        5.140013    0.588498   -1.041649
     26          1           0        4.282519   -0.494614   -2.131672
     27          1           0       -0.835399    2.300493    0.973430
     28          1           0        0.146946    3.155944   -0.211659
     29          1           0       -0.647417    1.695169   -1.883519
     30          1           0       -0.639837   -1.135256   -1.698241
     31          1           0       -4.855587    1.119913    0.820208
     32          1           0       -3.396333    1.766159    1.588084
     33          1           0       -3.862770    2.349737   -0.011281
     34          1           0       -2.066578   -3.475064    0.182664
     35          1           0       -3.553325   -3.331826   -0.787721
     36          1           0       -1.962697   -3.369269   -1.595034
     37          1           0       -1.182512   -0.135794    1.835466
     38          1           0       -0.000123   -0.670424    3.038030
     39          1           0       -0.362700    1.047843    2.854886
 ---------------------------------------------------------------------

 SCF Done:  E(UB3LYP) =  -748.751439623     A.U. after   33 cycles
 SCF Done:  E(UB3LYP) =  -748.751439623     a.u. after    1 cycles

 The electronic state is 2-A.
 Alpha  occ. eigenvalues --  -14.29309 -14.23043 -14.22167 -10.11618 -10.11089
 Alpha  occ. eigenvalues --  -10.10566 -10.09891 -10.09701 -10.08619 -10.08349
 Alpha  occ. eigenvalues --  -10.08263 -10.08153 -10.08005 -10.07451 -10.07440
 Alpha  occ. eigenvalues --  -10.07202 -10.06922 -10.06881  -0.95365  -0.82898
 Alpha  occ. eigenvalues --   -0.76846  -0.75222  -0.70175  -0.68469  -0.66998
 Alpha  occ. eigenvalues --   -0.65008  -0.62991  -0.61199  -0.58096  -0.56672
 Alpha  occ. eigenvalues --   -0.54576  -0.50760  -0.49612  -0.46799  -0.45513
 Alpha  occ. eigenvalues --   -0.43056  -0.40255  -0.38926  -0.38572  -0.37893
 Alpha  occ. eigenvalues --   -0.35849  -0.35520  -0.34805  -0.33703  -0.33462
 Alpha  occ. eigenvalues --   -0.32669  -0.32227  -0.31559  -0.31337  -0.30369
 Alpha  occ. eigenvalues --   -0.30206  -0.29987  -0.29563  -0.28943  -0.28809
 Alpha  occ. eigenvalues --   -0.28265  -0.27397  -0.24843  -0.24091  -0.23911
 Alpha  occ. eigenvalues --   -0.20450  -0.17727  -0.15620  -0.15162  -0.13767
 Alpha  occ. eigenvalues --   -0.12235   0.04090
 Alpha virt. eigenvalues --    0.06106   0.06433   0.06602   0.07703   0.07938
 Alpha virt. eigenvalues --    0.08121   0.08508   0.08962   0.09104   0.09579
 Alpha virt. eigenvalues --    0.10282   0.10462   0.10659   0.10890   0.11402

  Beta  occ. eigenvalues --  -14.29307 -14.23036 -14.22160 -10.11578 -10.11085
  Beta  occ. eigenvalues --  -10.10550 -10.09890 -10.09701 -10.08617 -10.08348
  Beta  occ. eigenvalues --  -10.08261 -10.08149 -10.08004 -10.07440 -10.07433
  Beta  occ. eigenvalues --  -10.07194 -10.06886 -10.06841  -0.95357  -0.82885
  Beta  occ. eigenvalues --   -0.76835  -0.75208  -0.70160  -0.68454  -0.66977
  Beta  occ. eigenvalues --   -0.64988  -0.62962  -0.61168  -0.58056  -0.56632
  Beta  occ. eigenvalues --   -0.54537  -0.50730  -0.49582  -0.46779  -0.45486
  Beta  occ. eigenvalues --   -0.43024  -0.40233  -0.38902  -0.38547  -0.37869
  Beta  occ. eigenvalues --   -0.35825  -0.35493  -0.34772  -0.33664  -0.33448
  Beta  occ. eigenvalues --   -0.32641  -0.32213  -0.31537  -0.31312  -0.30341
  Beta  occ. eigenvalues --   -0.30169  -0.29968  -0.29541  -0.28916  -0.28785
  Beta  occ. eigenvalues --   -0.28245  -0.27376  -0.24820  -0.24069  -0.23889
  Beta  occ. eigenvalues --   -0.20435  -0.17716  -0.15609  -0.15150  -0.13752
  Beta  occ. eigenvalues --   -0.12225
  Beta virt. eigenvalues --    0.06080   0.06774   0.06833   0.07137   0.07821
  Beta virt. eigenvalues --    0.08044   0.08411   0.08784   0.09178   0.09521
  Beta virt. eigenvalues --    0.09881   0.10610   0.10660   0.10928   0.11189

 Mulliken charges and spin densities:
               1          2
     1  C    1.220713  -1.777399
     2  C   -1.984780   2.317918
     3  C    0.470046  -1.014505
     4  C    0.339931   0.253566
     5  C    0.912024  -0.036390
     6  C    0.590244  -1.319966
     7  C   -2.193010   2.338442
     8  C    1.724118  -2.402519
     9  C   -0.283013  -0.352690
    10  N   -0.156200   0.109850
    11  C    0.254959  -0.305929
    12  C   -0.384251   0.166801
    13  N    0.069344   0.023194
    14  N   -0.303152   0.214683
    15  C    0.308711  -0.452239
    16  C   -0.402902  -0.301759
    17  C    0.843265  -1.149120
    18  C   -0.382760  -0.453135
    19  H   -0.399515   0.543495
    20  H   -0.212352   0.380134
    21  H   -0.101779   0.252353
    22  H   -0.004553   0.149782
    23  H   -0.001978   0.151522
    24  H   -0.567542   0.709672
    25  H   -0.097504   0.248507
    26  H   -0.178811   0.345354
    27  H    0.251897  -0.096627
    28  H    0.022060   0.181081
    29  H    0.048109   0.207628
    30  H   -0.318302   0.539401
    31  H    0.134571   0.016480
    32  H    0.087440   0.049977
    33  H    0.134246   0.036924
    34  H   -0.163698   0.341113
    35  H   -0.105304   0.269105
    36  H   -0.551440   0.705737
    37  H    0.276978  -0.079182
    38  H    0.027348   0.106633
    39  H    0.076843   0.082109
 Sum of Mulliken charges =  -1.00000   1.00000

 Dipole moment (field-independent basis, Debye):
    X=             -4.4545    Y=              5.2987    Z=              3.9822  Tot=              7.9860
 Quadrupole moment (field-independent basis, Debye-Ang):
   XX=           -195.8988   YY=           -162.9870   ZZ=           -149.7987
   XY=             -0.8437   XZ=              5.2206   YZ=             -1.7963

 Summary of Natural Population Analysis:

                                       Natural Population
                Natural  -----------------------------------------------
    Atom  No    Charge         Core      Valence    Rydberg      Total
 -----------------------------------------------------------------------
      C    1   -0.29440      0.99964     2.28915    0.00562     3.29440
      C    2   -0.00977      0.99947     2.00009    0.01020     3.00977
      C    3   -0.09521      0.99947     2.08615    0.00958     3.09521
      C    4   -0.01286      0.99947     2.00360    0.00979     3.01286
      C    5   -0.03527      0.99947     2.02516    0.01064     3.03527
      C    6   -0.09467      0.99947     2.08451    0.01069     3.09467
      C    7   -0.01463      0.99947     2.00503    0.01013     3.01463
      C    8   -0.29421      0.99964     2.28886    0.00571     3.29421
      C    9   -0.08176      0.99957     2.07383    0.00836     3.08176
      N   10   -0.33195      0.99972     2.81886    0.01336     3.83195
      C   11    0.01883      0.99941     1.96777    0.01400     2.98117
      C   12   -0.01163      0.99948     2.00027    0.01188     3.01163
      N   13   -0.10421      0.99967     2.59264    0.01190     3.60421
      N   14   -0.16327      0.99970     2.65239    0.01117     3.66327
      C   15    0.06380      0.99954     1.92288    0.01378     2.93620
      C   16   -0.29907      0.99963     2.29479    0.00465     3.29907
      C   17   -0.17181      0.99964     2.16374    0.00843     3.17181
      C   18   -0.29518      0.99963     2.29082    0.00473     3.29518
      H   19    0.10218      0.00000     0.39672    0.00110     0.39782
      H   20    0.10795      0.00000     0.39055    0.00150     0.39205
      H   21    0.10378      0.00000     0.39502    0.00119     0.39622
      H   22    0.09581      0.00000     0.40273    0.00146     0.40419
      H   23    0.09510      0.00000     0.40319    0.00170     0.40490
      H   24    0.10239      0.00000     0.39636    0.00125     0.39761
      H   25    0.10372      0.00000     0.39509    0.00120     0.39628
      H   26    0.10771      0.00000     0.39065    0.00164     0.39229
      H   27    0.09477      0.00000     0.40399    0.00124     0.40523
      H   28    0.09505      0.00000     0.40386    0.00109     0.40495
      H   29    0.17774      0.00000     0.31930    0.00295     0.32226
      H   30    0.11033      0.00000     0.38797    0.00170     0.38967
      H   31    0.10624      0.00000     0.39285    0.00091     0.39376
      H   32    0.10030      0.00000     0.39856    0.00114     0.39970
      H   33    0.10711      0.00000     0.39177    0.00112     0.39289
      H   34    0.09853      0.00000     0.40007    0.00140     0.40147
      H   35    0.10339      0.00000     0.39518    0.00143     0.39661
      H   36    0.10387      0.00000     0.39412    0.00201     0.39613
      H   37    0.11103      0.00000     0.38751    0.00146     0.38897
      H   38    0.10145      0.00000     0.39771    0.00084     0.39855
      H   39    0.09886      0.00000     0.40022    0.00092     0.40114
 =======================================================================
   * Total *    0.00003     17.99209    47.80397    0.20391    65.99997

 Normal termination of Gaussian 16 at Fri Dec 11 23:37:07 2020.
