 Gaussian 16, Revision A.03,

 -----------------------------------------------------------
 # opt freq B3LYP/6-31G(d) empiricaldispersion=gd3bj scf=xqc
 -----------------------------------------------------------

 -------------------------------
 CID_130816213_JID_2213_neutraal
 -------------------------------
 Symbolic Z-matrix:
 Charge =  0 Multiplicity = 1

 SCF Done:  E(RB3LYP) =  -502.599540411     A.U. after   12 cycles
 SCF Done:  E(RB3LYP) =  -502.605771899     A.U. after   11 cycles
 SCF Done:  E(RB3LYP) =  -502.606439033     A.U. after   10 cycles
 SCF Done:  E(RB3LYP) =  -502.607035705     A.U. after   10 cycles
 SCF Done:  E(RB3LYP) =  -502.607469483     A.U. after   11 cycles
 SCF Done:  E(RB3LYP) =  -502.607754388     A.U. after   10 cycles
 SCF Done:  E(RB3LYP) =  -502.607981124     A.U. after   10 cycles
 SCF Done:  E(RB3LYP) =  -502.608016641     A.U. after    8 cycles
 SCF Done:  E(RB3LYP) =  -502.608073858     A.U. after   10 cycles
 SCF Done:  E(RB3LYP) =  -502.608083747     A.U. after    8 cycles
 SCF Done:  E(RB3LYP) =  -502.608447657     A.U. after   10 cycles
 SCF Done:  E(RB3LYP) =  -502.608464512     A.U. after    9 cycles
 SCF Done:  E(RB3LYP) =  -502.608469533     A.U. after    9 cycles
 SCF Done:  E(RB3LYP) =  -502.608472184     A.U. after    9 cycles
 SCF Done:  E(RB3LYP) =  -502.608472432     A.U. after    9 cycles
 SCF Done:  E(RB3LYP) =  -502.608472616     A.U. after    7 cycles
 Optimization completed.
    -- Stationary point found.
 Normal termination of Gaussian 16 at Sun Dec 13 12:37:29 2020.

 --------------------------------------------------------------------
 #N Geom=AllCheck Guess=TCheck SCRF=Check GenChk RB3LYP/6-31G(d) Freq
 --------------------------------------------------------------------

 Structure from the checkpoint file:  "JID_2213.chk"
 -------------------------------
 CID_130816213_JID_2213_neutraal
 -------------------------------
 Charge =  0 Multiplicity = 1

 SCF Done:  E(RB3LYP) =  -502.608472616     A.U. after    1 cycles

  Exact polarizability: 135.854   0.575 105.264  -0.726   0.699 100.438
 Approx polarizability: 160.316  -0.547 155.661   0.364   1.315 155.355

                      1                      2                      3
                      A                      A                      A
 Frequencies --     24.3143                44.0551                77.9215
 Red. masses --      2.9967                 3.4841                 2.4487
 Frc consts  --      0.0010                 0.0040                 0.0088
 IR Inten    --      0.0260                 0.5382                 0.2628

                      4                      5                      6
                      A                      A                      A
 Frequencies --    119.0106               167.9930               201.8873
 Red. masses --      2.6916                 2.4127                 2.2453
 Frc consts  --      0.0225                 0.0401                 0.0539
 IR Inten    --      0.4305                 1.2376                 0.8260

                      7                      8                      9
                      A                      A                      A
 Frequencies --    249.7821               260.2827               278.7850
 Red. masses --      2.0164                 2.0267                 2.0802
 Frc consts  --      0.0741                 0.0809                 0.0953
 IR Inten    --      0.0225                 0.8796                14.1144

                     10                     11                     12
                      A                      A                      A
 Frequencies --    291.4936               301.5360               358.1805
 Red. masses --      1.2782                 1.5679                 2.0091
 Frc consts  --      0.0640                 0.0840                 0.1519
 IR Inten    --     35.0441                 4.9856                 0.1862

                     13                     14                     15
                      A                      A                      A
 Frequencies --    404.9707               411.7402               429.5177
 Red. masses --      2.9795                 2.3769                 2.1925
 Frc consts  --      0.2879                 0.2374                 0.2383
 IR Inten    --      6.7851                 0.8004                 1.8124

                     16                     17                     18
                      A                      A                      A
 Frequencies --    432.6587               513.7202               572.0155
 Red. masses --      2.2957                 2.9119                 2.4650
 Frc consts  --      0.2532                 0.4528                 0.4752
 IR Inten    --     14.1330                 1.4701                 1.8837

                     19                     20                     21
                      A                      A                      A
 Frequencies --    680.7596               727.1247               778.4914
 Red. masses --      2.2676                 2.5176                 1.3354
 Frc consts  --      0.6192                 0.7843                 0.4768
 IR Inten    --      2.0948                 4.1791                 1.1976

                     22                     23                     24
                      A                      A                      A
 Frequencies --    809.1410               817.6799               836.7324
 Red. masses --      1.3053                 1.8496                 2.9093
 Frc consts  --      0.5035                 0.7286                 1.2001
 IR Inten    --     11.7983                13.9248                12.4219

                     25                     26                     27
                      A                      A                      A
 Frequencies --    854.9578               901.5398               913.1192
 Red. masses --      2.2133                 2.1990                 2.0284
 Frc consts  --      0.9532                 1.0531                 0.9965
 IR Inten    --      1.8493                 5.1075                21.3635

                     28                     29                     30
                      A                      A                      A
 Frequencies --    922.0166               939.5274               947.2128
 Red. masses --      1.6070                 1.4657                 1.5864
 Frc consts  --      0.8049                 0.7623                 0.8386
 IR Inten    --     75.0968                 4.0653                53.0289

                     31                     32                     33
                      A                      A                      A
 Frequencies --    957.7874               981.8782              1003.2580
 Red. masses --      1.7313                 1.9770                 1.7475
 Frc consts  --      0.9357                 1.1230                 1.0363
 IR Inten    --      7.1308                 2.9630                 3.4622

                     34                     35                     36
                      A                      A                      A
 Frequencies --   1025.7066              1048.6849              1060.0333
 Red. masses --      1.5992                 1.4333                 1.9762
 Frc consts  --      0.9913                 0.9287                 1.3083
 IR Inten    --      1.2766                11.7414                12.3328

                     37                     38                     39
                      A                      A                      A
 Frequencies --   1082.9060              1090.5578              1102.5421
 Red. masses --      2.2115                 1.4156                 1.9375
 Frc consts  --      1.5280                 0.9919                 1.3876
 IR Inten    --      2.3473                 3.4722                 2.7838

                     40                     41                     42
                      A                      A                      A
 Frequencies --   1112.6927              1145.7941              1151.0166
 Red. masses --      1.8270                 1.7665                 1.8373
 Frc consts  --      1.3327                 1.3664                 1.4342
 IR Inten    --      7.4447                 0.8121                 2.3310

                     43                     44                     45
                      A                      A                      A
 Frequencies --   1177.1128              1202.8209              1209.0969
 Red. masses --      1.7597                 1.2918                 1.3263
 Frc consts  --      1.4366                 1.1012                 1.1424
 IR Inten    --      4.6644                 0.2672                 3.8644

                     46                     47                     48
                      A                      A                      A
 Frequencies --   1224.1876              1235.3336              1280.0311
 Red. masses --      1.3908                 1.9947                 1.3461
 Frc consts  --      1.2280                 1.7935                 1.2994
 IR Inten    --     10.6041                35.3518                 3.3080

                     49                     50                     51
                      A                      A                      A
 Frequencies --   1290.7609              1303.9551              1314.5502
 Red. masses --      1.5333                 1.9031                 1.6630
 Frc consts  --      1.5051                 1.9065                 1.6932
 IR Inten    --      4.0831                54.6211                 8.8471

                     52                     53                     54
                      A                      A                      A
 Frequencies --   1326.8769              1342.4464              1366.5077
 Red. masses --      1.4987                 1.3436                 1.7580
 Frc consts  --      1.5546                 1.4266                 1.9342
 IR Inten    --     17.8646                 0.0792                15.4740

                     55                     56                     57
                      A                      A                      A
 Frequencies --   1380.1561              1399.3779              1405.2809
 Red. masses --      1.4652                 1.5245                 1.4491
 Frc consts  --      1.6444                 1.7590                 1.6861
 IR Inten    --      2.3638                24.7957                 5.5677

                     58                     59                     60
                      A                      A                      A
 Frequencies --   1414.4967              1441.2823              1446.5925
 Red. masses --      1.4462                 1.3635                 1.2756
 Frc consts  --      1.7048                 1.6688                 1.5728
 IR Inten    --      3.8645                 6.4570                 1.9361

                     61                     62                     63
                      A                      A                      A
 Frequencies --   1490.4130              1508.9638              1510.1247
 Red. masses --      1.0898                 1.1022                 1.0982
 Frc consts  --      1.4263                 1.4787                 1.4756
 IR Inten    --      2.0608                 3.1636                 2.2595

                     64                     65                     66
                      A                      A                      A
 Frequencies --   1524.6489              1531.8857              1535.7690
 Red. masses --      1.0754                 1.0890                 1.1952
 Frc consts  --      1.4728                 1.5057                 1.6609
 IR Inten    --      4.0322                 2.2095                 9.7916

                     67                     68                     69
                      A                      A                      A
 Frequencies --   1548.4464              1550.1223              1561.1332
 Red. masses --      1.0847                 1.0996                 1.0947
 Frc consts  --      1.5323                 1.5567                 1.5719
 IR Inten    --      4.0334                 8.7919                 8.7660

                     70                     71                     72
                      A                      A                      A
 Frequencies --   1695.1822              2890.5238              2997.9445
 Red. masses --      1.0900                 1.0733                 1.0698
 Frc consts  --      1.8455                 5.2837                 5.6652
 IR Inten    --     28.9094                85.6859                38.7649

                     73                     74                     75
                      A                      A                      A
 Frequencies --   3031.2028              3037.4828              3047.6689
 Red. masses --      1.0660                 1.0633                 1.0392
 Frc consts  --      5.7710                 5.7802                 5.6871
 IR Inten    --     22.7432                24.9218                23.8921

                     76                     77                     78
                      A                      A                      A
 Frequencies --   3056.7099              3060.1463              3069.0210
 Red. masses --      1.0908                 1.0641                 1.0974
 Frc consts  --      6.0047                 5.8713                 6.0900
 IR Inten    --     15.5485                27.6632                33.4054

                     79                     80                     81
                      A                      A                      A
 Frequencies --   3077.6223              3084.6760              3095.5211
 Red. masses --      1.0967                 1.0864                 1.0871
 Frc consts  --      6.1205                 6.0906                 6.1372
 IR Inten    --     29.8657                80.6669                29.5512

                     82                     83                     84
                      A                      A                      A
 Frequencies --   3108.0882              3110.0431              3126.5519
 Red. masses --      1.1016                 1.1061                 1.1003
 Frc consts  --      6.2697                 6.3035                 6.3369
 IR Inten    --     43.6600                40.9213                48.5728

                     85                     86                     87
                      A                      A                      A
 Frequencies --   3145.9744              3166.6315              3224.9454
 Red. masses --      1.0552                 1.0554                 1.1162
 Frc consts  --      6.1534                 6.2354                 6.8395
 IR Inten    --     13.8412                15.7009                 9.5523

                     88                     89                     90
                      A                      A                      A
 Frequencies --   3244.0671              3444.2774              3532.2336
 Red. masses --      1.1152                 1.0492                 1.0921
 Frc consts  --      6.9146                 7.3335                 8.0283
 IR Inten    --     18.7269                 2.8903                 2.4159

 - Thermochemistry -
 -------------------
 Temperature   298.150 Kelvin.  Pressure   1.00000 Atm.
 Atom     1 has atomic number  6 and mass  12.00000

 Molecular mass:   168.16265 amu.
 Principal axes and moments of inertia in atomic units:
                           1         2         3
     Eigenvalues --   868.205673758.207983905.61936
           X            0.99998   0.00622  -0.00200
           Y           -0.00615   0.99952   0.03034
           Z            0.00219  -0.03033   0.99954
 This molecule is an asymmetric top.
 Rotational symmetry number  1.
 Warning -- assumption of classical behavior for rotation
           may cause significant error
 Rotational temperatures (Kelvin)      0.09976     0.02305     0.02218
 Rotational constants (GHZ):           2.07870     0.48021     0.46209
 Zero-point vibrational energy     776375.9 (Joules/Mol)
                                  185.55829 (Kcal/Mol)
 Warning -- explicit consideration of  18 degrees of freedom as
           vibrations may cause significant error
 Vibrational temperatures:     34.98    63.39   112.11   171.23   241.70
          (Kelvin)            290.47   359.38   374.49   401.11   419.39
                              433.84   515.34   582.66   592.40   617.98
                              622.50   739.13   823.00   979.46  1046.17
                             1120.08  1164.17  1176.46  1203.87  1230.09
                             1297.11  1313.77  1326.58  1351.77  1362.83
                             1378.04  1412.70  1443.46  1475.76  1508.82
                             1525.15  1558.06  1569.07  1586.31  1600.92
                             1648.54  1656.06  1693.60  1730.59  1739.62
                             1761.33  1777.37  1841.68  1857.12  1876.10
                             1891.34  1909.08  1931.48  1966.10  1985.74
                             2013.39  2021.89  2035.15  2073.68  2081.32
                             2144.37  2171.06  2172.73  2193.63  2204.04
                             2209.63  2227.87  2230.28  2246.12  2438.99
                             4158.82  4313.37  4361.22  4370.26  4384.92
                             4397.92  4402.87  4415.64  4428.01  4438.16
                             4453.76  4471.85  4474.66  4498.41  4526.36
                             4556.08  4639.98  4667.49  4955.55  5082.10

 Zero-point correction=                           0.295706 (Hartree/Particle)
 Thermal correction to Energy=                    0.308512
 Thermal correction to Enthalpy=                  0.309456
 Thermal correction to Gibbs Free Energy=         0.256027
 Sum of electronic and zero-point Energies=           -502.312767
 Sum of electronic and thermal Energies=              -502.299961
 Sum of electronic and thermal Enthalpies=            -502.299016
 Sum of electronic and thermal Free Energies=         -502.352445

                     E (Thermal)             CV                S
                      KCal/Mol        Cal/Mol-Kelvin    Cal/Mol-Kelvin
 Total                  193.594             49.821            112.450
 Electronic               0.000              0.000              0.000
 Translational            0.889              2.981             41.267
 Rotational               0.889              2.981             30.922
 Vibrational            191.817             43.859             40.261
 Vibration     1          0.593              1.985              6.246
 Vibration     2          0.595              1.980              5.068
 Vibration     3          0.599              1.964              3.943
 Vibration     4          0.609              1.933              3.116
 Vibration     5          0.625              1.882              2.458
 Vibration     6          0.639              1.837              2.116
 Vibration     7          0.663              1.763              1.732
 Vibration     8          0.668              1.745              1.660
 Vibration     9          0.679              1.713              1.541
 Vibration    10          0.687              1.690              1.465
 Vibration    11          0.694              1.671              1.408
 Vibration    12          0.733              1.558              1.130
 Vibration    13          0.770              1.459              0.945
 Vibration    14          0.776              1.445              0.920
 Vibration    15          0.791              1.406              0.860
 Vibration    16          0.794              1.399              0.850
 Vibration    17          0.869              1.220              0.625
 Vibration    18          0.928              1.092              0.500

 Optimization completed.
    -- Stationary point found.
 Normal termination of Gaussian 16 at Sun Dec 13 12:45:30 2020.

 ----------------------------------------------------------------------
 # B3LYP/6-311++G(d,p) empiricaldispersion=gd3bj scf=xqc pop=npa geom=c
 heck
 ----------------------------------------------------------------------

 ---------------------------------------
 CID_130816213_JID_2213_Energie_neutraal
 ---------------------------------------
 Structure from the checkpoint file:  "JID_2213.chk"
 Charge =  0 Multiplicity = 1

 SCF Done:  E(RB3LYP) =  -502.753555564     A.U. after   14 cycles
 Normal termination of Gaussian 16 at Sun Dec 13 12:48:44 2020.

 ----------------------------------------------------------------------
 # B3LYP/6-311++G(d,p) empiricaldispersion=gd3bj scf=xqc pop=npa geom=c
 heck
 ----------------------------------------------------------------------

 -------------------------------------
 CID_130816213_JID_2213_Energie_kation
 -------------------------------------
 Structure from the checkpoint file:  "JID_2213.chk"
 Charge =  1 Multiplicity = 2

 SCF Done:  E(UB3LYP) =  -502.476891846     A.U. after   20 cycles
 Normal termination of Gaussian 16 at Sun Dec 13 12:54:51 2020.
 Gaussian 16:  ES64L-G16RevA.03 25-Dec-2016

 ----------------------------------------------------------------------
 # B3LYP/6-311++G(d,p) empiricaldispersion=gd3bj scf=xqc pop=npa geom=c
 heck
 ----------------------------------------------------------------------

 ------------------------------------
 CID_130816213_JID_2213_Energie_anion
 ------------------------------------
 Structure from the checkpoint file:  "JID_2213.chk"
 Charge = -1 Multiplicity = 2

                         Standard orientation:
 ---------------------------------------------------------------------
 Center     Atomic      Atomic             Coordinates (Angstroms)
 Number     Number       Type             X           Y           Z
 ---------------------------------------------------------------------
      1          6           0       -4.138674   -0.032676    0.039343
      2          6           0       -3.059598   -1.118982   -0.043664
      3          6           0       -1.748996   -0.739134   -0.751328
      4          6           0       -0.792034    0.252354   -0.079403
      5          6           0       -1.243348    1.658281    0.211291
      6          6           0       -1.015797    0.699180    1.357343
      7          7           0        0.563484    0.043077   -0.543241
      8          6           0        1.490202    1.160572   -0.662129
      9          6           0        2.791534    0.447972   -1.025421
     10          6           0        2.783148   -0.776793   -0.078480
     11          6           0        1.274318   -1.078701    0.089065
     12          7           0        3.387809   -0.554244    1.242258
     13          1           0       -3.872314    0.770972    0.732504
     14          1           0       -5.087378   -0.457692    0.386372
     15          1           0       -4.317425    0.419887   -0.943794
     16          1           0       -2.833927   -1.494141    0.962987
     17          1           0       -3.479188   -1.973146   -0.591046
     18          1           0       -1.185264   -1.667851   -0.898403
     19          1           0       -1.970394   -0.365543   -1.761025
     20          1           0       -0.535319    2.471652    0.090522
     21          1           0       -2.260646    1.925770   -0.053597
     22          1           0       -1.872757    0.327602    1.910066
     23          1           0       -0.131834    0.860451    1.969704
     24          1           0        1.152943    1.865350   -1.428056
     25          1           0        1.626466    1.735166    0.278355
     26          1           0        3.683207    1.070248   -0.893277
     27          1           0        2.745368    0.122337   -2.070847
     28          1           0        3.311673   -1.624078   -0.526904
     29          1           0        1.040835   -1.168343    1.162123
     30          1           0        0.990827   -2.027455   -0.381793
     31          1           0        4.363528   -0.280322    1.125583
     32          1           0        2.928027    0.234866    1.697705
 ---------------------------------------------------------------------

 SCF Done:  E(UB3LYP) =  -502.737846924     A.U. after   30 cycles

 The electronic state is 2-A.
 Alpha  occ. eigenvalues --  -14.19819 -14.18934 -10.10774 -10.09684 -10.08815
 Alpha  occ. eigenvalues --  -10.08427 -10.06956 -10.06842 -10.06642 -10.06469
 Alpha  occ. eigenvalues --  -10.06257 -10.06027  -0.84086  -0.78368  -0.74248
 Alpha  occ. eigenvalues --   -0.68134  -0.64713  -0.61343  -0.59714  -0.52336
 Alpha  occ. eigenvalues --   -0.50728  -0.48390  -0.47108  -0.43912  -0.41480
 Alpha  occ. eigenvalues --   -0.40036  -0.38251  -0.36582  -0.34825  -0.33359
 Alpha  occ. eigenvalues --   -0.33099  -0.31427  -0.30599  -0.30097  -0.28738
 Alpha  occ. eigenvalues --   -0.27707  -0.26772  -0.25880  -0.25244  -0.24156
 Alpha  occ. eigenvalues --   -0.23963  -0.23186  -0.22623  -0.20305  -0.17930
 Alpha  occ. eigenvalues --   -0.14147  -0.10461   0.04494
 Alpha virt. eigenvalues --    0.06109   0.07327   0.07764   0.08233   0.08695
 Alpha virt. eigenvalues --    0.09161   0.10163   0.10528   0.10937   0.11195
 Alpha virt. eigenvalues --    0.11653   0.12303   0.12821   0.13493   0.14023

  Beta  occ. eigenvalues --  -14.19818 -14.18892 -10.10772 -10.09673 -10.08791
  Beta  occ. eigenvalues --  -10.08418 -10.06941 -10.06830 -10.06623 -10.06461
  Beta  occ. eigenvalues --  -10.06228 -10.06003  -0.84071  -0.78308  -0.74221
  Beta  occ. eigenvalues --   -0.68105  -0.64673  -0.61293  -0.59674  -0.52285
  Beta  occ. eigenvalues --   -0.50680  -0.48341  -0.47041  -0.43874  -0.41439
  Beta  occ. eigenvalues --   -0.39998  -0.38220  -0.36550  -0.34789  -0.33329
  Beta  occ. eigenvalues --   -0.33054  -0.31395  -0.30566  -0.30068  -0.28704
  Beta  occ. eigenvalues --   -0.27675  -0.26740  -0.25854  -0.25202  -0.24121
  Beta  occ. eigenvalues --   -0.23931  -0.23146  -0.22597  -0.20278  -0.17915
  Beta  occ. eigenvalues --   -0.14100  -0.10437
  Beta virt. eigenvalues --    0.06580   0.07259   0.07905   0.08194   0.08831
  Beta virt. eigenvalues --    0.09237   0.09675   0.10423   0.10986   0.11288
  Beta virt. eigenvalues --    0.11640   0.12000   0.12460   0.13145   0.13949

 Mulliken charges and spin densities:
               1          2
     1  C    0.851396  -1.478180
     2  C   -1.032701   0.828430
     3  C    0.017787  -0.086314
     4  C   -1.347886   1.152083
     5  C   -0.771096   0.473515
     6  C    1.328220  -1.793631
     7  N    0.290234  -0.007015
     8  C   -0.214620   0.059726
     9  C    1.806841  -2.410205
    10  C   -0.516178   0.372886
    11  C    0.789755  -1.230676
    12  N   -0.242577  -0.081856
    13  H   -0.040204   0.168722
    14  H   -0.389127   0.525879
    15  H   -0.103462   0.250156
    16  H    0.033942   0.109750
    17  H   -0.240324   0.392862
    18  H   -0.163808   0.316585
    19  H    0.017330   0.160656
    20  H   -0.533803   0.696753
    21  H    0.030758   0.118299
    22  H    0.221028  -0.076892
    23  H   -0.099616   0.270222
    24  H   -0.114015   0.290710
    25  H   -0.012953   0.137349
    26  H   -0.465451   0.654120
    27  H    0.070601   0.066131
    28  H   -0.253734   0.477213
    29  H    0.133821   0.055901
    30  H    0.034958   0.054681
    31  H   -0.148644   0.374011
    32  H    0.063528   0.158126
 Sum of Mulliken charges =  -1.00000   1.00000

 Dipole moment (field-independent basis, Debye):
    X=             -1.6023    Y=             -0.7689    Z=             -0.5335  Tot=              1.8556
 Quadrupole moment (field-independent basis, Debye-Ang):
   XX=           -168.2896   YY=           -115.8437   ZZ=           -110.0692
   XY=             -6.0128   XZ=             -4.4491   YZ=             -0.5588

 Summary of Natural Population Analysis:

                                       Natural Population
                Natural  -----------------------------------------------
    Atom  No    Charge         Core      Valence    Rydberg      Total
 -----------------------------------------------------------------------
      C    1   -0.28810      0.99966     2.28334    0.00509     3.28810
      C    2   -0.19277      0.99964     2.18485    0.00829     3.19277
      C    3   -0.18635      0.99957     2.17636    0.01041     3.18635
      C    4    0.06929      0.99954     1.91656    0.01462     2.93071
      C    5   -0.20065      0.99959     2.19238    0.00868     3.20065
      C    6   -0.21044      0.99959     2.20191    0.00895     3.21044
      N    7   -0.28288      0.99968     2.77107    0.01214     3.78288
      C    8   -0.08599      0.99962     2.07388    0.01249     3.08599
      C    9   -0.19886      0.99961     2.18953    0.00972     3.19886
      C   10   -0.01853      0.99961     2.00522    0.01369     3.01853
      C   11   -0.08306      0.99960     2.07470    0.00876     3.08306
      N   12   -0.42075      0.99977     2.91020    0.01077     3.92075
      H   13    0.09546      0.00000     0.40323    0.00131     0.40454
      H   14    0.09919      0.00000     0.39964    0.00117     0.40081
      H   15    0.09591      0.00000     0.40299    0.00110     0.40409
      H   16    0.09392      0.00000     0.40482    0.00126     0.40608
      H   17    0.09699      0.00000     0.40191    0.00110     0.40301
      H   18    0.10281      0.00000     0.39581    0.00138     0.39719
      H   19    0.09666      0.00000     0.40193    0.00141     0.40334
      H   20    0.10618      0.00000     0.39265    0.00117     0.39382
      H   21    0.10291      0.00000     0.39594    0.00115     0.39709
      H   22    0.10207      0.00000     0.39695    0.00097     0.39793
      H   23    0.10433      0.00000     0.39450    0.00117     0.39567
      H   24    0.09881      0.00000     0.39950    0.00169     0.40119
      H   25    0.07812      0.00000     0.41938    0.00251     0.42188
      H   26    0.10200      0.00000     0.39584    0.00216     0.39800
      H   27    0.09913      0.00000     0.39949    0.00138     0.40087
      H   28    0.09242      0.00000     0.40654    0.00104     0.40758
      H   29    0.09084      0.00000     0.40738    0.00178     0.40916
      H   30    0.09421      0.00000     0.40436    0.00143     0.40579
      H   31    0.17533      0.00000     0.32209    0.00258     0.32467
      H   32    0.17181      0.00000     0.32559    0.00260     0.32819
 =======================================================================
   * Total *    0.00000     11.99548    34.85053    0.15399    47.00000

 Normal termination of Gaussian 16 at Sun Dec 13 13:03:57 2020.
