 Gaussian 16, Revision A.03,

 -----------------------------------------------------------
 # opt freq B3LYP/6-31G(d) empiricaldispersion=gd3bj scf=xqc
 -----------------------------------------------------------

 ------------------------------
 CID_84185604_JID_9457_neutraal
 ------------------------------
 Symbolic Z-matrix:
 Charge =  0 Multiplicity = 1

 SCF Done:  E(RB3LYP) =  -823.765736313     A.U. after   15 cycles
 SCF Done:  E(RB3LYP) =  -823.769795418     A.U. after   12 cycles
 SCF Done:  E(RB3LYP) =  -823.768856226     A.U. after   13 cycles
 SCF Done:  E(RB3LYP) =  -823.771002024     A.U. after   12 cycles
 SCF Done:  E(RB3LYP) =  -823.771434959     A.U. after   11 cycles
 SCF Done:  E(RB3LYP) =  -823.771828465     A.U. after   12 cycles
 SCF Done:  E(RB3LYP) =  -823.772057235     A.U. after   11 cycles
 SCF Done:  E(RB3LYP) =  -823.772201673     A.U. after   12 cycles
 SCF Done:  E(RB3LYP) =  -823.772261602     A.U. after   10 cycles
 SCF Done:  E(RB3LYP) =  -823.772289228     A.U. after   10 cycles
 SCF Done:  E(RB3LYP) =  -823.772613960     A.U. after   11 cycles
 SCF Done:  E(RB3LYP) =  -823.772626114     A.U. after   11 cycles
 SCF Done:  E(RB3LYP) =  -823.772624961     A.U. after   10 cycles
 SCF Done:  E(RB3LYP) =  -823.772626633     A.U. after   10 cycles
 SCF Done:  E(RB3LYP) =  -823.772626532     A.U. after    8 cycles
 Optimization completed.
    -- Stationary point found.
 Normal termination of Gaussian 16 at Sat Dec 12 11:00:40 2020.

 --------------------------------------------------------------------
 #N Geom=AllCheck Guess=TCheck SCRF=Check GenChk RB3LYP/6-31G(d) Freq
 --------------------------------------------------------------------

 Structure from the checkpoint file:  "JID_9457.chk"
 ------------------------------
 CID_84185604_JID_9457_neutraal
 ------------------------------
 Charge =  0 Multiplicity = 1

 SCF Done:  E(RB3LYP) =  -823.772626532     A.U. after    1 cycles

  Exact polarizability: 229.085  -2.484 161.175  -1.968   8.088 144.057
 Approx polarizability: 319.796  -7.205 247.236  -1.498  16.793 221.043

                      1                      2                      3
                      A                      A                      A
 Frequencies --     27.5851                32.7457                37.3356
 Red. masses --      3.8308                 1.0683                 3.0450
 Frc consts  --      0.0017                 0.0007                 0.0025
 IR Inten    --      0.1022                 0.1917                 0.4495

                      4                      5                      6
                      A                      A                      A
 Frequencies --     45.5558                65.6657                69.6400
 Red. masses --      3.4875                 1.3507                 2.1162
 Frc consts  --      0.0043                 0.0034                 0.0060
 IR Inten    --      0.5732                 0.6724                 1.5422

                      7                      8                      9
                      A                      A                      A
 Frequencies --     77.1786               109.6244               120.3445
 Red. masses --      3.0494                 1.1264                 2.4005
 Frc consts  --      0.0107                 0.0080                 0.0205
 IR Inten    --      3.4300                 0.7988                 3.0560

                     10                     11                     12
                      A                      A                      A
 Frequencies --    137.8554               151.2236               180.9959
 Red. masses --      3.9004                 2.7810                 3.6988
 Frc consts  --      0.0437                 0.0375                 0.0714
 IR Inten    --      2.5682                 0.7088                 1.7366

                     13                     14                     15
                      A                      A                      A
 Frequencies --    192.0780               195.4387               215.5137
 Red. masses --      2.7758                 2.6437                 2.1644
 Frc consts  --      0.0603                 0.0595                 0.0592
 IR Inten    --     12.7976                 2.2302                 0.5459

                     16                     17                     18
                      A                      A                      A
 Frequencies --    221.7783               255.1469               272.0245
 Red. masses --      2.9499                 1.3669                 2.9334
 Frc consts  --      0.0855                 0.0524                 0.1279
 IR Inten    --      0.8203                31.1972                 0.6511

                     19                     20                     21
                      A                      A                      A
 Frequencies --    288.0756               307.6223               339.5330
 Red. masses --      1.4437                 2.8308                 4.6315
 Frc consts  --      0.0706                 0.1578                 0.3146
 IR Inten    --      0.3425                 9.8928                 1.5174

                     22                     23                     24
                      A                      A                      A
 Frequencies --    362.0166               381.4221               385.6813
 Red. masses --      3.7644                 3.0546                 3.3081
 Frc consts  --      0.2907                 0.2618                 0.2899
 IR Inten    --      1.1714                10.6464                 4.7523

                     25                     26                     27
                      A                      A                      A
 Frequencies --    449.7587               497.0180               535.5068
 Red. masses --      3.3208                 3.1438                 4.9881
 Frc consts  --      0.3958                 0.4576                 0.8428
 IR Inten    --      2.8615                 0.6275                 1.1643

                     28                     29                     30
                      A                      A                      A
 Frequencies --    554.3134               568.9777               594.7997
 Red. masses --      4.5704                 3.4499                 4.1976
 Frc consts  --      0.8274                 0.6580                 0.8750
 IR Inten    --      4.5479                 0.1464                 3.5950

                     31                     32                     33
                      A                      A                      A
 Frequencies --    608.4160               623.2819               635.9007
 Red. masses --      3.8504                 4.3355                 4.6969
 Frc consts  --      0.8398                 0.9923                 1.1190
 IR Inten    --      4.1603                 0.7819                 2.9463

                     34                     35                     36
                      A                      A                      A
 Frequencies --    664.0219               746.9210               756.1318
 Red. masses --      3.8120                 3.9537                 2.9582
 Frc consts  --      0.9903                 1.2996                 0.9965
 IR Inten    --      2.6072                 2.7496                 7.6097

                     37                     38                     39
                      A                      A                      A
 Frequencies --    781.3440               788.3896               845.9128
 Red. masses --      2.0894                 3.1717                 1.3922
 Frc consts  --      0.7516                 1.1615                 0.5869
 IR Inten    --     11.1767                 3.4994                26.7316

                     40                     41                     42
                      A                      A                      A
 Frequencies --    867.9309               873.2792               921.9972
 Red. masses --      1.4495                 1.7456                 1.4646
 Frc consts  --      0.6433                 0.7843                 0.7335
 IR Inten    --     15.6554                32.6811                56.4604

                     43                     44                     45
                      A                      A                      A
 Frequencies --    947.8076               955.4287               995.4059
 Red. masses --      1.8094                 3.3100                 4.8103
 Frc consts  --      0.9577                 1.7802                 2.8082
 IR Inten    --      1.9096                 9.5064                 1.6262

                     46                     47                     48
                      A                      A                      A
 Frequencies --   1029.5635              1038.8582              1049.1970
 Red. masses --      6.3020                 1.7861                 1.8639
 Frc consts  --      3.9358                 1.1357                 1.2089
 IR Inten    --     23.2128                 8.2689                 3.7169

                     49                     50                     51
                      A                      A                      A
 Frequencies --   1052.7902              1059.8694              1073.0975
 Red. masses --      2.4724                 2.9081                 1.5209
 Frc consts  --      1.6145                 1.9247                 1.0319
 IR Inten    --     15.5936                14.6551                12.2101

                     52                     53                     54
                      A                      A                      A
 Frequencies --   1077.0415              1087.2935              1119.5415
 Red. masses --      1.5099                 1.5976                 2.1487
 Frc consts  --      1.0320                 1.1128                 1.5868
 IR Inten    --      2.4025                 3.8669                 5.4209

                     55                     56                     57
                      A                      A                      A
 Frequencies --   1145.2283              1157.3929              1175.9047
 Red. masses --      3.9457                 1.3391                 1.3759
 Frc consts  --      3.0490                 1.0569                 1.1209
 IR Inten    --     82.3314                17.7700                 8.9934

                     58                     59                     60
                      A                      A                      A
 Frequencies --   1186.2084              1196.4143              1210.2657
 Red. masses --      1.2730                 1.6446                 1.5076
 Frc consts  --      1.0554                 1.3870                 1.3010
 IR Inten    --      0.8806                 6.8451                31.4379

                     61                     62                     63
                      A                      A                      A
 Frequencies --   1225.9375              1242.0127              1274.1180
 Red. masses --      1.5171                 1.2399                 2.3634
 Frc consts  --      1.3434                 1.1269                 2.2605
 IR Inten    --     15.8159                 0.0499                15.8239

                     64                     65                     66
                      A                      A                      A
 Frequencies --   1285.7037              1335.0943              1336.9325
 Red. masses --      1.6260                 4.7114                 2.5206
 Frc consts  --      1.5836                 4.9480                 2.6545
 IR Inten    --     28.0944                28.7993                25.5932

                     67                     68                     69
                      A                      A                      A
 Frequencies --   1357.5400              1364.5920              1370.2076
 Red. masses --      1.8596                 3.9729                 2.0206
 Frc consts  --      2.0192                 4.3588                 2.2351
 IR Inten    --      6.6259                60.3346                27.1026

                     70                     71                     72
                      A                      A                      A
 Frequencies --   1390.8978              1440.7367              1443.0604
 Red. masses --      2.9612                 1.2365                 1.2754
 Frc consts  --      3.3753                 1.5122                 1.5648
 IR Inten    --     27.6169                 0.9821                 0.1137

                     73                     74                     75
                      A                      A                      A
 Frequencies --   1445.3025              1462.5175              1468.2472
 Red. masses --      1.3896                 2.2704                 1.7201
 Frc consts  --      1.7102                 2.8612                 2.1848
 IR Inten    --      4.3403                44.0235                35.7920

                     76                     77                     78
                      A                      A                      A
 Frequencies --   1475.3006              1488.5900              1505.6329
 Red. masses --      3.4816                 1.8607                 1.2434
 Frc consts  --      4.4647                 2.4293                 1.6608
 IR Inten    --     14.6462                 8.9296                 1.3780

                     79                     80                     81
                      A                      A                      A
 Frequencies --   1509.2899              1509.8378              1513.2390
 Red. masses --      1.1016                 1.0596                 1.0819
 Frc consts  --      1.4785                 1.4232                 1.4597
 IR Inten    --      3.0529                10.1253                 9.1461

                     82                     83                     84
                      A                      A                      A
 Frequencies --   1517.0319              1520.9101              1524.1618
 Red. masses --      1.0545                 1.0483                 1.1558
 Frc consts  --      1.4299                 1.4287                 1.5820
 IR Inten    --      5.8992                 5.5275                 9.2234

                     85                     86                     87
                      A                      A                      A
 Frequencies --   1529.4842              1534.5983              1545.2752
 Red. masses --      1.2311                 1.1028                 1.1403
 Frc consts  --      1.6968                 1.5302                 1.6043
 IR Inten    --     64.2289                11.9299                 5.8545

                     88                     89                     90
                      A                      A                      A
 Frequencies --   1547.6016              1566.9591              1603.2740
 Red. masses --      1.1206                 4.1096                 6.0833
 Frc consts  --      1.5813                 5.9452                 9.2131
 IR Inten    --      3.0804                 9.6092                22.8408

                     91                     92                     93
                      A                      A                      A
 Frequencies --   1631.2787              1668.0736              1698.2977
 Red. masses --      6.4611                 6.0261                 1.0920
 Frc consts  --     10.1301                 9.8791                 1.8557
 IR Inten    --     61.7186                49.6099                10.4064

                     94                     95                     96
                      A                      A                      A
 Frequencies --   2995.5023              3023.5760              3032.5048
 Red. masses --      1.0698                 1.0351                 1.0631
 Frc consts  --      5.6557                 5.5754                 5.7599
 IR Inten    --     37.1725                57.8860                22.9028

                     97                     98                     99
                      A                      A                      A
 Frequencies --   3042.5967              3053.1070              3059.9911
 Red. masses --      1.0390                 1.0371                 1.0429
 Frc consts  --      5.6670                 5.6956                 5.7533
 IR Inten    --     40.1129                19.2941                86.0080

                    100                    101                    102
                      A                      A                      A
 Frequencies --   3060.5931              3078.2560              3082.2880
 Red. masses --      1.0928                 1.0956                 1.1062
 Frc consts  --      6.0312                 6.1164                 6.1919
 IR Inten    --     21.6636                65.5920                39.1139

                    103                    104                    105
                      A                      A                      A
 Frequencies --   3096.2792              3111.0888              3128.3016
 Red. masses --      1.0987                 1.0989                 1.1012
 Frc consts  --      6.2060                 6.2668                 6.3495
 IR Inten    --     20.9825                13.8567                16.5667

                    106                    107                    108
                      A                      A                      A
 Frequencies --   3131.6415              3134.3213              3158.2546
 Red. masses --      1.0983                 1.1031                 1.0995
 Frc consts  --      6.3460                 6.3851                 6.4614
 IR Inten    --     17.9133                20.9086                23.3237

                    109                    110                    111
                      A                      A                      A
 Frequencies --   3166.2806              3182.8631              3215.1624
 Red. masses --      1.1052                 1.0901                 1.0892
 Frc consts  --      6.5282                 6.5064                 6.6338
 IR Inten    --      8.5235                20.7123                11.0231

                    112                    113                    114
                      A                      A                      A
 Frequencies --   3260.0552              3470.8803              3559.1217
 Red. masses --      1.0973                 1.0512                 1.0896
 Frc consts  --      6.8710                 7.4616                 8.1320
 IR Inten    --      4.2386                 8.9116                 9.6871

 - Thermochemistry -
 -------------------
 Temperature   298.150 Kelvin.  Pressure   1.00000 Atm.
 Atom     1 has atomic number  6 and mass  12.00000

 Molecular mass:   259.16846 amu.
 Principal axes and moments of inertia in atomic units:
                           1         2         3
     Eigenvalues --  3330.563716621.651846698.74909
           X            0.99999   0.00308   0.00134
           Y           -0.00330   0.97561   0.21951
           Z           -0.00063  -0.21951   0.97561
 This molecule is an asymmetric top.
 Rotational symmetry number  1.
 Warning -- assumption of classical behavior for rotation
           may cause significant error
 Rotational temperatures (Kelvin)      0.02601     0.01308     0.01293
 Rotational constants (GHZ):           0.54187     0.27255     0.26941
 Zero-point vibrational energy     901492.0 (Joules/Mol)
                                  215.46176 (Kcal/Mol)
 Warning -- explicit consideration of  31 degrees of freedom as
           vibrations may cause significant error
 Vibrational temperatures:     39.69    47.11    53.72    65.54    94.48
          (Kelvin)            100.20   111.04   157.72   173.15   198.34
                              217.58   260.41   276.36   281.19   310.08
                              319.09   367.10   391.38   414.48   442.60
                              488.51   520.86   548.78   554.91   647.10
                              715.10   770.47   797.53   818.63   855.78
                              875.37   896.76   914.92   955.38  1074.65
                             1087.90  1124.18  1134.32  1217.08  1248.76
                             1256.45  1326.55  1363.68  1374.65  1432.17
                             1481.31  1494.69  1509.56  1514.73  1524.92
                             1543.95  1549.62  1564.37  1610.77  1647.73
                             1665.23  1691.86  1706.69  1721.37  1741.30
                             1763.85  1786.98  1833.17  1849.84  1920.90
                             1923.55  1953.20  1963.34  1971.42  2001.19
                             2072.90  2076.24  2079.47  2104.24  2112.48
                             2122.63  2141.75  2166.27  2171.53  2172.32
                             2177.21  2182.67  2188.25  2192.93  2200.59
                             2207.94  2223.31  2226.65  2254.50  2306.75
                             2347.05  2399.99  2443.47  4309.86  4350.25
                             4363.10  4377.62  4392.74  4402.64  4403.51
                             4428.92  4434.72  4454.86  4476.16  4500.93
                             4505.73  4509.59  4544.02  4555.57  4579.43
                             4625.90  4690.49  4993.82  5120.78

 Zero-point correction=                           0.343360 (Hartree/Particle)
 Thermal correction to Energy=                    0.363782
 Thermal correction to Enthalpy=                  0.364727
 Thermal correction to Gibbs Free Energy=         0.292591
 Sum of electronic and zero-point Energies=           -823.429266
 Sum of electronic and thermal Energies=              -823.408844
 Sum of electronic and thermal Enthalpies=            -823.407900
 Sum of electronic and thermal Free Energies=         -823.480036

                     E (Thermal)             CV                S
                      KCal/Mol        Cal/Mol-Kelvin    Cal/Mol-Kelvin
 Total                  228.277             73.919            151.823
 Electronic               0.000              0.000              0.000
 Translational            0.889              2.981             42.557
 Rotational               0.889              2.981             33.357
 Vibrational            226.499             67.957             75.909
 Vibration     1          0.593              1.984              5.996
 Vibration     2          0.594              1.983              5.656
 Vibration     3          0.594              1.982              5.396
 Vibration     4          0.595              1.979              5.002
 Vibration     5          0.597              1.971              4.279
 Vibration     6          0.598              1.969              4.164
 Vibration     7          0.599              1.964              3.961
 Vibration     8          0.606              1.942              3.276
 Vibration     9          0.609              1.932              3.095
 Vibration    10          0.614              1.916              2.833
 Vibration    11          0.619              1.901              2.657
 Vibration    12          0.630              1.866              2.318
 Vibration    13          0.634              1.851              2.208
 Vibration    14          0.636              1.846              2.176
 Vibration    15          0.645              1.817              1.996
 Vibration    16          0.648              1.808              1.945
 Vibration    17          0.666              1.754              1.695
 Vibration    18          0.675              1.725              1.583
 Vibration    19          0.685              1.696              1.485
 Vibration    20          0.697              1.659              1.375
 Vibration    21          0.719              1.596              1.214
 Vibration    22          0.736              1.550              1.113
 Vibration    23          0.751              1.510              1.034
 Vibration    24          0.754              1.501              1.017
 Vibration    25          0.809              1.361              0.797
 Vibration    26          0.853              1.257              0.666
 Vibration    27          0.891              1.171              0.575
 Vibration    28          0.910              1.130              0.535
 Vibration    29          0.925              1.098              0.506
 Vibration    30          0.952              1.043              0.459
 Vibration    31          0.967              1.014              0.435

                           ! Non-Optimized Parameters !
 Normal termination of Gaussian 16 at Sat Dec 12 11:25:29 2020.

 ----------------------------------------------------------------------
 # B3LYP/6-311++G(d,p) empiricaldispersion=gd3bj scf=xqc pop=npa geom=c
 heck
 ----------------------------------------------------------------------

 --------------------------------------
 CID_84185604_JID_9457_Energie_neutraal
 --------------------------------------
 Structure from the checkpoint file:  "JID_9457.chk"
 Charge =  0 Multiplicity = 1

 SCF Done:  E(RB3LYP) =  -823.997694228     A.U. after   16 cycles
 Normal termination of Gaussian 16 at Sat Dec 12 11:37:14 2020.

 ----------------------------------------------------------------------
 # B3LYP/6-311++G(d,p) empiricaldispersion=gd3bj scf=xqc pop=npa geom=c
 heck
 ----------------------------------------------------------------------

 ------------------------------------
 CID_84185604_JID_9457_Energie_kation
 ------------------------------------
 Structure from the checkpoint file:  "JID_9457.chk"
 Charge =  1 Multiplicity = 2

 SCF Done:  E(UB3LYP) =  -823.721676508     A.U. after   31 cycles
 Normal termination of Gaussian 16 at Sat Dec 12 12:09:26 2020.
 Gaussian 16:  ES64L-G16RevA.03 25-Dec-2016

 ----------------------------------------------------------------------
 # B3LYP/6-311++G(d,p) empiricaldispersion=gd3bj scf=xqc pop=npa geom=c
 heck
 ----------------------------------------------------------------------

 -----------------------------------
 CID_84185604_JID_9457_Energie_anion
 -----------------------------------
 Structure from the checkpoint file:  "JID_9457.chk"
 Charge = -1 Multiplicity = 2

                         Standard orientation:
 ---------------------------------------------------------------------
 Center     Atomic      Atomic             Coordinates (Angstroms)
 Number     Number       Type             X           Y           Z
 ---------------------------------------------------------------------
      1          6           0        4.611726   -0.795639    0.485504
      2          6           0        3.108986   -0.677647    0.406056
      3          6           0        2.335097   -1.707698   -0.126913
      4          6           0        0.938405   -1.616758   -0.185416
      5          6           0        0.299839   -0.463675    0.293646
      6          6           0        1.080103    0.578174    0.833689
      7          6           0        2.471303    0.472907    0.887316
      8          8           0        0.386431    1.676008    1.255091
      9          6           0        1.117545    2.764953    1.788380
     10          6           0       -1.171628   -0.316876    0.200956
     11          7           0       -1.956436   -0.684180    1.221043
     12          7           0       -3.216486   -0.448241    0.795647
     13          6           0       -3.243847    0.071331   -0.461263
     14          6           0       -1.934751    0.167392   -0.900414
     15          6           0       -1.481504    0.655944   -2.249356
     16          6           0       -0.343320    1.703452   -2.239794
     17          7           0        0.946397    1.080102   -2.569635
     18          6           0       -4.324505   -0.648798    1.703875
     19          6           0        0.121825   -2.740311   -0.775029
     20          1           0        4.939284   -0.997037    1.513703
     21          1           0        4.980577   -1.610733   -0.144359
     22          1           0        5.104072    0.129928    0.165638
     23          1           0        2.823710   -2.601620   -0.505918
     24          1           0        3.072420    1.276793    1.296899
     25          1           0        1.679732    2.472982    2.684962
     26          1           0        1.813090    3.185045    1.049425
     27          1           0        0.375773    3.519198    2.056225
     28          1           0       -4.175018    0.326789   -0.948453
     29          1           0       -1.138063   -0.179600   -2.874958
     30          1           0       -2.355550    1.074240   -2.762376
     31          1           0       -0.542223    2.450716   -3.017306
     32          1           0       -0.356246    2.231982   -1.272863
     33          1           0        1.677170    1.790399   -2.551109
     34          1           0        1.194205    0.414346   -1.840036
     35          1           0       -4.151598   -1.564606    2.272508
     36          1           0       -4.421400    0.190579    2.401814
     37          1           0       -5.247415   -0.746351    1.127156
     38          1           0        0.756413   -3.592750   -1.034268
     39          1           0       -0.646333   -3.076439   -0.070935
     40          1           0       -0.400017   -2.416200   -1.683279
 ---------------------------------------------------------------------

 SCF Done:  E(UB3LYP) =  -823.985773861     A.U. after   33 cycles
 SCF Done:  E(UB3LYP) =  -823.985773861     a.u. after    1 cycles

 The electronic state is 2-A.
 Alpha  occ. eigenvalues --  -19.06152 -14.29211 -14.22847 -14.19186 -10.14519
 Alpha  occ. eigenvalues --  -10.12892 -10.11763 -10.10520 -10.09755 -10.09692
 Alpha  occ. eigenvalues --  -10.09649 -10.09551 -10.08536 -10.08168 -10.08039
 Alpha  occ. eigenvalues --  -10.07849 -10.07761 -10.07558 -10.07489  -0.97873
 Alpha  occ. eigenvalues --   -0.95240  -0.78627  -0.77631  -0.74881  -0.70344
 Alpha  occ. eigenvalues --   -0.69848  -0.67900  -0.64391  -0.62169  -0.61183
 Alpha  occ. eigenvalues --   -0.60239  -0.57596  -0.52796  -0.50268  -0.49291
 Alpha  occ. eigenvalues --   -0.48215  -0.46542  -0.43159  -0.41824  -0.41070
 Alpha  occ. eigenvalues --   -0.39446  -0.38286  -0.38160  -0.37929  -0.36557
 Alpha  occ. eigenvalues --   -0.34499  -0.34226  -0.33924  -0.33532  -0.33125
 Alpha  occ. eigenvalues --   -0.32738  -0.31701  -0.31372  -0.30717  -0.30008
 Alpha  occ. eigenvalues --   -0.29359  -0.28012  -0.27564  -0.27260  -0.26466
 Alpha  occ. eigenvalues --   -0.26244  -0.25842  -0.23785  -0.22314  -0.19583
 Alpha  occ. eigenvalues --   -0.15462  -0.15314  -0.14992  -0.14017  -0.13155
 Alpha  occ. eigenvalues --    0.03861
 Alpha virt. eigenvalues --    0.05128   0.06389   0.06911   0.07046   0.07608
 Alpha virt. eigenvalues --    0.08033   0.08187   0.08628   0.09209   0.09322
 Alpha virt. eigenvalues --    0.09753   0.10375   0.10527   0.10842   0.11315

  Beta  occ. eigenvalues --  -19.06147 -14.29210 -14.22838 -14.19175 -10.14520
  Beta  occ. eigenvalues --  -10.12852 -10.11721 -10.10503 -10.09754 -10.09682
  Beta  occ. eigenvalues --  -10.09642 -10.09544 -10.08531 -10.08144 -10.08035
  Beta  occ. eigenvalues --  -10.07846 -10.07746 -10.07556 -10.07490  -0.97861
  Beta  occ. eigenvalues --   -0.95231  -0.78610  -0.77615  -0.74864  -0.70330
  Beta  occ. eigenvalues --   -0.69824  -0.67882  -0.64366  -0.62129  -0.61141
  Beta  occ. eigenvalues --   -0.60221  -0.57556  -0.52773  -0.50235  -0.49256
  Beta  occ. eigenvalues --   -0.48185  -0.46518  -0.43126  -0.41787  -0.41054
  Beta  occ. eigenvalues --   -0.39422  -0.38261  -0.38136  -0.37902  -0.36536
  Beta  occ. eigenvalues --   -0.34469  -0.34197  -0.33900  -0.33503  -0.33095
  Beta  occ. eigenvalues --   -0.32715  -0.31671  -0.31346  -0.30693  -0.29987
  Beta  occ. eigenvalues --   -0.29339  -0.27993  -0.27548  -0.27241  -0.26452
  Beta  occ. eigenvalues --   -0.26224  -0.25825  -0.23761  -0.22288  -0.19566
  Beta  occ. eigenvalues --   -0.15444  -0.15281  -0.14976  -0.14008  -0.13136
  Beta virt. eigenvalues --    0.05904   0.06369   0.06832   0.07082   0.07317
  Beta virt. eigenvalues --    0.07842   0.08330   0.08635   0.08691   0.09571
  Beta virt. eigenvalues --    0.09684   0.10028   0.10447   0.10692   0.11141

 Mulliken charges and spin densities:
               1          2
     1  C    0.704975  -1.263950
     2  C    0.844328  -0.585174
     3  C   -1.051151   0.155344
     4  C    0.369785  -0.065043
     5  C    0.062102   0.130040
     6  C   -1.628414   1.208179
     7  C    0.005452  -0.173739
     8  O   -0.033637   0.010885
     9  C    0.715091  -0.993732
    10  C   -0.369502  -0.138530
    11  N   -0.412727   0.238256
    12  N    0.302371  -0.004492
    13  C    0.132519  -0.099368
    14  C    0.754699  -0.147706
    15  C   -0.472649  -0.276317
    16  C   -0.172247  -0.208481
    17  N   -0.332311  -0.035639
    18  C    0.878349  -1.157879
    19  C    0.015855  -0.487617
    20  H    0.030446   0.138271
    21  H   -0.003337   0.145725
    22  H   -0.324695   0.488249
    23  H   -0.039457   0.181495
    24  H   -0.111629   0.310277
    25  H   -0.122333   0.260330
    26  H   -0.391716   0.552351
    27  H   -0.277552   0.453820
    28  H   -0.705950   0.899507
    29  H    0.189413   0.014598
    30  H    0.112543   0.015929
    31  H   -0.031225   0.199917
    32  H    0.250888  -0.122768
    33  H    0.042284   0.177088
    34  H    0.405209  -0.120377
    35  H   -0.057810   0.220698
    36  H   -0.141782   0.317216
    37  H   -0.539864   0.694178
    38  H    0.141059  -0.002748
    39  H    0.140113   0.044033
    40  H    0.122509   0.027174
 Sum of Mulliken charges =  -1.00000   1.00000

 Dipole moment (field-independent basis, Debye):
    X=              1.8793    Y=             -3.3758    Z=             -1.6457  Tot=              4.1996
 Quadrupole moment (field-independent basis, Debye-Ang):
   XX=           -214.6827   YY=           -155.4505   ZZ=           -157.1283
   XY=            -11.2159   XZ=              4.3699   YZ=             -1.4865

 Summary of Natural Population Analysis:

                                       Natural Population
                Natural  -----------------------------------------------
    Atom  No    Charge         Core      Valence    Rydberg      Total
 -----------------------------------------------------------------------
      C    1   -0.29320      0.99963     2.28775    0.00582     3.29320
      C    2   -0.00103      0.99953     1.99263    0.00888     3.00103
      C    3   -0.12166      0.99947     2.11303    0.00916     3.12166
      C    4    0.00659      0.99949     1.98555    0.00837     2.99341
      C    5   -0.06131      0.99940     2.05015    0.01176     3.06131
      C    6    0.18099      0.99935     1.80591    0.01375     2.81901
      C    7   -0.14874      0.99946     2.13992    0.00935     3.14874
      O    8   -0.26762      0.99985     3.25833    0.00943     4.26762
      C    9   -0.10074      0.99960     2.09192    0.00923     3.10074
      C   10    0.06942      0.99951     1.91381    0.01727     2.93058
      N   11   -0.14923      0.99970     2.63869    0.01085     3.64923
      N   12   -0.10363      0.99967     2.59190    0.01207     3.60363
      C   13   -0.00368      0.99949     1.99276    0.01143     3.00368
      C   14   -0.06162      0.99947     2.05150    0.01065     3.06162
      C   15   -0.20249      0.99960     2.19479    0.00810     3.20249
      C   16   -0.09065      0.99964     2.08059    0.01042     3.09065
      N   17   -0.42460      0.99977     2.91557    0.00926     3.92460
      C   18   -0.17125      0.99964     2.16331    0.00830     3.17125
      C   19   -0.29481      0.99963     2.29046    0.00472     3.29481
      H   20    0.10406      0.00000     0.39511    0.00083     0.39594
      H   21    0.10074      0.00000     0.39848    0.00078     0.39926
      H   22    0.10706      0.00000     0.39161    0.00133     0.39294
      H   23    0.09659      0.00000     0.40213    0.00128     0.40341
      H   24    0.10746      0.00000     0.39091    0.00164     0.39254
      H   25    0.08454      0.00000     0.41409    0.00137     0.41546
      H   26    0.08671      0.00000     0.41104    0.00226     0.41329
      H   27    0.09486      0.00000     0.40413    0.00100     0.40514
      H   28    0.10448      0.00000     0.39406    0.00146     0.39552
      H   29    0.10475      0.00000     0.39379    0.00146     0.39525
      H   30    0.10189      0.00000     0.39703    0.00108     0.39811
      H   31    0.08628      0.00000     0.41279    0.00093     0.41372
      H   32    0.08677      0.00000     0.41126    0.00198     0.41323
      H   33    0.17360      0.00000     0.32469    0.00171     0.32640
      H   34    0.17873      0.00000     0.31851    0.00276     0.32127
      H   35    0.10366      0.00000     0.39498    0.00136     0.39634
      H   36    0.09836      0.00000     0.40032    0.00132     0.40164
      H   37    0.10234      0.00000     0.39527    0.00239     0.39766
      H   38    0.09849      0.00000     0.40079    0.00071     0.40151
      H   39    0.11093      0.00000     0.38814    0.00093     0.38907
      H   40    0.10699      0.00000     0.39203    0.00098     0.39301
 =======================================================================
   * Total *    0.00000     18.99188    50.78973    0.21839    70.00000

 Normal termination of Gaussian 16 at Sat Dec 12 12:44:05 2020.
