 Gaussian 16, Revision A.03,

 -----------------------------------------------------------
 # opt freq B3LYP/6-31G(d) empiricaldispersion=gd3bj scf=xqc
 -----------------------------------------------------------

 -------------------------------
 CID_118582153_JID_3349_neutraal
 -------------------------------
 Symbolic Z-matrix:
 Charge =  0 Multiplicity = 1

 SCF Done:  E(RB3LYP) =  -525.913646870     A.U. after   13 cycles
 SCF Done:  E(RB3LYP) =  -525.918475440     A.U. after   11 cycles
 SCF Done:  E(RB3LYP) =  -525.918893479     A.U. after   10 cycles
 SCF Done:  E(RB3LYP) =  -525.918956844     A.U. after   10 cycles
 SCF Done:  E(RB3LYP) =  -525.918997270     A.U. after    9 cycles
 SCF Done:  E(RB3LYP) =  -525.919004539     A.U. after    9 cycles
 SCF Done:  E(RB3LYP) =  -525.919007516     A.U. after    8 cycles
 SCF Done:  E(RB3LYP) =  -525.919008313     A.U. after    7 cycles
 SCF Done:  E(RB3LYP) =  -525.919009595     A.U. after    8 cycles
 SCF Done:  E(RB3LYP) =  -525.919010476     A.U. after    8 cycles
 SCF Done:  E(RB3LYP) =  -525.919011619     A.U. after    8 cycles
 SCF Done:  E(RB3LYP) =  -525.919012768     A.U. after    8 cycles
 SCF Done:  E(RB3LYP) =  -525.919013101     A.U. after    7 cycles
 SCF Done:  E(RB3LYP) =  -525.919013173     A.U. after    6 cycles
 SCF Done:  E(RB3LYP) =  -525.919013197     A.U. after    6 cycles
 Optimization completed.
    -- Stationary point found.
 Normal termination of Gaussian 16 at Wed Dec  9 23:05:32 2020.

 --------------------------------------------------------------------
 #N Geom=AllCheck Guess=TCheck SCRF=Check GenChk RB3LYP/6-31G(d) Freq
 --------------------------------------------------------------------

 Structure from the checkpoint file:  "JID_3349.chk"
 -------------------------------
 CID_118582153_JID_3349_neutraal
 -------------------------------
 Charge =  0 Multiplicity = 1

 SCF Done:  E(RB3LYP) =  -525.919013197     A.U. after    1 cycles

  Exact polarizability: 137.378   1.287 130.935  -1.525   0.645 113.346
 Approx polarizability: 179.001   1.635 177.849   0.438   1.101 170.860

                      1                      2                      3
                      A                      A                      A
 Frequencies --     35.1130                59.5150                70.2955
 Red. masses --      2.6320                 2.3128                 2.4333
 Frc consts  --      0.0019                 0.0048                 0.0071
 IR Inten    --      0.0031                 0.0365                 0.1717

                      4                      5                      6
                      A                      A                      A
 Frequencies --     88.8520               153.7374               184.6739
 Red. masses --      2.3918                 2.5907                 2.2538
 Frc consts  --      0.0111                 0.0361                 0.0453
 IR Inten    --      0.0494                 0.2633                 0.2976

                      7                      8                      9
                      A                      A                      A
 Frequencies --    211.5867               217.5850               239.4823
 Red. masses --      1.3832                 1.1516                 2.2288
 Frc consts  --      0.0365                 0.0321                 0.0753
 IR Inten    --      0.1838                 0.1857                 0.6331

                     10                     11                     12
                      A                      A                      A
 Frequencies --    250.8586               285.2961               298.2331
 Red. masses --      1.0431                 1.6347                 2.0070
 Frc consts  --      0.0387                 0.0784                 0.1052
 IR Inten    --      0.0434                 0.2867                 0.7380

                     13                     14                     15
                      A                      A                      A
 Frequencies --    304.9751               331.4966               364.8738
 Red. masses --      1.7522                 2.3805                 2.2658
 Frc consts  --      0.0960                 0.1541                 0.1777
 IR Inten    --      0.2192                 0.6395                 1.2219

                     16                     17                     18
                      A                      A                      A
 Frequencies --    384.5031               433.0964               480.6845
 Red. masses --      2.2163                 2.5031                 3.0742
 Frc consts  --      0.1931                 0.2766                 0.4185
 IR Inten    --      0.2174                 0.3068                 4.5751

                     19                     20                     21
                      A                      A                      A
 Frequencies --    515.3645               568.8692               594.9406
 Red. masses --      3.0865                 2.3727                 2.3610
 Frc consts  --      0.4830                 0.4524                 0.4924
 IR Inten    --      2.4822                 1.0184                 0.9514

                     22                     23                     24
                      A                      A                      A
 Frequencies --    634.5078               692.4672               770.0797
 Red. masses --      3.3880                 2.0111                 2.3336
 Frc consts  --      0.8036                 0.5682                 0.8154
 IR Inten    --      3.3491                 1.2673                 3.5764

                     25                     26                     27
                      A                      A                      A
 Frequencies --    778.1110               833.3954               871.2449
 Red. masses --      1.6016                 3.1727                 2.4406
 Frc consts  --      0.5713                 1.2983                 1.0915
 IR Inten    --      0.0321                 1.0434                 2.0785

                     28                     29                     30
                      A                      A                      A
 Frequencies --    895.1256               910.7145               933.2766
 Red. masses --      2.8217                 1.8797                 1.2773
 Frc consts  --      1.3321                 0.9186                 0.6555
 IR Inten    --      0.8549                 1.0187                 0.6954

                     31                     32                     33
                      A                      A                      A
 Frequencies --    938.5528               946.2648               959.2798
 Red. masses --      1.9583                 1.2121                 1.4084
 Frc consts  --      1.0164                 0.6395                 0.7636
 IR Inten    --      0.7149                 0.9219                 0.7774

                     34                     35                     36
                      A                      A                      A
 Frequencies --    966.5511               976.4998               982.9109
 Red. masses --      1.9360                 1.6387                 2.0740
 Frc consts  --      1.0656                 0.9207                 1.1806
 IR Inten    --      2.8263                 1.4652                 0.3513

                     37                     38                     39
                      A                      A                      A
 Frequencies --    987.9393              1025.7221              1047.8196
 Red. masses --      1.7655                 1.8433                 2.0699
 Frc consts  --      1.0153                 1.1426                 1.3390
 IR Inten    --      1.3048                 6.3728                 5.3416

                     40                     41                     42
                      A                      A                      A
 Frequencies --   1070.8512              1097.0806              1122.6151
 Red. masses --      1.5403                 2.1458                 1.9112
 Frc consts  --      1.0406                 1.5217                 1.4191
 IR Inten    --      1.5412                 3.6761                 9.9050

                     43                     44                     45
                      A                      A                      A
 Frequencies --   1133.0265              1146.1276              1169.0474
 Red. masses --      2.5062                 2.0638                 2.1220
 Frc consts  --      1.8956                 1.5973                 1.7087
 IR Inten    --     19.9160                11.8554                 7.8193

                     46                     47                     48
                      A                      A                      A
 Frequencies --   1183.6013              1210.2134              1227.0931
 Red. masses --      2.0090                 1.6310                 1.8433
 Frc consts  --      1.6582                 1.4074                 1.6353
 IR Inten    --      2.1200                 2.1776                11.1531

                     49                     50                     51
                      A                      A                      A
 Frequencies --   1229.4902              1231.3287              1245.6506
 Red. masses --      1.6614                 2.1368                 1.3794
 Frc consts  --      1.4797                 1.9089                 1.2610
 IR Inten    --      9.0632                33.3269                 9.9551

                     52                     53                     54
                      A                      A                      A
 Frequencies --   1265.8184              1279.3326              1288.1958
 Red. masses --      1.8795                 1.3393                 1.4866
 Frc consts  --      1.7743                 1.2915                 1.4535
 IR Inten    --     24.5853                 0.7206                 3.6193

                     55                     56                     57
                      A                      A                      A
 Frequencies --   1295.1888              1327.5110              1343.0353
 Red. masses --      1.5060                 1.5050                 1.2077
 Frc consts  --      1.4885                 1.5627                 1.2834
 IR Inten    --      1.0655                 2.9471                20.8786

                     58                     59                     60
                      A                      A                      A
 Frequencies --   1347.6528              1367.9189              1374.5488
 Red. masses --      1.4559                 1.4646                 1.3956
 Frc consts  --      1.5579                 1.6147                 1.5536
 IR Inten    --      5.4330                 4.6882                 1.8635

                     61                     62                     63
                      A                      A                      A
 Frequencies --   1379.1879              1406.6884              1414.0794
 Red. masses --      1.3082                 1.3794                 1.3011
 Frc consts  --      1.4661                 1.6082                 1.5329
 IR Inten    --      7.6518                 8.4256                 4.1672

                     64                     65                     66
                      A                      A                      A
 Frequencies --   1420.9480              1429.5354              1434.4214
 Red. masses --      1.2580                 1.3240                 1.3647
 Frc consts  --      1.4965                 1.5942                 1.6544
 IR Inten    --     10.5934                 6.3918                13.7177

                     67                     68                     69
                      A                      A                      A
 Frequencies --   1444.4017              1449.8553              1499.3896
 Red. masses --      1.2507                 1.2614                 1.0865
 Frc consts  --      1.5373                 1.5622                 1.4391
 IR Inten    --     14.9225                16.4865                 0.8302

                     70                     71                     72
                      A                      A                      A
 Frequencies --   1514.0416              1517.1610              1519.8860
 Red. masses --      1.0648                 1.0587                 1.0777
 Frc consts  --      1.4381                 1.4357                 1.4669
 IR Inten    --      0.7732                 0.3129                 3.3390

                     73                     74                     75
                      A                      A                      A
 Frequencies --   1521.4403              1523.1266              1532.6195
 Red. masses --      1.0588                 1.0669                 1.0470
 Frc consts  --      1.4440                 1.4583                 1.4489
 IR Inten    --      0.1022                 2.6977                 4.1866

                     76                     77                     78
                      A                      A                      A
 Frequencies --   1533.7726              1535.0183              1541.5220
 Red. masses --      1.0545                 1.0689                 1.0546
 Frc consts  --      1.4615                 1.4839                 1.4765
 IR Inten    --      7.9276                 0.7351                 3.7989

                     79                     80                     81
                      A                      A                      A
 Frequencies --   1543.8508              2914.6673              2993.2627
 Red. masses --      1.0575                 1.0806                 1.0837
 Frc consts  --      1.4850                 5.4085                 5.7208
 IR Inten    --      4.8604                61.9943                60.4775

                     82                     83                     84
                      A                      A                      A
 Frequencies --   3017.1433              3041.8453              3050.3012
 Red. masses --      1.0832                 1.0354                 1.0639
 Frc consts  --      5.8099                 5.6446                 5.8322
 IR Inten    --     29.1223                28.6409                26.8866

                     85                     86                     87
                      A                      A                      A
 Frequencies --   3050.8104              3051.4275              3055.9417
 Red. masses --      1.0357                 1.0552                 1.0371
 Frc consts  --      5.6794                 5.7886                 5.7062
 IR Inten    --     15.7500                19.1250                18.1851

                     88                     89                     90
                      A                      A                      A
 Frequencies --   3069.9087              3071.4668              3075.3332
 Red. masses --      1.0588                 1.0612                 1.0638
 Frc consts  --      5.8789                 5.8982                 5.9276
 IR Inten    --      9.5893                82.7603                29.5579

                     91                     92                     93
                      A                      A                      A
 Frequencies --   3093.1163              3105.5762              3106.7795
 Red. masses --      1.0910                 1.1016                 1.1015
 Frc consts  --      6.1496                 6.2600                 6.2640
 IR Inten    --      9.2692                25.4123                26.0946

                     94                     95                     96
                      A                      A                      A
 Frequencies --   3112.7905              3113.8147              3114.1176
 Red. masses --      1.1041                 1.1023                 1.1018
 Frc consts  --      6.3034                 6.2970                 6.2957
 IR Inten    --     21.2353                11.8871                67.7943

                     97                     98                     99
                      A                      A                      A
 Frequencies --   3121.5482              3124.1572              3124.4765
 Red. masses --      1.1016                 1.1030                 1.1023
 Frc consts  --      6.3242                 6.3431                 6.3403
 IR Inten    --     64.3498                15.2389                84.2546

                    100                    101                    102
                      A                      A                      A
 Frequencies --   3131.2567              3138.5909              3145.2618
 Red. masses --      1.1028                 1.1002                 1.1032
 Frc consts  --      6.3706                 6.3854                 6.4301
 IR Inten    --     24.5719                22.8032                41.1960

 - Thermochemistry -
 -------------------
 Temperature   298.150 Kelvin.  Pressure   1.00000 Atm.
 Atom     1 has atomic number  6 and mass  12.00000

 Molecular mass:   181.18305 amu.
 Principal axes and moments of inertia in atomic units:
                           1         2         3
     Eigenvalues --  1963.822172474.396903454.84255
           X            0.99927  -0.03810  -0.00115
           Y            0.03809   0.99924  -0.00883
           Z            0.00148   0.00878   0.99996
 This molecule is an asymmetric top.
 Rotational symmetry number  1.
 Warning -- assumption of classical behavior for rotation
           may cause significant error
 Rotational temperatures (Kelvin)      0.04410     0.03500     0.02507
 Rotational constants (GHZ):           0.91899     0.72937     0.52238
 Zero-point vibrational energy     880238.4 (Joules/Mol)
                                  210.38202 (Kcal/Mol)
 Warning -- explicit consideration of  21 degrees of freedom as
           vibrations may cause significant error
 Vibrational temperatures:     50.52    85.63   101.14   127.84   221.19
          (Kelvin)            265.70   304.43   313.06   344.56   360.93
                              410.48   429.09   438.79   476.95   524.97
                              553.21   623.13   691.60   741.49   818.48
                              855.99   912.92   996.31  1107.97  1119.53
                             1199.07  1253.53  1287.89  1310.32  1342.78
                             1350.37  1361.46  1380.19  1390.65  1404.97
                             1414.19  1421.42  1475.79  1507.58  1540.72
                             1578.45  1615.19  1630.17  1649.02  1682.00
                             1702.94  1741.23  1765.51  1768.96  1771.61
                             1792.21  1821.23  1840.67  1853.43  1863.49
                             1909.99  1932.33  1938.97  1968.13  1977.67
                             1984.34  2023.91  2034.54  2044.43  2056.78
                             2063.81  2078.17  2086.02  2157.29  2178.37
                             2182.86  2186.78  2189.01  2191.44  2205.10
                             2206.76  2208.55  2217.91  2221.26  4193.56
                             4306.64  4341.00  4376.54  4388.70  4389.44
                             4390.32  4396.82  4416.91  4419.16  4424.72
                             4450.30  4468.23  4469.96  4478.61  4480.08
                             4480.52  4491.21  4494.97  4495.42  4505.18
                             4515.73  4525.33

 Zero-point correction=                           0.335265 (Hartree/Particle)
 Thermal correction to Energy=                    0.349512
 Thermal correction to Enthalpy=                  0.350456
 Thermal correction to Gibbs Free Energy=         0.294554
 Sum of electronic and zero-point Energies=           -525.583748
 Sum of electronic and thermal Energies=              -525.569501
 Sum of electronic and thermal Enthalpies=            -525.568557
 Sum of electronic and thermal Free Energies=         -525.624459

                     E (Thermal)             CV                S
                      KCal/Mol        Cal/Mol-Kelvin    Cal/Mol-Kelvin
 Total                  219.322             55.424            117.656
 Electronic               0.000              0.000              0.000
 Translational            0.889              2.981             41.490
 Rotational               0.889              2.981             31.196
 Vibrational            217.545             49.462             44.970
 Vibration     1          0.594              1.982              5.517
 Vibration     2          0.597              1.974              4.473
 Vibration     3          0.598              1.968              4.145
 Vibration     4          0.602              1.957              3.685
 Vibration     5          0.619              1.899              2.625
 Vibration     6          0.631              1.861              2.281
 Vibration     7          0.643              1.823              2.030
 Vibration     8          0.646              1.814              1.979
 Vibration     9          0.657              1.780              1.807
 Vibration    10          0.663              1.761              1.725
 Vibration    11          0.683              1.701              1.502
 Vibration    12          0.691              1.677              1.427
 Vibration    13          0.696              1.664              1.389
 Vibration    14          0.714              1.613              1.253
 Vibration    15          0.738              1.545              1.101
 Vibration    16          0.753              1.503              1.021
 Vibration    17          0.794              1.398              0.849
 Vibration    18          0.837              1.293              0.708
 Vibration    19          0.870              1.216              0.621
 Vibration    20          0.925              1.099              0.506
 Vibration    21          0.953              1.043              0.458

 Optimization completed.
    -- Stationary point found.
 Normal termination of Gaussian 16 at Wed Dec  9 23:16:42 2020.

 ----------------------------------------------------------------------
 # B3LYP/6-311++G(d,p) empiricaldispersion=gd3bj scf=xqc pop=npa geom=c
 heck
 ----------------------------------------------------------------------

 ---------------------------------------
 CID_118582153_JID_3349_Energie_neutraal
 ---------------------------------------
 Structure from the checkpoint file:  "JID_3349.chk"
 Charge =  0 Multiplicity = 1

 SCF Done:  E(RB3LYP) =  -526.059319595     A.U. after   14 cycles
 Normal termination of Gaussian 16 at Wed Dec  9 23:22:08 2020.

 ----------------------------------------------------------------------
 # B3LYP/6-311++G(d,p) empiricaldispersion=gd3bj scf=xqc pop=npa geom=c
 heck
 ----------------------------------------------------------------------

 -------------------------------------
 CID_118582153_JID_3349_Energie_kation
 -------------------------------------
 Structure from the checkpoint file:  "JID_3349.chk"
 Charge =  1 Multiplicity = 2

 SCF Done:  E(UB3LYP) =  -525.783812234     A.U. after   17 cycles
 Normal termination of Gaussian 16 at Wed Dec  9 23:31:17 2020.
 Gaussian 16:  ES64L-G16RevA.03 25-Dec-2016

 ----------------------------------------------------------------------
 # B3LYP/6-311++G(d,p) empiricaldispersion=gd3bj scf=xqc pop=npa geom=c
 heck
 ----------------------------------------------------------------------

 ------------------------------------
 CID_118582153_JID_3349_Energie_anion
 ------------------------------------
 Structure from the checkpoint file:  "JID_3349.chk"
 Charge = -1 Multiplicity = 2

                         Standard orientation:
 ---------------------------------------------------------------------
 Center     Atomic      Atomic             Coordinates (Angstroms)
 Number     Number       Type             X           Y           Z
 ---------------------------------------------------------------------
      1          6           0        2.050367    0.049281    1.723269
      2          6           0        2.116755    0.440374    0.242984
      3          6           0        3.423163   -0.031781   -0.407624
      4          6           0        0.899710   -0.056320   -0.564065
      5          6           0        0.794307   -1.590541   -0.705732
      6          6           0       -0.714596   -1.865307   -0.786258
      7          6           0       -1.431384   -2.450372    0.465449
      8          6           0       -2.360910   -1.208769    0.498392
      9          6           0       -1.432313   -0.512116   -0.535302
     10          7           0       -0.387120    0.329588    0.041224
     11          6           0       -0.666094    1.769775    0.116636
     12          6           0       -0.755372    2.481296   -1.247299
     13          6           0       -1.924570    2.033770    0.947941
     14          1           0        2.147911   -1.034638    1.855689
     15          1           0        1.096425    0.351005    2.164205
     16          1           0        2.865505    0.521864    2.283053
     17          1           0        2.112812    1.538417    0.189932
     18          1           0        3.527234   -1.121329   -0.344589
     19          1           0        3.466339    0.248317   -1.467215
     20          1           0        4.290555    0.412730    0.093153
     21          1           0        1.000769    0.364845   -1.583440
     22          1           0        1.337904   -1.937545   -1.589518
     23          1           0        1.229821   -2.096242    0.162035
     24          1           0       -1.013728   -2.358452   -1.714849
     25          1           0       -0.763899   -2.502685    1.330827
     26          1           0       -1.917687   -3.422603    0.340165
     27          1           0       -2.476256   -0.703824    1.459242
     28          1           0       -3.352693   -1.415224    0.081796
     29          1           0       -1.938199   -0.050267   -1.397405
     30          1           0        0.175154    2.213120    0.662912
     31          1           0       -1.596177    2.106538   -1.841630
     32          1           0       -0.905564    3.557010   -1.102761
     33          1           0        0.158909    2.349702   -1.834859
     34          1           0       -1.845280    1.558817    1.930555
     35          1           0       -2.062684    3.110899    1.091724
     36          1           0       -2.821710    1.646702    0.452064
 ---------------------------------------------------------------------

 SCF Done:  E(UB3LYP) =  -526.042880914     A.U. after   28 cycles

 The electronic state is 2-A.
 Alpha  occ. eigenvalues --  -14.19309 -10.09621 -10.09011 -10.08794 -10.07005
 Alpha  occ. eigenvalues --  -10.06804 -10.06402 -10.06116 -10.06012 -10.05762
 Alpha  occ. eigenvalues --  -10.05677 -10.05272 -10.05176  -0.83289  -0.73084
 Alpha  occ. eigenvalues --   -0.70593  -0.66198  -0.63026  -0.58496  -0.58281
 Alpha  occ. eigenvalues --   -0.56184  -0.53995  -0.50506  -0.48336  -0.44048
 Alpha  occ. eigenvalues --   -0.41798  -0.40879  -0.37613  -0.36270  -0.35345
 Alpha  occ. eigenvalues --   -0.33799  -0.33495  -0.32873  -0.31244  -0.30521
 Alpha  occ. eigenvalues --   -0.29317  -0.28849  -0.28122  -0.27525  -0.26847
 Alpha  occ. eigenvalues --   -0.25908  -0.24968  -0.24131  -0.24102  -0.23259
 Alpha  occ. eigenvalues --   -0.22355  -0.21625  -0.20623  -0.19613  -0.19262
 Alpha  occ. eigenvalues --   -0.10755   0.04502
 Alpha virt. eigenvalues --    0.06591   0.06861   0.07486   0.08644   0.08892
 Alpha virt. eigenvalues --    0.09146   0.09431   0.09644   0.11035   0.11515
 Alpha virt. eigenvalues --    0.11757   0.11821   0.12226   0.12516   0.13047

  Beta  occ. eigenvalues --  -14.19301 -10.09612 -10.09003 -10.08783 -10.06996
  Beta  occ. eigenvalues --  -10.06792 -10.06393 -10.06106 -10.06000 -10.05743
  Beta  occ. eigenvalues --  -10.05651 -10.05257 -10.05142  -0.83270  -0.73060
  Beta  occ. eigenvalues --   -0.70567  -0.66172  -0.62997  -0.58446  -0.58239
  Beta  occ. eigenvalues --   -0.56152  -0.53960  -0.50466  -0.48296  -0.44011
  Beta  occ. eigenvalues --   -0.41758  -0.40840  -0.37584  -0.36234  -0.35303
  Beta  occ. eigenvalues --   -0.33770  -0.33464  -0.32845  -0.31211  -0.30495
  Beta  occ. eigenvalues --   -0.29286  -0.28820  -0.28098  -0.27499  -0.26819
  Beta  occ. eigenvalues --   -0.25880  -0.24934  -0.24104  -0.24077  -0.23234
  Beta  occ. eigenvalues --   -0.22329  -0.21597  -0.20595  -0.19589  -0.19238
  Beta  occ. eigenvalues --   -0.10707
  Beta virt. eigenvalues --    0.06585   0.07391   0.07572   0.07932   0.09110
  Beta virt. eigenvalues --    0.09323   0.09580   0.09876   0.10032   0.11458
  Beta virt. eigenvalues --    0.11885   0.12088   0.12160   0.12628   0.12760

 Mulliken charges and spin densities:
               1          2
     1  C    0.271293  -0.787281
     2  C   -2.646475   3.060039
     3  C    0.970246  -1.709533
     4  C    1.227399  -1.399807
     5  C    0.573034  -1.681695
     6  C    0.147992   0.542477
     7  C    0.036439  -0.511548
     8  C    0.324140  -0.671803
     9  C   -0.111200  -0.452982
    10  N    0.531274   0.000196
    11  C   -1.720354   1.736888
    12  C    1.297998  -1.818634
    13  C    0.318698  -0.922700
    14  H   -0.003156   0.127949
    15  H    0.226145  -0.084767
    16  H   -0.235664   0.400860
    17  H   -0.043615   0.217322
    18  H   -0.001426   0.139735
    19  H   -0.322477   0.460285
    20  H   -0.308062   0.463040
    21  H    0.534939  -0.352628
    22  H   -0.115836   0.266619
    23  H    0.130752   0.011476
    24  H   -0.733186   0.956290
    25  H   -0.019689   0.133023
    26  H   -0.073454   0.226794
    27  H    0.195519  -0.100628
    28  H   -0.139120   0.268933
    29  H    0.021204   0.122569
    30  H   -0.195254   0.351221
    31  H   -0.202765   0.348418
    32  H   -0.323804   0.472931
    33  H   -0.347002   0.487755
    34  H   -0.014370   0.153741
    35  H   -0.237375   0.378404
    36  H   -0.012787   0.167040
 Sum of Mulliken charges =  -1.00000   1.00000

 Dipole moment (field-independent basis, Debye):
    X=             -1.2229    Y=             -2.1956    Z=              2.8889  Tot=              3.8291
 Quadrupole moment (field-independent basis, Debye-Ang):
   XX=           -144.9127   YY=           -142.0263   ZZ=           -125.7688
   XY=             -3.2727   XZ=             -2.8568   YZ=             -2.9038

 Summary of Natural Population Analysis:

                                       Natural Population
                Natural  -----------------------------------------------
    Atom  No    Charge         Core      Valence    Rydberg      Total
 -----------------------------------------------------------------------
      C    1   -0.28698      0.99964     2.28082    0.00652     3.28698
      C    2   -0.11775      0.99959     2.10768    0.01048     3.11775
      C    3   -0.28255      0.99965     2.27681    0.00609     3.28255
      C    4    0.00565      0.99957     1.98195    0.01282     2.99435
      C    5   -0.19311      0.99960     2.18469    0.00883     3.19311
      C    6   -0.10711      0.99959     2.09623    0.01129     3.10711
      C    7   -0.18548      0.99963     2.17760    0.00825     3.18548
      C    8   -0.19205      0.99962     2.18401    0.00841     3.19205
      C    9    0.00054      0.99957     1.98687    0.01302     2.99946
      N   10   -0.29378      0.99967     2.78061    0.01350     3.79378
      C   11   -0.00524      0.99960     1.99312    0.01252     3.00524
      C   12   -0.29585      0.99964     2.29077    0.00544     3.29585
      C   13   -0.28578      0.99964     2.28040    0.00573     3.28578
      H   14    0.09385      0.00000     0.40527    0.00089     0.40615
      H   15    0.10617      0.00000     0.39265    0.00117     0.39383
      H   16    0.09770      0.00000     0.40152    0.00077     0.40230
      H   17    0.09542      0.00000     0.40233    0.00224     0.40458
      H   18    0.09548      0.00000     0.40354    0.00097     0.40452
      H   19    0.10075      0.00000     0.39815    0.00111     0.39925
      H   20    0.09949      0.00000     0.39957    0.00095     0.40051
      H   21    0.08441      0.00000     0.41339    0.00220     0.41559
      H   22    0.10313      0.00000     0.39579    0.00108     0.39687
      H   23    0.09687      0.00000     0.40175    0.00138     0.40313
      H   24    0.10288      0.00000     0.39551    0.00160     0.39712
      H   25    0.09573      0.00000     0.40299    0.00129     0.40427
      H   26    0.09538      0.00000     0.40359    0.00102     0.40462
      H   27    0.09853      0.00000     0.40022    0.00125     0.40147
      H   28    0.09490      0.00000     0.40394    0.00116     0.40510
      H   29    0.08809      0.00000     0.41010    0.00180     0.41191
      H   30    0.09271      0.00000     0.40492    0.00237     0.40729
      H   31    0.09741      0.00000     0.40141    0.00118     0.40259
      H   32    0.10121      0.00000     0.39753    0.00126     0.39879
      H   33    0.10145      0.00000     0.39739    0.00116     0.39855
      H   34    0.10050      0.00000     0.39840    0.00110     0.39950
      H   35    0.10009      0.00000     0.39917    0.00074     0.39991
      H   36    0.09733      0.00000     0.40161    0.00106     0.40267
 =======================================================================
   * Total *    0.00000     12.99502    37.85231    0.15267    51.00000

 Normal termination of Gaussian 16 at Wed Dec  9 23:46:13 2020.
