 Gaussian 16, Revision A.03,

 -----------------------------------------------------------
 # opt freq B3LYP/6-31G(d) empiricaldispersion=gd3bj scf=xqc
 -----------------------------------------------------------

 ------------------------------
 CID_53907609_JID_5198_neutraal
 ------------------------------
 Symbolic Z-matrix:
 Charge =  0 Multiplicity = 1

 SCF Done:  E(RB3LYP) =  -623.213163516     A.U. after   12 cycles
 SCF Done:  E(RB3LYP) =  -623.219398272     A.U. after   10 cycles
 SCF Done:  E(RB3LYP) =  -623.219847336     A.U. after   10 cycles
 SCF Done:  E(RB3LYP) =  -623.219910148     A.U. after    9 cycles
 SCF Done:  E(RB3LYP) =  -623.219921928     A.U. after    9 cycles
 SCF Done:  E(RB3LYP) =  -623.219929801     A.U. after    9 cycles
 SCF Done:  E(RB3LYP) =  -623.219932041     A.U. after    8 cycles
 SCF Done:  E(RB3LYP) =  -623.219932853     A.U. after    7 cycles
 Optimization completed.
    -- Stationary point found.
 Normal termination of Gaussian 16 at Thu Dec 10 14:48:22 2020.

 --------------------------------------------------------------------
 #N Geom=AllCheck Guess=TCheck SCRF=Check GenChk RB3LYP/6-31G(d) Freq
 --------------------------------------------------------------------

 Structure from the checkpoint file:  "JID_5198.chk"
 ------------------------------
 CID_53907609_JID_5198_neutraal
 ------------------------------
 Charge =  0 Multiplicity = 1

 SCF Done:  E(RB3LYP) =  -623.219932853     A.U. after    1 cycles

  Exact polarizability: 162.737  -0.405 139.552   1.295  -1.346 121.203
 Approx polarizability: 199.360  -2.926 194.241  -0.017   1.746 196.297

                      1                      2                      3
                      A                      A                      A
 Frequencies --     39.3499               107.8085               113.3795
 Red. masses --      3.2430                 3.2505                 2.9772
 Frc consts  --      0.0030                 0.0223                 0.0225
 IR Inten    --      0.1954                 0.2552                 0.2673

                      4                      5                      6
                      A                      A                      A
 Frequencies --    134.1236               170.5147               209.2952
 Red. masses --      2.9925                 2.8670                 2.3621
 Frc consts  --      0.0317                 0.0491                 0.0610
 IR Inten    --      0.4854                 0.2255                 0.9226

                      7                      8                      9
                      A                      A                      A
 Frequencies --    240.5961               241.7844               253.0693
 Red. masses --      1.8768                 2.0140                 1.1994
 Frc consts  --      0.0640                 0.0694                 0.0453
 IR Inten    --      0.0600                 3.4329                 0.7546

                     10                     11                     12
                      A                      A                      A
 Frequencies --    274.3459               289.7244               299.9939
 Red. masses --      1.2883                 2.1751                 2.4374
 Frc consts  --      0.0571                 0.1076                 0.1292
 IR Inten    --      3.6940                 5.1928                14.7529

                     13                     14                     15
                      A                      A                      A
 Frequencies --    302.7029               333.7070               364.5890
 Red. masses --      1.3100                 1.9740                 2.3788
 Frc consts  --      0.0707                 0.1295                 0.1863
 IR Inten    --     69.1707                10.0398                 7.7172

                     16                     17                     18
                      A                      A                      A
 Frequencies --    374.3496               381.0953               408.4791
 Red. masses --      3.4294                 2.7931                 2.8626
 Frc consts  --      0.2832                 0.2390                 0.2814
 IR Inten    --      1.9026                 2.4094                 2.5688

                     19                     20                     21
                      A                      A                      A
 Frequencies --    479.5594               481.5694               501.3331
 Red. masses --      2.5246                 3.0829                 2.0260
 Frc consts  --      0.3421                 0.4212                 0.3000
 IR Inten    --      2.2903                 7.7871                 1.3797

                     22                     23                     24
                      A                      A                      A
 Frequencies --    543.5526               578.4038               620.3095
 Red. masses --      2.1122                 2.4643                 2.9580
 Frc consts  --      0.3677                 0.4857                 0.6706
 IR Inten    --      0.9961                 0.0290                 1.5391

                     25                     26                     27
                      A                      A                      A
 Frequencies --    667.3008               743.6604               773.0525
 Red. masses --      2.7891                 2.6041                 2.4939
 Frc consts  --      0.7317                 0.8485                 0.8781
 IR Inten    --      2.7443                 0.2892                 3.1757

                     28                     29                     30
                      A                      A                      A
 Frequencies --    823.5329               845.4124               872.9403
 Red. masses --      2.4503                 1.8116                 1.6444
 Frc consts  --      0.9791                 0.7629                 0.7383
 IR Inten    --      0.5830                 0.9063                 2.3172

                     31                     32                     33
                      A                      A                      A
 Frequencies --    898.3439               901.3127               915.3815
 Red. masses --      1.8997                 2.0522                 2.3285
 Frc consts  --      0.9033                 0.9822                 1.1496
 IR Inten    --      3.1737                 0.0322                 0.3427

                     34                     35                     36
                      A                      A                      A
 Frequencies --    928.6677               935.1129               963.2324
 Red. masses --      1.7801                 2.1095                 2.1930
 Frc consts  --      0.9045                 1.0868                 1.1988
 IR Inten    --      1.5164                 0.3036                 4.0526

                     37                     38                     39
                      A                      A                      A
 Frequencies --    976.0741               997.4339              1024.7954
 Red. masses --      1.5273                 1.9441                 1.9318
 Frc consts  --      0.8573                 1.1395                 1.1953
 IR Inten    --      0.1881                 3.6027                 1.3233

                     40                     41                     42
                      A                      A                      A
 Frequencies --   1029.9560              1055.0583              1063.6914
 Red. masses --      2.0635                 1.8989                 2.0587
 Frc consts  --      1.2897                 1.2454                 1.3724
 IR Inten    --     20.3965                29.0924                 6.2632

                     43                     44                     45
                      A                      A                      A
 Frequencies --   1073.4827              1081.6035              1087.3509
 Red. masses --      2.3002                 2.2888                 1.6526
 Frc consts  --      1.5617                 1.5776                 1.1512
 IR Inten    --      6.9220                18.3914                 3.3684

                     46                     47                     48
                      A                      A                      A
 Frequencies --   1112.6392              1126.0167              1136.4207
 Red. masses --      1.9511                 2.0052                 1.5995
 Frc consts  --      1.4231                 1.4979                 1.2170
 IR Inten    --      4.6245                 2.0655                 7.3921

                     49                     50                     51
                      A                      A                      A
 Frequencies --   1139.2418              1160.7735              1180.9738
 Red. masses --      1.7013                 2.2602                 2.0053
 Frc consts  --      1.3010                 1.7943                 1.6478
 IR Inten    --      5.7999                 0.3706                 6.5231

                     52                     53                     54
                      A                      A                      A
 Frequencies --   1195.5946              1206.7097              1229.4648
 Red. masses --      2.1140                 1.5886                 1.5318
 Frc consts  --      1.7804                 1.3629                 1.3643
 IR Inten    --      1.7874                 0.6475                 1.3559

                     55                     56                     57
                      A                      A                      A
 Frequencies --   1232.0404              1238.5983              1247.1502
 Red. masses --      1.7520                 1.4006                 1.3850
 Frc consts  --      1.5669                 1.2660                 1.2692
 IR Inten    --      4.8203                 0.9947                14.4539

                     58                     59                     60
                      A                      A                      A
 Frequencies --   1274.7240              1286.4959              1289.2896
 Red. masses --      1.2381                 1.4780                 1.4148
 Frc consts  --      1.1853                 1.4413                 1.3857
 IR Inten    --     34.6912                 1.5909                 5.5846

                     61                     62                     63
                      A                      A                      A
 Frequencies --   1312.2221              1315.4191              1323.9358
 Red. masses --      1.3101                 1.6647                 1.2421
 Frc consts  --      1.3291                 1.6972                 1.2827
 IR Inten    --      2.4991                 5.3836                 1.2086

                     64                     65                     66
                      A                      A                      A
 Frequencies --   1338.6794              1357.6083              1371.7194
 Red. masses --      1.4512                 1.2862                 1.3349
 Frc consts  --      1.5323                 1.3967                 1.4799
 IR Inten    --      0.9298                 1.9137                12.8387

                     67                     68                     69
                      A                      A                      A
 Frequencies --   1376.7981              1381.3989              1398.1211
 Red. masses --      1.4536                 1.3347                 1.3726
 Frc consts  --      1.6235                 1.5006                 1.5808
 IR Inten    --     26.4325                 5.4719                 1.5958

                     70                     71                     72
                      A                      A                      A
 Frequencies --   1403.5743              1408.8212              1413.3244
 Red. masses --      1.3915                 1.4585                 1.4554
 Frc consts  --      1.6152                 1.7055                 1.7128
 IR Inten    --      1.4499                 6.3296                 0.6287

                     73                     74                     75
                      A                      A                      A
 Frequencies --   1413.8530              1419.3071              1436.1919
 Red. masses --      1.4767                 1.5477                 1.3392
 Frc consts  --      1.7392                 1.8370                 1.6276
 IR Inten    --      0.9674                 0.1448                 2.8839

                     76                     77                     78
                      A                      A                      A
 Frequencies --   1442.1854              1445.4709              1512.6804
 Red. masses --      1.2951                 1.4326                 1.0858
 Frc consts  --      1.5870                 1.7636                 1.4638
 IR Inten    --      6.1917                 4.6082                 1.0457

                     79                     80                     81
                      A                      A                      A
 Frequencies --   1513.6472              1515.4212              1518.0747
 Red. masses --      1.0860                 1.0898                 1.0762
 Frc consts  --      1.4660                 1.4746                 1.4613
 IR Inten    --      3.1235                 1.4646                 2.2146

                     82                     83                     84
                      A                      A                      A
 Frequencies --   1522.7640              1524.6881              1525.5392
 Red. masses --      1.0692                 1.0588                 1.0905
 Frc consts  --      1.4607                 1.4502                 1.4953
 IR Inten    --      4.2915                 1.1394                 7.1094

                     85                     86                     87
                      A                      A                      A
 Frequencies --   1533.3840              1538.0213              1540.3663
 Red. masses --      1.0737                 1.0510                 1.0613
 Frc consts  --      1.4875                 1.4648                 1.4837
 IR Inten    --     12.7105                 3.3974                 1.5697

                     88                     89                     90
                      A                      A                      A
 Frequencies --   2975.7339              3006.9453              3016.1571
 Red. masses --      1.0845                 1.0831                 1.0713
 Frc consts  --      5.6581                 5.7697                 5.7422
 IR Inten    --     44.9878                13.9773                12.3446

                     91                     92                     93
                      A                      A                      A
 Frequencies --   3016.8943              3019.4920              3021.0229
 Red. masses --      1.0718                 1.0688                 1.0638
 Frc consts  --      5.7474                 5.7411                 5.7205
 IR Inten    --      7.0058                34.9432                19.6272

                     94                     95                     96
                      A                      A                      A
 Frequencies --   3024.6019              3030.9845              3035.0811
 Red. masses --      1.0636                 1.0622                 1.0839
 Frc consts  --      5.7330                 5.7494                 5.8826
 IR Inten    --      5.7204                15.7020                27.4640

                     97                     98                     99
                      A                      A                      A
 Frequencies --   3039.5226              3043.2431              3048.2284
 Red. masses --      1.0583                 1.0367                 1.0398
 Frc consts  --      5.7606                 5.6570                 5.6924
 IR Inten    --     29.7256                10.9625                54.6579

                    100                    101                    102
                      A                      A                      A
 Frequencies --   3057.5228              3060.0710              3061.9426
 Red. masses --      1.0964                 1.1018                 1.0984
 Frc consts  --      6.0391                 6.0788                 6.0675
 IR Inten    --     68.9003                 4.3223               107.8146

                    103                    104                    105
                      A                      A                      A
 Frequencies --   3065.9148              3071.9280              3085.5763
 Red. masses --      1.0978                 1.1017                 1.1049
 Frc consts  --      6.0796                 6.1256                 6.1977
 IR Inten    --     41.3687                93.8111                49.6182

                    106                    107                    108
                      A                      A                      A
 Frequencies --   3089.2561              3104.4205              3107.2995
 Red. masses --      1.0863                 1.1019                 1.1015
 Frc consts  --      6.1084                 6.2570                 6.2664
 IR Inten    --     22.6188                13.7219                52.3327

                    109                    110                    111
                      A                      A                      A
 Frequencies --   3116.2239              3120.7748              3736.4882
 Red. masses --      1.1012                 1.1005                 1.0661
 Frc consts  --      6.3004                 6.3147                 8.7694
 IR Inten    --     51.2845                23.6693                 7.3147

 - Thermochemistry -
 -------------------
 Temperature   298.150 Kelvin.  Pressure   1.00000 Atm.
 Atom     1 has atomic number  6 and mass  12.00000

 Molecular mass:   208.18272 amu.
 Principal axes and moments of inertia in atomic units:
                           1         2         3
     Eigenvalues --  1876.234034211.001645259.20489
           X            0.99979   0.02006   0.00425
           Y           -0.01999   0.99967  -0.01584
           Z           -0.00457   0.01575   0.99987
 This molecule is an asymmetric top.
 Rotational symmetry number  1.
 Warning -- assumption of classical behavior for rotation
           may cause significant error
 Rotational temperatures (Kelvin)      0.04616     0.02057     0.01647
 Rotational constants (GHZ):           0.96190     0.42858     0.34316
 Zero-point vibrational energy     946340.1 (Joules/Mol)
                                  226.18071 (Kcal/Mol)
 Warning -- explicit consideration of  24 degrees of freedom as
           vibrations may cause significant error
 Vibrational temperatures:     56.62   155.11   163.13   192.97   245.33
          (Kelvin)            301.13   346.16   347.87   364.11   394.72
                              416.85   431.62   435.52   480.13   524.56
                              538.61   548.31   587.71   689.98   692.87
                              721.31   782.05   832.19   892.49   960.10
                             1069.96  1112.25  1184.88  1216.36  1255.97
                             1292.52  1296.79  1317.03  1336.15  1345.42
                             1385.88  1404.35  1435.08  1474.45  1481.88
                             1517.99  1530.41  1544.50  1556.19  1564.46
                             1600.84  1620.09  1635.06  1639.11  1670.09
                             1699.16  1720.19  1736.19  1768.93  1772.63
                             1782.07  1794.37  1834.04  1850.98  1855.00
                             1887.99  1892.59  1904.85  1926.06  1953.30
                             1973.60  1980.91  1987.52  2011.58  2019.43
                             2026.98  2033.46  2034.22  2042.07  2066.36
                             2074.98  2079.71  2176.41  2177.80  2180.35
                             2184.17  2190.92  2193.69  2194.91  2206.20
                             2212.87  2216.24  4281.42  4326.32  4339.58
                             4340.64  4344.38  4346.58  4351.73  4360.91
                             4366.80  4373.20  4378.55  4385.72  4399.09
                             4402.76  4405.45  4411.17  4419.82  4439.46
                             4444.75  4466.57  4470.71  4483.55  4490.10
                             5375.97

 Zero-point correction=                           0.360442 (Hartree/Particle)
 Thermal correction to Energy=                    0.375018
 Thermal correction to Enthalpy=                  0.375962
 Thermal correction to Gibbs Free Energy=         0.320305
 Sum of electronic and zero-point Energies=           -622.859491
 Sum of electronic and thermal Energies=              -622.844915
 Sum of electronic and thermal Enthalpies=            -622.843970
 Sum of electronic and thermal Free Energies=         -622.899628

                     E (Thermal)             CV                S
                      KCal/Mol        Cal/Mol-Kelvin    Cal/Mol-Kelvin
 Total                  235.327             59.777            117.140
 Electronic               0.000              0.000              0.000
 Translational            0.889              2.981             41.904
 Rotational               0.889              2.981             32.097
 Vibrational            233.550             53.815             43.140
 Vibration     1          0.594              1.981              5.292
 Vibration     2          0.606              1.943              3.308
 Vibration     3          0.607              1.938              3.210
 Vibration     4          0.613              1.919              2.886
 Vibration     5          0.626              1.879              2.430
 Vibration     6          0.642              1.827              2.050
 Vibration     7          0.658              1.778              1.798
 Vibration     8          0.658              1.776              1.790
 Vibration     9          0.664              1.758              1.709
 Vibration    10          0.677              1.721              1.569
 Vibration    11          0.686              1.693              1.476
 Vibration    12          0.693              1.674              1.417
 Vibration    13          0.694              1.669              1.402
 Vibration    14          0.715              1.608              1.242
 Vibration    15          0.738              1.545              1.102
 Vibration    16          0.745              1.525              1.062
 Vibration    17          0.751              1.510              1.035
 Vibration    18          0.773              1.452              0.932
 Vibration    19          0.836              1.295              0.711
 Vibration    20          0.838              1.291              0.706
 Vibration    21          0.857              1.247              0.655
 Vibration    22          0.899              1.154              0.558
 Vibration    23          0.935              1.078              0.488
 Vibration    24          0.980              0.989              0.416

                           ! Non-Optimized Parameters !
 Normal termination of Gaussian 16 at Thu Dec 10 15:03:32 2020.

 ----------------------------------------------------------------------
 # B3LYP/6-311++G(d,p) empiricaldispersion=gd3bj scf=xqc pop=npa geom=c
 heck
 ----------------------------------------------------------------------

 --------------------------------------
 CID_53907609_JID_5198_Energie_neutraal
 --------------------------------------
 Structure from the checkpoint file:  "JID_5198.chk"
 Charge =  0 Multiplicity = 1

 SCF Done:  E(RB3LYP) =  -623.395647058     A.U. after   13 cycles
 Normal termination of Gaussian 16 at Thu Dec 10 15:11:10 2020.

 ----------------------------------------------------------------------
 # B3LYP/6-311++G(d,p) empiricaldispersion=gd3bj scf=xqc pop=npa geom=c
 heck
 ----------------------------------------------------------------------

 ------------------------------------
 CID_53907609_JID_5198_Energie_kation
 ------------------------------------
 Structure from the checkpoint file:  "JID_5198.chk"
 Charge =  1 Multiplicity = 2

 SCF Done:  E(UB3LYP) =  -623.067694270     A.U. after   27 cycles
 Normal termination of Gaussian 16 at Thu Dec 10 15:32:42 2020.
 Gaussian 16:  ES64L-G16RevA.03 25-Dec-2016

 ----------------------------------------------------------------------
 # B3LYP/6-311++G(d,p) empiricaldispersion=gd3bj scf=xqc pop=npa geom=c
 heck
 ----------------------------------------------------------------------

 -----------------------------------
 CID_53907609_JID_5198_Energie_anion
 -----------------------------------
 Structure from the checkpoint file:  "JID_5198.chk"
 Charge = -1 Multiplicity = 2

                         Standard orientation:
 ---------------------------------------------------------------------
 Center     Atomic      Atomic             Coordinates (Angstroms)
 Number     Number       Type             X           Y           Z
 ---------------------------------------------------------------------
      1          6           0       -2.586962   -2.226448   -0.894846
      2          6           0       -1.924809   -0.854099   -0.799881
      3          6           0       -2.886991    0.310704   -0.515621
      4          6           0       -1.969096    1.506895   -0.181583
      5          6           0       -0.703221    0.858702    0.401621
      6          6           0       -0.829984   -0.689445    0.298166
      7          6           0        0.621862   -0.765294   -0.282534
      8          6           0        0.587405    0.789114   -0.463155
      9          6           0        1.774931    1.632337   -0.012138
     10          6           0        3.109558    1.239837   -0.667824
     11          6           0        3.824915    0.070291    0.023973
     12          6           0        3.112834   -1.288764   -0.022214
     13          6           0        1.716182   -1.325403    0.623078
     14          6           0       -1.138133   -1.447207    1.583284
     15          8           0       -2.527287    2.401979    0.780405
     16          1           0       -3.141198   -2.470770    0.017781
     17          1           0       -1.842653   -3.015287   -1.057418
     18          1           0       -3.294587   -2.260123   -1.731266
     19          1           0       -1.444385   -0.651831   -1.768680
     20          1           0       -3.579563    0.507311   -1.343466
     21          1           0       -3.487713    0.091482    0.377283
     22          1           0       -1.719189    2.061396   -1.101230
     23          1           0       -0.512746    1.239325    1.409949
     24          1           0        0.669246   -1.314409   -1.232885
     25          1           0        0.365076    1.038089   -1.509156
     26          1           0        1.881446    1.573920    1.079974
     27          1           0        1.544640    2.683569   -0.232209
     28          1           0        3.785011    2.105024   -0.653995
     29          1           0        2.942547    1.000385   -1.728389
     30          1           0        3.992804    0.343105    1.076476
     31          1           0        4.821878   -0.047226   -0.421813
     32          1           0        3.756312   -2.022284    0.481286
     33          1           0        3.030039   -1.623304   -1.066888
     34          1           0        1.744724   -0.794379    1.584094
     35          1           0        1.462822   -2.366797    0.861882
     36          1           0       -0.430200   -1.180286    2.374127
     37          1           0       -2.141809   -1.203658    1.951269
     38          1           0       -1.087401   -2.533404    1.443693
     39          1           0       -3.347744    2.756989    0.404404
 ---------------------------------------------------------------------

 SCF Done:  E(UB3LYP) =  -623.380663500     A.U. after   29 cycles

 The electronic state is 2-A.
 Alpha  occ. eigenvalues --  -19.01915 -10.11317 -10.07346 -10.07094 -10.06951
 Alpha  occ. eigenvalues --  -10.06890 -10.06797 -10.06746 -10.06635 -10.06582
 Alpha  occ. eigenvalues --  -10.06557 -10.06044 -10.06016 -10.05931 -10.05802
 Alpha  occ. eigenvalues --   -0.91959  -0.77468  -0.71844  -0.67938  -0.66911
 Alpha  occ. eigenvalues --   -0.63738  -0.62117  -0.58414  -0.56379  -0.53648
 Alpha  occ. eigenvalues --   -0.51106  -0.47737  -0.46579  -0.45182  -0.41926
 Alpha  occ. eigenvalues --   -0.40127  -0.38349  -0.38028  -0.36509  -0.34672
 Alpha  occ. eigenvalues --   -0.33433  -0.33207  -0.32009  -0.31842  -0.30843
 Alpha  occ. eigenvalues --   -0.29941  -0.29549  -0.28766  -0.28179  -0.27728
 Alpha  occ. eigenvalues --   -0.26758  -0.25286  -0.24744  -0.23870  -0.23144
 Alpha  occ. eigenvalues --   -0.22727  -0.22359  -0.22238  -0.19825  -0.19451
 Alpha  occ. eigenvalues --   -0.18059  -0.17440  -0.16634   0.04388
 Alpha virt. eigenvalues --    0.05947   0.06759   0.07196   0.07867   0.08426
 Alpha virt. eigenvalues --    0.08631   0.09478   0.09912   0.10530   0.10672
 Alpha virt. eigenvalues --    0.11226   0.11430   0.11715   0.12726   0.13069

  Beta  occ. eigenvalues --  -19.01890 -10.11301 -10.07345 -10.07086 -10.06940
  Beta  occ. eigenvalues --  -10.06877 -10.06790 -10.06729 -10.06629 -10.06573
  Beta  occ. eigenvalues --  -10.06549 -10.06043 -10.06003 -10.05906 -10.05777
  Beta  occ. eigenvalues --   -0.91901  -0.77449  -0.71819  -0.67908  -0.66889
  Beta  occ. eigenvalues --   -0.63703  -0.62090  -0.58381  -0.56343  -0.53601
  Beta  occ. eigenvalues --   -0.51069  -0.47690  -0.46533  -0.45148  -0.41881
  Beta  occ. eigenvalues --   -0.40093  -0.38311  -0.37988  -0.36486  -0.34636
  Beta  occ. eigenvalues --   -0.33397  -0.33181  -0.31990  -0.31815  -0.30812
  Beta  occ. eigenvalues --   -0.29913  -0.29524  -0.28736  -0.28154  -0.27703
  Beta  occ. eigenvalues --   -0.26726  -0.25256  -0.24716  -0.23840  -0.23117
  Beta  occ. eigenvalues --   -0.22696  -0.22331  -0.22211  -0.19802  -0.19425
  Beta  occ. eigenvalues --   -0.18035  -0.17423  -0.16599
  Beta virt. eigenvalues --    0.06332   0.07011   0.07368   0.07667   0.08309
  Beta virt. eigenvalues --    0.08853   0.09081   0.09819   0.10178   0.10807
  Beta virt. eigenvalues --    0.11065   0.11392   0.11637   0.12108   0.12926

 Mulliken charges and spin densities:
               1          2
     1  C    0.630054  -1.290392
     2  C   -2.122627   2.396929
     3  C    0.836899  -1.426412
     4  C    0.566817  -1.221953
     5  C   -0.448180   0.582931
     6  C    0.984953  -0.647671
     7  C    0.744450  -0.883388
     8  C   -0.261567  -0.043436
     9  C   -0.017803  -0.248119
    10  C   -0.234323  -0.012455
    11  C    0.044505  -0.586868
    12  C    0.007413  -0.317667
    13  C   -0.587569   0.200224
    14  C    0.139486  -0.595474
    15  O   -0.249289   0.044853
    16  H   -0.009381   0.152663
    17  H   -0.110044   0.250927
    18  H   -0.346506   0.504429
    19  H   -0.181667   0.377115
    20  H   -0.636280   0.825033
    21  H    0.236567  -0.077332
    22  H   -0.154253   0.338191
    23  H    0.289163  -0.031472
    24  H    0.137602   0.094047
    25  H    0.035483   0.170828
    26  H    0.028910   0.093903
    27  H    0.049919   0.124148
    28  H   -0.004140   0.165522
    29  H   -0.103792   0.225503
    30  H    0.059666   0.060288
    31  H   -0.174858   0.336427
    32  H   -0.274925   0.443579
    33  H   -0.070592   0.193073
    34  H    0.124449   0.009724
    35  H    0.026006   0.138673
    36  H    0.016611   0.121610
    37  H    0.109695   0.041719
    38  H    0.031300   0.137108
    39  H   -0.112155   0.353192
 Sum of Mulliken charges =  -1.00000   1.00000

 Dipole moment (field-independent basis, Debye):
    X=              2.4471    Y=             -0.2945    Z=              3.3824  Tot=              4.1851
 Quadrupole moment (field-independent basis, Debye-Ang):
   XX=           -175.1655   YY=           -146.1188   ZZ=           -132.8766
   XY=              9.1663   XZ=             -6.1680   YZ=             -1.1622

 Summary of Natural Population Analysis:

                                       Natural Population
                Natural  -----------------------------------------------
    Atom  No    Charge         Core      Valence    Rydberg      Total
 -----------------------------------------------------------------------
      C    1   -0.28450      0.99964     2.27885    0.00600     3.28450
      C    2   -0.10841      0.99956     2.09680    0.01205     3.10841
      C    3   -0.19807      0.99960     2.18864    0.00984     3.19807
      C    4    0.06681      0.99951     1.91956    0.01413     2.93319
      C    5   -0.10653      0.99953     2.09498    0.01202     3.10653
      C    6   -0.02214      0.99952     2.00836    0.01426     3.02214
      C    7   -0.09809      0.99954     2.08694    0.01161     3.09809
      C    8   -0.10049      0.99957     2.08976    0.01117     3.10049
      C    9   -0.19023      0.99961     2.18171    0.00891     3.19023
      C   10   -0.18975      0.99963     2.18201    0.00812     3.18975
      C   11   -0.18536      0.99962     2.17751    0.00822     3.18536
      C   12   -0.18656      0.99962     2.17843    0.00851     3.18656
      C   13   -0.19447      0.99961     2.18514    0.00972     3.19447
      C   14   -0.29066      0.99962     2.28424    0.00680     3.29066
      O   15   -0.37259      0.99989     3.36676    0.00593     4.37259
      H   16    0.09640      0.00000     0.40267    0.00093     0.40360
      H   17    0.10021      0.00000     0.39877    0.00102     0.39979
      H   18    0.10220      0.00000     0.39689    0.00091     0.39780
      H   19    0.09679      0.00000     0.40085    0.00236     0.40321
      H   20    0.10314      0.00000     0.39474    0.00213     0.39686
      H   21    0.09687      0.00000     0.40164    0.00150     0.40313
      H   22    0.07760      0.00000     0.42051    0.00189     0.42240
      H   23    0.10550      0.00000     0.39294    0.00156     0.39450
      H   24    0.09576      0.00000     0.40239    0.00184     0.40424
      H   25    0.09833      0.00000     0.39992    0.00175     0.40167
      H   26    0.09203      0.00000     0.40663    0.00134     0.40797
      H   27    0.10106      0.00000     0.39799    0.00095     0.39894
      H   28    0.09624      0.00000     0.40286    0.00091     0.40376
      H   29    0.09466      0.00000     0.40407    0.00127     0.40534
      H   30    0.08919      0.00000     0.40966    0.00115     0.41081
      H   31    0.09749      0.00000     0.40145    0.00106     0.40251
      H   32    0.09690      0.00000     0.40208    0.00102     0.40310
      H   33    0.09370      0.00000     0.40490    0.00140     0.40630
      H   34    0.09309      0.00000     0.40563    0.00128     0.40691
      H   35    0.10146      0.00000     0.39745    0.00109     0.39854
      H   36    0.10040      0.00000     0.39883    0.00077     0.39960
      H   37    0.10174      0.00000     0.39747    0.00078     0.39826
      H   38    0.10089      0.00000     0.39829    0.00081     0.39911
      H   39    0.22941      0.00000     0.26680    0.00378     0.27059
 =======================================================================
   * Total *    0.00000     14.99406    42.82514    0.18080    58.00000

 Normal termination of Gaussian 16 at Thu Dec 10 15:56:09 2020.
