 Gaussian 16, Revision A.03,

 -----------------------------------------------------------
 # opt freq B3LYP/6-31G(d) empiricaldispersion=gd3bj scf=xqc
 -----------------------------------------------------------

 ------------------------------
 CID_12250527_JID_2734_neutraal
 ------------------------------
 Symbolic Z-matrix:
 Charge =  0 Multiplicity = 1

 SCF Done:  E(RB3LYP) =  -586.883439501     A.U. after   15 cycles
 SCF Done:  E(RB3LYP) =  -586.889084107     A.U. after   13 cycles
 SCF Done:  E(RB3LYP) =  -586.889710881     A.U. after   13 cycles
 SCF Done:  E(RB3LYP) =  -586.889525744     A.U. after   13 cycles
 SCF Done:  E(RB3LYP) =  -586.890438564     A.U. after   11 cycles
 SCF Done:  E(RB3LYP) =  -586.890509694     A.U. after   12 cycles
 SCF Done:  E(RB3LYP) =  -586.890530114     A.U. after   11 cycles
 SCF Done:  E(RB3LYP) =  -586.890543758     A.U. after   11 cycles
 SCF Done:  E(RB3LYP) =  -586.890574306     A.U. after   11 cycles
 SCF Done:  E(RB3LYP) =  -586.890619282     A.U. after   12 cycles
 SCF Done:  E(RB3LYP) =  -586.891042800     A.U. after   11 cycles
 SCF Done:  E(RB3LYP) =  -586.891044948     A.U. after    9 cycles
 SCF Done:  E(RB3LYP) =  -586.891045250     A.U. after    8 cycles
 SCF Done:  E(RB3LYP) =  -586.891045308     A.U. after    7 cycles
 SCF Done:  E(RB3LYP) =  -586.891045355     A.U. after    8 cycles
 SCF Done:  E(RB3LYP) =  -586.891045368     A.U. after    7 cycles
 Optimization completed.
    -- Stationary point found.
 Normal termination of Gaussian 16 at Wed Dec  9 18:00:23 2020.

 --------------------------------------------------------------------
 #N Geom=AllCheck Guess=TCheck SCRF=Check GenChk RB3LYP/6-31G(d) Freq
 --------------------------------------------------------------------

 Structure from the checkpoint file:  "JID_2734.chk"
 ------------------------------
 CID_12250527_JID_2734_neutraal
 ------------------------------
 Charge =  0 Multiplicity = 1

 SCF Done:  E(RB3LYP) =  -586.891045368     A.U. after    1 cycles

  Exact polarizability: 135.794   5.025  99.231   5.059   0.977  58.755
 Approx polarizability: 198.353  18.824 164.092  10.719   3.369  89.473

                      1                      2                      3
                      A                      A                      A
 Frequencies --     42.0944                68.2177                74.5842
 Red. masses --      6.0030                 4.5958                 1.0877
 Frc consts  --      0.0063                 0.0126                 0.0036
 IR Inten    --      1.5765                 0.3485                 0.2691

                      4                      5                      6
                      A                      A                      A
 Frequencies --    128.1316               154.7319               166.8408
 Red. masses --      5.7834                 1.8165                 2.2881
 Frc consts  --      0.0559                 0.0256                 0.0375
 IR Inten    --      1.8899                 0.2335                 2.8379

                      7                      8                      9
                      A                      A                      A
 Frequencies --    202.9589               222.8901               287.2820
 Red. masses --      1.4524                 4.5872                 2.6401
 Frc consts  --      0.0353                 0.1343                 0.1284
 IR Inten    --      0.2453                 3.4371                 0.8603

                     10                     11                     12
                      A                      A                      A
 Frequencies --    320.4272               359.0406               414.5251
 Red. masses --      4.1316                 3.7995                 5.7590
 Frc consts  --      0.2499                 0.2886                 0.5830
 IR Inten    --      1.3307                12.5845                 3.0027

                     13                     14                     15
                      A                      A                      A
 Frequencies --    433.0928               522.8876               543.7601
 Red. masses --      5.2775                 5.4834                 3.7011
 Frc consts  --      0.5832                 0.8833                 0.6448
 IR Inten    --     11.2284                 2.5168                 0.7110

                     16                     17                     18
                      A                      A                      A
 Frequencies --    591.0016               621.4945               638.3863
 Red. masses --      4.6297                 3.3383                 4.4122
 Frc consts  --      0.9527                 0.7597                 1.0594
 IR Inten    --     12.8365                36.8909                10.1977

                     19                     20                     21
                      A                      A                      A
 Frequencies --    647.6454               690.5465               781.2995
 Red. masses --      3.2420                 2.5190                10.7331
 Frc consts  --      0.8012                 0.7077                 3.8602
 IR Inten    --      0.4384                89.8785                25.7685

                     22                     23                     24
                      A                      A                      A
 Frequencies --    812.4763               866.1364               975.8394
 Red. masses --      1.1972                 4.5164                 2.5764
 Frc consts  --      0.4656                 1.9963                 1.4455
 IR Inten    --     10.1640                 3.0578                 5.7900

                     25                     26                     27
                      A                      A                      A
 Frequencies --    986.5270              1028.7951              1049.8830
 Red. masses --      3.4596                 1.6154                 1.5808
 Frc consts  --      1.9838                 1.0074                 1.0266
 IR Inten    --      1.2075                 1.0220                16.6531

                     28                     29                     30
                      A                      A                      A
 Frequencies --   1064.5846              1077.9500              1083.2305
 Red. masses --      1.6291                 1.5581                 2.6809
 Frc consts  --      1.0878                 1.0667                 1.8534
 IR Inten    --      6.4156                 2.1710                11.4560

                     31                     32                     33
                      A                      A                      A
 Frequencies --   1140.5239              1216.1641              1226.3364
 Red. masses --      4.8826                 3.9270                 2.6984
 Frc consts  --      3.7421                 3.4221                 2.3910
 IR Inten    --      0.3471                76.5111                73.2056

                     34                     35                     36
                      A                      A                      A
 Frequencies --   1265.2912              1372.7167              1402.0310
 Red. masses --      2.5147                 3.1034                 1.2324
 Frc consts  --      2.3720                 3.4455                 1.4274
 IR Inten    --     40.5659                63.8211                 3.4284

                     37                     38                     39
                      A                      A                      A
 Frequencies --   1430.4658              1445.7770              1456.2633
 Red. masses --      1.4069                 1.2849                 2.1375
 Frc consts  --      1.6962                 1.5824                 2.6707
 IR Inten    --     33.2422                 2.6937                19.6519

                     40                     41                     42
                      A                      A                      A
 Frequencies --   1485.9051              1498.1744              1502.4926
 Red. masses --      1.2953                 1.1204                 1.0532
 Frc consts  --      1.6850                 1.4816                 1.4009
 IR Inten    --     25.3391                39.4214                10.7635

                     43                     44                     45
                      A                      A                      A
 Frequencies --   1509.7679              1524.2472              1594.0416
 Red. masses --      1.0454                 1.4743                 5.9240
 Frc consts  --      1.4039                 2.0182                 8.8687
 IR Inten    --      7.3797                10.0858               238.6013

                     46                     47                     48
                      A                      A                      A
 Frequencies --   1683.0162              1807.5367              1854.9984
 Red. masses --      6.6173                12.5094                 8.1177
 Frc consts  --     11.0436                24.0802                16.4577
 IR Inten    --    195.8071               399.3863               467.5388

                     49                     50                     51
                      A                      A                      A
 Frequencies --   3000.3993              3052.8635              3070.2499
 Red. masses --      1.0896                 1.0393                 1.0366
 Frc consts  --      5.7792                 5.7071                 5.7574
 IR Inten    --     52.1161                 7.1354                 6.1910

                     52                     53                     54
                      A                      A                      A
 Frequencies --   3106.2346              3129.0035              3162.0755
 Red. masses --      1.0999                 1.1002                 1.1033
 Frc consts  --      6.2529                 6.3466                 6.4994
 IR Inten    --     10.9516                 4.5088                11.8728

                     55                     56                     57
                      A                      A                      A
 Frequencies --   3175.1056              3232.2002              3526.3917
 Red. masses --      1.1002                 1.0925                 1.0758
 Frc consts  --      6.5351                 6.7244                 7.8819
 IR Inten    --      5.5818                 2.4067                29.7587

 - Thermochemistry -
 -------------------
 Temperature   298.150 Kelvin.  Pressure   1.00000 Atm.
 Atom     1 has atomic number  6 and mass  12.00000

 Molecular mass:   167.06948 amu.
 Principal axes and moments of inertia in atomic units:
                           1         2         3
     Eigenvalues --  1040.641762666.203953538.14021
           X            0.99995  -0.00762   0.00680
           Y            0.00766   0.99995  -0.00634
           Z           -0.00675   0.00639   0.99996
 This molecule is an asymmetric top.
 Rotational symmetry number  1.
 Warning -- assumption of classical behavior for rotation
           may cause significant error
 Rotational temperatures (Kelvin)      0.08323     0.03249     0.02448
 Rotational constants (GHZ):           1.73426     0.67690     0.51008
 Zero-point vibrational energy     429025.9 (Joules/Mol)
                                  102.53966 (Kcal/Mol)
 Warning -- explicit consideration of  16 degrees of freedom as
           vibrations may cause significant error
 Vibrational temperatures:     60.56    98.15   107.31   184.35   222.62
          (Kelvin)            240.05   292.01   320.69   413.33   461.02
                              516.58   596.41   623.12   752.32   782.35
                              850.32   894.19   918.50   931.82   993.54
                             1124.12  1168.97  1246.18  1404.02  1419.39
                             1480.21  1510.55  1531.70  1550.93  1558.53
                             1640.96  1749.79  1764.42  1820.47  1975.03
                             2017.21  2058.12  2080.15  2095.24  2137.89
                             2155.54  2161.75  2172.22  2193.05  2293.47
                             2421.48  2600.64  2668.93  4316.91  4392.39
                             4417.40  4469.18  4501.94  4549.52  4568.27
                             4650.42  5073.69

 Zero-point correction=                           0.163407 (Hartree/Particle)
 Thermal correction to Energy=                    0.175127
 Thermal correction to Enthalpy=                  0.176072
 Thermal correction to Gibbs Free Energy=         0.124913
 Sum of electronic and zero-point Energies=           -586.727638
 Sum of electronic and thermal Energies=              -586.715918
 Sum of electronic and thermal Enthalpies=            -586.714974
 Sum of electronic and thermal Free Energies=         -586.766133

                     E (Thermal)             CV                S
                      KCal/Mol        Cal/Mol-Kelvin    Cal/Mol-Kelvin
 Total                  109.894             42.106            107.673
 Electronic               0.000              0.000              0.000
 Translational            0.889              2.981             41.248
 Rotational               0.889              2.981             30.663
 Vibrational            108.117             36.144             35.763
 Vibration     1          0.595              1.980              5.158
 Vibration     2          0.598              1.969              4.204
 Vibration     3          0.599              1.966              4.029
 Vibration     4          0.611              1.925              2.974
 Vibration     5          0.620              1.897              2.613
 Vibration     6          0.624              1.883              2.471
 Vibration     7          0.639              1.836              2.106
 Vibration     8          0.649              1.806              1.935
 Vibration     9          0.684              1.697              1.490
 Vibration    10          0.706              1.634              1.308
 Vibration    11          0.734              1.557              1.126
 Vibration    12          0.778              1.439              0.911
 Vibration    13          0.794              1.398              0.849
 Vibration    14          0.878              1.199              0.603
 Vibration    15          0.899              1.153              0.557
 Vibration    16          0.948              1.051              0.465

 Optimization completed.
    -- Stationary point found.
 Normal termination of Gaussian 16 at Wed Dec  9 18:04:53 2020.

 ----------------------------------------------------------------------
 # B3LYP/6-311++G(d,p) empiricaldispersion=gd3bj scf=xqc pop=npa geom=c
 heck
 ----------------------------------------------------------------------

 --------------------------------------
 CID_12250527_JID_2734_Energie_neutraal
 --------------------------------------
 Structure from the checkpoint file:  "JID_2734.chk"
 Charge =  0 Multiplicity = 1

 SCF Done:  E(RB3LYP) =  -587.061473316     A.U. after   16 cycles
 Normal termination of Gaussian 16 at Wed Dec  9 18:07:19 2020.

 ----------------------------------------------------------------------
 # B3LYP/6-311++G(d,p) empiricaldispersion=gd3bj scf=xqc pop=npa geom=c
 heck
 ----------------------------------------------------------------------

 ------------------------------------
 CID_12250527_JID_2734_Energie_kation
 ------------------------------------
 Structure from the checkpoint file:  "JID_2734.chk"
 Charge =  1 Multiplicity = 2

 SCF Done:  E(UB3LYP) =  -586.732258214     A.U. after   27 cycles
 Normal termination of Gaussian 16 at Wed Dec  9 18:12:53 2020.
 Gaussian 16:  ES64L-G16RevA.03 25-Dec-2016

 ----------------------------------------------------------------------
 # B3LYP/6-311++G(d,p) empiricaldispersion=gd3bj scf=xqc pop=npa geom=c
 heck
 ----------------------------------------------------------------------

 -----------------------------------
 CID_12250527_JID_2734_Energie_anion
 -----------------------------------
 Structure from the checkpoint file:  "JID_2734.chk"
 Charge = -1 Multiplicity = 2

                         Standard orientation:
 ---------------------------------------------------------------------
 Center     Atomic      Atomic             Coordinates (Angstroms)
 Number     Number       Type             X           Y           Z
 ---------------------------------------------------------------------
      1          6           0       -0.333572    2.594420   -0.158793
      2          6           0        0.351741    1.264704   -0.105434
      3          6           0        1.695077    1.100198    0.084555
      4          6           0        2.229096   -0.223335    0.114096
      5          7           0        1.502084   -1.307129   -0.032055
      6          6           0        0.142538   -1.206445   -0.223209
      7          8           0       -0.624377   -2.139473   -0.371171
      8          7           0       -0.404509    0.130160   -0.249029
      9          7           0       -1.776359    0.246599   -0.462702
     10          6           0       -2.610454   -0.157826    0.583534
     11          8           0       -3.779255   -0.413629    0.431721
     12          6           0        3.707701   -0.409237    0.323516
     13          1           0        0.403275    3.393647   -0.056843
     14          1           0       -1.073482    2.689345    0.642591
     15          1           0       -0.872598    2.720254   -1.102990
     16          1           0        2.336900    1.963573    0.209668
     17          1           0       -2.068042   -0.117178   -1.367749
     18          1           0       -2.084854   -0.145204    1.556537
     19          1           0        4.274915    0.101011   -0.464456
     20          1           0        4.018438    0.028969    1.279778
     21          1           0        3.953216   -1.471889    0.315977
 ---------------------------------------------------------------------

 SCF Done:  E(UB3LYP) =  -587.072426098     A.U. after   31 cycles

 The electronic state is 2-A.
 Alpha  occ. eigenvalues --  -18.99371 -18.92848 -14.24466 -14.22972 -14.11541
 Alpha  occ. eigenvalues --  -10.16084 -10.12761 -10.05497 -10.05012 -10.03393
 Alpha  occ. eigenvalues --  -10.02578 -10.01079  -0.94567  -0.91139  -0.85658
 Alpha  occ. eigenvalues --   -0.76918  -0.70887  -0.63789  -0.59766  -0.56165
 Alpha  occ. eigenvalues --   -0.51354  -0.48259  -0.46575  -0.41794  -0.38258
 Alpha  occ. eigenvalues --   -0.37586  -0.32751  -0.31162  -0.30607  -0.29595
 Alpha  occ. eigenvalues --   -0.28898  -0.28695  -0.28164  -0.27308  -0.26599
 Alpha  occ. eigenvalues --   -0.24425  -0.22552  -0.19139  -0.17708  -0.16276
 Alpha  occ. eigenvalues --   -0.15270  -0.11917  -0.09311  -0.08223   0.05333
 Alpha virt. eigenvalues --    0.08311   0.09417   0.10572   0.10842   0.11309
 Alpha virt. eigenvalues --    0.12188   0.12382   0.13826   0.13909   0.14732
 Alpha virt. eigenvalues --    0.15445   0.15986   0.17018   0.17897   0.18510

  Beta  occ. eigenvalues --  -18.99365 -18.92802 -14.24484 -14.22665 -14.11246
  Beta  occ. eigenvalues --  -10.16054 -10.12734 -10.05067 -10.04850 -10.02811
  Beta  occ. eigenvalues --  -10.02623 -10.01264  -0.94490  -0.90876  -0.85447
  Beta  occ. eigenvalues --   -0.76322  -0.70243  -0.63287  -0.59336  -0.56090
  Beta  occ. eigenvalues --   -0.51220  -0.48037  -0.46017  -0.41465  -0.37979
  Beta  occ. eigenvalues --   -0.37185  -0.32682  -0.30369  -0.30201  -0.29444
  Beta  occ. eigenvalues --   -0.28573  -0.28214  -0.28059  -0.27127  -0.26027
  Beta  occ. eigenvalues --   -0.24225  -0.22261  -0.17924  -0.17587  -0.15716
  Beta  occ. eigenvalues --   -0.13485  -0.11769  -0.08954  -0.07010
  Beta virt. eigenvalues --    0.08258   0.09401   0.10574   0.10824   0.11330
  Beta virt. eigenvalues --    0.12142   0.12160   0.13146   0.13779   0.14424
  Beta virt. eigenvalues --    0.14800   0.15373   0.16722   0.16956   0.17824

 Mulliken charges and spin densities:
               1          2
     1  C   -0.384842  -0.147336
     2  C    0.292601   0.493500
     3  C   -0.517881  -0.161521
     4  C    0.005039   0.334702
     5  N   -0.229859   0.148179
     6  C    0.195003   0.042096
     7  O   -0.374266   0.017001
     8  N   -0.001486   0.093048
     9  N   -0.230599  -0.006863
    10  C    0.084135  -0.003927
    11  O   -0.329509   0.004908
    12  C   -0.640207  -0.055683
    13  H    0.113716   0.015076
    14  H    0.041806   0.114743
    15  H    0.153366   0.008865
    16  H    0.108375   0.017400
    17  H    0.288428   0.014233
    18  H    0.105744   0.015507
    19  H    0.080318   0.041925
    20  H    0.108621   0.014474
    21  H    0.131496  -0.000326
 Sum of Mulliken charges =  -1.00000   1.00000

 Dipole moment (field-independent basis, Debye):
    X=              0.7437    Y=              5.4033    Z=             -0.1099  Tot=              5.4553
 Quadrupole moment (field-independent basis, Debye-Ang):
   XX=           -110.4892   YY=            -95.2200   ZZ=            -74.0444
   XY=              0.0870   XZ=              2.3837   YZ=             -1.5527

 Summary of Natural Population Analysis:

                                       Natural Population
                Natural  -----------------------------------------------
    Atom  No    Charge         Core      Valence    Rydberg      Total
 -----------------------------------------------------------------------
      C    1   -0.30546      0.99964     2.30056    0.00525     3.30546
      C    2    0.23966      0.99953     1.75110    0.00971     2.76034
      C    3   -0.22091      0.99947     2.21281    0.00863     3.22091
      C    4    0.23208      0.99960     1.75385    0.01448     2.76792
      N    5   -0.26572      0.99963     2.75301    0.01308     3.76572
      C    6    0.39610      0.99969     1.57840    0.02581     2.60390
      O    7   -0.34006      0.99987     3.33382    0.00637     4.34006
      N    8   -0.12716      0.99958     2.61574    0.01184     3.62716
      N    9   -0.23214      0.99971     2.72043    0.01200     3.73214
      C   10    0.28778      0.99978     1.68930    0.02314     2.71222
      O   11   -0.30811      0.99987     3.30096    0.00728     4.30811
      C   12   -0.30329      0.99965     2.29941    0.00424     3.30329
      H   13    0.09802      0.00000     0.40087    0.00110     0.40198
      H   14    0.10628      0.00000     0.39202    0.00170     0.39372
      H   15    0.10607      0.00000     0.39264    0.00128     0.39393
      H   16    0.09373      0.00000     0.40527    0.00101     0.40627
      H   17    0.18989      0.00000     0.30767    0.00244     0.31011
      H   18    0.05374      0.00000     0.44470    0.00156     0.44626
      H   19    0.09786      0.00000     0.40118    0.00096     0.40214
      H   20    0.09764      0.00000     0.40142    0.00094     0.40236
      H   21    0.10399      0.00000     0.39493    0.00108     0.39601
 =======================================================================
   * Total *   -0.00000     11.99601    31.85008    0.15390    44.00000

 Normal termination of Gaussian 16 at Wed Dec  9 18:19:17 2020.
