 Gaussian 16, Revision A.03,

 -----------------------------------------------------------
 # opt freq B3LYP/6-31G(d) empiricaldispersion=gd3bj scf=xqc
 -----------------------------------------------------------

 -------------------------------
 CID_127501317_JID_8023_neutraal
 -------------------------------
 Symbolic Z-matrix:
 Charge =  0 Multiplicity = 1

 SCF Done:  E(RB3LYP) =  -822.969097109     A.U. after   16 cycles
 SCF Done:  E(RB3LYP) =  -822.993186657     A.U. after   14 cycles
 SCF Done:  E(RB3LYP) =  -822.994797152     A.U. after   14 cycles
 SCF Done:  E(RB3LYP) =  -822.995171648     A.U. after   13 cycles
 SCF Done:  E(RB3LYP) =  -822.994833612     A.U. after   14 cycles
 SCF Done:  E(RB3LYP) =  -822.995524520     A.U. after   13 cycles
 SCF Done:  E(RB3LYP) =  -822.995692167     A.U. after   13 cycles
 SCF Done:  E(RB3LYP) =  -822.995619538     A.U. after   13 cycles
 SCF Done:  E(RB3LYP) =  -822.995751715     A.U. after   13 cycles
 SCF Done:  E(RB3LYP) =  -822.995781004     A.U. after   11 cycles
 SCF Done:  E(RB3LYP) =  -822.995800705     A.U. after   10 cycles
 SCF Done:  E(RB3LYP) =  -822.995801091     A.U. after    8 cycles
 SCF Done:  E(RB3LYP) =  -822.995801200     A.U. after    7 cycles
 SCF Done:  E(RB3LYP) =  -822.995801301     A.U. after    9 cycles
 SCF Done:  E(RB3LYP) =  -822.995801336     A.U. after    8 cycles
 SCF Done:  E(RB3LYP) =  -822.995801354     A.U. after    7 cycles
 Optimization completed.
    -- Stationary point found.
 Normal termination of Gaussian 16 at Fri Dec 11 18:41:37 2020.

 --------------------------------------------------------------------
 #N Geom=AllCheck Guess=TCheck SCRF=Check GenChk RB3LYP/6-31G(d) Freq
 --------------------------------------------------------------------

 Structure from the checkpoint file:  "JID_8023.chk"
 -------------------------------
 CID_127501317_JID_8023_neutraal
 -------------------------------
 Charge =  0 Multiplicity = 1

 SCF Done:  E(RB3LYP) =  -822.995801354     A.U. after    1 cycles

  Exact polarizability: 186.665 -20.471 127.286   0.379  -0.752 148.487
 Approx polarizability: 242.565 -36.383 173.101  -4.185  -3.859 280.714

                      1                      2                      3
                      A                      A                      A
 Frequencies --     13.7487                25.1355                40.0710
 Red. masses --      4.6740                 2.9885                 3.3658
 Frc consts  --      0.0005                 0.0011                 0.0032
 IR Inten    --      1.5523                 0.4262                 0.3617

                      4                      5                      6
                      A                      A                      A
 Frequencies --     46.4316                57.1032                83.7720
 Red. masses --      3.5120                 4.8964                 6.1413
 Frc consts  --      0.0045                 0.0094                 0.0254
 IR Inten    --      0.1269                 0.7840                 0.2076

                      7                      8                      9
                      A                      A                      A
 Frequencies --     96.0736               110.8578               123.0914
 Red. masses --      5.1038                 6.6224                 4.6003
 Frc consts  --      0.0278                 0.0480                 0.0411
 IR Inten    --      1.1816                 2.7847                 0.8425

                     10                     11                     12
                      A                      A                      A
 Frequencies --    128.7518               177.2771               215.9348
 Red. masses --      6.1429                 2.8390                 3.4010
 Frc consts  --      0.0600                 0.0526                 0.0934
 IR Inten    --      3.8406                 3.9493                 0.1273

                     13                     14                     15
                      A                      A                      A
 Frequencies --    221.1456               246.3721               287.1643
 Red. masses --      1.2837                 1.5260                 3.1785
 Frc consts  --      0.0370                 0.0546                 0.1544
 IR Inten    --      0.4493                 7.2690                 1.1147

                     16                     17                     18
                      A                      A                      A
 Frequencies --    323.4964               333.5446               378.8006
 Red. masses --      4.8235                 3.2099                 6.5936
 Frc consts  --      0.2974                 0.2104                 0.5574
 IR Inten    --      0.0287                21.9254                 4.9708

                     19                     20                     21
                      A                      A                      A
 Frequencies --    385.2429               400.1956               415.6209
 Red. masses --      2.8039                 4.8557                 3.0170
 Frc consts  --      0.2452                 0.4582                 0.3071
 IR Inten    --      1.0185                 0.2418                 0.3869

                     22                     23                     24
                      A                      A                      A
 Frequencies --    426.9181               457.4412               523.1069
 Red. masses --      4.3838                 7.0565                 6.9402
 Frc consts  --      0.4708                 0.8700                 1.1189
 IR Inten    --      9.8868                 6.5084                16.5959

                     25                     26                     27
                      A                      A                      A
 Frequencies --    547.7057               560.9404               598.2695
 Red. masses --      4.2326                 5.8224                 4.3938
 Frc consts  --      0.7481                 1.0794                 0.9266
 IR Inten    --      1.7670                26.9081                 0.8476

                     28                     29                     30
                      A                      A                      A
 Frequencies --    654.5666               666.5193               741.2645
 Red. masses --      6.4625                 4.4879                 4.1762
 Frc consts  --      1.6314                 1.1747                 1.3520
 IR Inten    --      4.3934                43.3156                 4.3510

                     31                     32                     33
                      A                      A                      A
 Frequencies --    759.3739               795.3056               801.8700
 Red. masses --      4.6392                 1.4744                 1.1603
 Frc consts  --      1.5762                 0.5495                 0.4396
 IR Inten    --      3.8381                 2.7796                 0.7655

                     34                     35                     36
                      A                      A                      A
 Frequencies --    811.8576               839.9554               854.2015
 Red. masses --      5.1855                 1.7869                 1.2585
 Frc consts  --      2.0137                 0.7428                 0.5410
 IR Inten    --      2.1959                 8.8320                 0.1518

                     37                     38                     39
                      A                      A                      A
 Frequencies --    867.3696               878.3613               888.6536
 Red. masses --      2.4984                 4.2640                 2.8228
 Frc consts  --      1.1074                 1.9383                 1.3134
 IR Inten    --     18.7126                 0.1149                 4.8570

                     40                     41                     42
                      A                      A                      A
 Frequencies --    964.5894               971.6316               982.0450
 Red. masses --      1.3233                 1.3270                 2.3797
 Frc consts  --      0.7254                 0.7381                 1.3522
 IR Inten    --      0.2840                 0.3490                 2.5464

                     43                     44                     45
                      A                      A                      A
 Frequencies --   1017.4977              1033.2643              1046.5611
 Red. masses --      4.2351                 3.5162                 2.9053
 Frc consts  --      2.5834                 2.2118                 1.8749
 IR Inten    --      7.9990                11.0903                 7.6838

                     46                     47                     48
                      A                      A                      A
 Frequencies --   1083.9999              1093.0824              1122.2726
 Red. masses --      1.4697                 1.9079                 4.7785
 Frc consts  --      1.0175                 1.3431                 3.5460
 IR Inten    --      2.6255                17.2877               217.6793

                     49                     50                     51
                      A                      A                      A
 Frequencies --   1132.9842              1160.0298              1205.2153
 Red. masses --      2.3336                 1.3133                 2.5109
 Frc consts  --      1.7649                 1.0412                 2.1489
 IR Inten    --    146.9582                 4.1356                 0.1898

                     52                     53                     54
                      A                      A                      A
 Frequencies --   1210.8748              1225.9786              1242.6902
 Red. masses --      1.7455                 1.1695                 2.5578
 Frc consts  --      1.5079                 1.0356                 2.3272
 IR Inten    --     14.2313                 6.4849                 0.8489

                     55                     56                     57
                      A                      A                      A
 Frequencies --   1254.5831              1286.1835              1315.3173
 Red. masses --      1.5040                 1.3627                 2.0167
 Frc consts  --      1.3948                 1.3282                 2.0557
 IR Inten    --     35.8841                 0.6317                54.0684

                     58                     59                     60
                      A                      A                      A
 Frequencies --   1327.9609              1346.3601              1370.1621
 Red. masses --      1.7082                 1.4305                 1.3282
 Frc consts  --      1.7749                 1.5277                 1.4692
 IR Inten    --     42.9944                83.3939                 0.4049

                     61                     62                     63
                      A                      A                      A
 Frequencies --   1372.0428              1373.5958              1421.3283
 Red. masses --      1.5581                 2.9797                 1.3402
 Frc consts  --      1.7281                 3.3124                 1.5952
 IR Inten    --      4.6566                 0.0829                 4.0051

                     64                     65                     66
                      A                      A                      A
 Frequencies --   1436.2155              1445.3017              1470.8567
 Red. masses --      1.2170                 1.3236                 2.6258
 Frc consts  --      1.4790                 1.6290                 3.3469
 IR Inten    --      1.5986                10.5983                10.3453

                     67                     68                     69
                      A                      A                      A
 Frequencies --   1516.5143              1518.6066              1520.3455
 Red. masses --      1.0467                 1.0641                 1.0821
 Frc consts  --      1.4183                 1.4459                 1.4736
 IR Inten    --      7.8594                 1.0628                 1.5396

                     70                     71                     72
                      A                      A                      A
 Frequencies --   1526.1045              1537.4179              1538.6739
 Red. masses --      1.0408                 1.0596                 1.0847
 Frc consts  --      1.4282                 1.4756                 1.5130
 IR Inten    --      8.1227                 5.6074                 1.6326

                     73                     74                     75
                      A                      A                      A
 Frequencies --   1563.2822              1635.4009              1672.6150
 Red. masses --      2.3630                 6.3008                 5.6896
 Frc consts  --      3.4024                 9.9288                 9.3783
 IR Inten    --     22.7002                 0.8054                 2.4993

                     76                     77                     78
                      A                      A                      A
 Frequencies --   1811.4122              1831.2218              2372.7687
 Red. masses --     11.6930                12.6418                12.6748
 Frc consts  --     22.6053                24.9771                42.0439
 IR Inten    --    171.6176               179.8337                 7.8116

                     79                     80                     81
                      A                      A                      A
 Frequencies --   3048.8901              3050.5846              3065.8317
 Red. masses --      1.0557                 1.0384                 1.0360
 Frc consts  --      5.7819                 5.6937                 5.7370
 IR Inten    --     29.6867                33.7214                13.9079

                     82                     83                     84
                      A                      A                      A
 Frequencies --   3082.0593              3084.1790              3100.8145
 Red. masses --      1.0831                 1.1040                 1.0597
 Frc consts  --      6.0618                 6.1875                 6.0034
 IR Inten    --      0.7103                 7.8602                17.6621

                     85                     86                     87
                      A                      A                      A
 Frequencies --   3122.0365              3124.4987              3134.9978
 Red. masses --      1.1030                 1.1036                 1.1003
 Frc consts  --      6.3342                 6.3478                 6.3714
 IR Inten    --     48.1835                32.8210                22.1744

                     88                     89                     90
                      A                      A                      A
 Frequencies --   3145.0345              3166.8738              3179.9663
 Red. masses --      1.1051                 1.1087                 1.0871
 Frc consts  --      6.4404                 6.5511                 6.4770
 IR Inten    --      1.8106                24.4934                10.1239

                     91                     92                     93
                      A                      A                      A
 Frequencies --   3185.2284              3196.7151              3225.8690
 Red. masses --      1.0894                 1.0945                 1.0928
 Frc consts  --      6.5121                 6.5900                 6.7001
 IR Inten    --     15.4984                11.0296                 1.1015

 - Thermochemistry -
 -------------------
 Temperature   298.150 Kelvin.  Pressure   1.00000 Atm.
 Atom     1 has atomic number  6 and mass  12.00000

 Molecular mass:   245.10519 amu.
 Principal axes and moments of inertia in atomic units:
                           1         2         3
     Eigenvalues --  2931.692337469.439408420.68292
           X            0.99998   0.00079   0.00563
           Y           -0.00103   0.99915   0.04132
           Z           -0.00559  -0.04133   0.99913
 This molecule is an asymmetric top.
 Rotational symmetry number  1.
 Warning -- assumption of classical behavior for rotation
           may cause significant error
 Rotational temperatures (Kelvin)      0.02954     0.01160     0.01029
 Rotational constants (GHZ):           0.61560     0.24162     0.21432
 Zero-point vibrational energy     697746.3 (Joules/Mol)
                                  166.76538 (Kcal/Mol)
 Warning -- explicit consideration of  27 degrees of freedom as
           vibrations may cause significant error
 Vibrational temperatures:     19.78    36.16    57.65    66.80    82.16
          (Kelvin)            120.53   138.23   159.50   177.10   185.25
                              255.06   310.68   318.18   354.47   413.17
                              465.44   479.90   545.01   554.28   575.79
                              597.99   614.24   658.16   752.63   788.03
                              807.07   860.78   941.78   958.97  1066.51
                             1092.57  1144.27  1153.71  1168.08  1208.51
                             1229.01  1247.95  1263.77  1278.57  1387.83
                             1397.96  1412.94  1463.95  1486.64  1505.77
                             1559.63  1572.70  1614.70  1630.11  1669.02
                             1734.04  1742.18  1763.91  1787.95  1805.07
                             1850.53  1892.45  1910.64  1937.11  1971.36
                             1974.06  1976.30  2044.97  2066.39  2079.47
                             2116.23  2181.93  2184.94  2187.44  2195.72
                             2212.00  2213.81  2249.21  2352.98  2406.52
                             2606.22  2634.72  3413.88  4386.67  4389.11
                             4411.05  4434.40  4437.45  4461.38  4491.91
                             4495.46  4510.56  4525.00  4556.43  4575.26
                             4582.83  4599.36  4641.31

 Zero-point correction=                           0.265758 (Hartree/Particle)
 Thermal correction to Energy=                    0.283937
 Thermal correction to Enthalpy=                  0.284881
 Thermal correction to Gibbs Free Energy=         0.216145
 Sum of electronic and zero-point Energies=           -822.730044
 Sum of electronic and thermal Energies=              -822.711864
 Sum of electronic and thermal Enthalpies=            -822.710920
 Sum of electronic and thermal Free Energies=         -822.779656

                     E (Thermal)             CV                S
                      KCal/Mol        Cal/Mol-Kelvin    Cal/Mol-Kelvin
 Total                  178.173             65.315            144.667
 Electronic               0.000              0.000              0.000
 Translational            0.889              2.981             42.390
 Rotational               0.889              2.981             33.577
 Vibrational            176.396             59.353             68.699
 Vibration     1          0.593              1.986              7.379
 Vibration     2          0.593              1.985              6.180
 Vibration     3          0.594              1.981              5.256
 Vibration     4          0.595              1.979              4.964
 Vibration     5          0.596              1.975              4.555
 Vibration     6          0.601              1.960              3.801
 Vibration     7          0.603              1.952              3.532
 Vibration     8          0.607              1.940              3.254
 Vibration     9          0.610              1.930              3.051
 Vibration    10          0.611              1.924              2.965
 Vibration    11          0.628              1.870              2.357
 Vibration    12          0.645              1.817              1.993
 Vibration    13          0.648              1.809              1.950
 Vibration    14          0.661              1.769              1.756
 Vibration    15          0.684              1.698              1.491
 Vibration    16          0.708              1.628              1.292
 Vibration    17          0.715              1.609              1.243
 Vibration    18          0.749              1.515              1.044
 Vibration    19          0.754              1.502              1.019
 Vibration    20          0.766              1.470              0.962
 Vibration    21          0.779              1.436              0.907
 Vibration    22          0.789              1.412              0.869
 Vibration    23          0.816              1.344              0.774
 Vibration    24          0.878              1.199              0.603
 Vibration    25          0.903              1.145              0.549
 Vibration    26          0.917              1.116              0.522
 Vibration    27          0.956              1.035              0.453

                           ! Non-Optimized Parameters !
 Normal termination of Gaussian 16 at Fri Dec 11 18:52:21 2020.

 ----------------------------------------------------------------------
 # B3LYP/6-311++G(d,p) empiricaldispersion=gd3bj scf=xqc pop=npa geom=c
 heck
 ----------------------------------------------------------------------

 ---------------------------------------
 CID_127501317_JID_8023_Energie_neutraal
 ---------------------------------------
 Structure from the checkpoint file:  "JID_8023.chk"
 Charge =  0 Multiplicity = 1

 SCF Done:  E(RB3LYP) =  -823.223960263     A.U. after   17 cycles
 Normal termination of Gaussian 16 at Fri Dec 11 18:57:19 2020.

 ----------------------------------------------------------------------
 # B3LYP/6-311++G(d,p) empiricaldispersion=gd3bj scf=xqc pop=npa geom=c
 heck
 ----------------------------------------------------------------------

 -------------------------------------
 CID_127501317_JID_8023_Energie_kation
 -------------------------------------
 Structure from the checkpoint file:  "JID_8023.chk"
 Charge =  1 Multiplicity = 2

 SCF Done:  E(UB3LYP) =  -822.907386734     A.U. after   26 cycles
 Normal termination of Gaussian 16 at Fri Dec 11 19:07:38 2020.
 Gaussian 16:  ES64L-G16RevA.03 25-Dec-2016

 ----------------------------------------------------------------------
 # B3LYP/6-311++G(d,p) empiricaldispersion=gd3bj scf=xqc pop=npa geom=c
 heck
 ----------------------------------------------------------------------

 ------------------------------------
 CID_127501317_JID_8023_Energie_anion
 ------------------------------------
 Structure from the checkpoint file:  "JID_8023.chk"
 Charge = -1 Multiplicity = 2

                         Standard orientation:
 ---------------------------------------------------------------------
 Center     Atomic      Atomic             Coordinates (Angstroms)
 Number     Number       Type             X           Y           Z
 ---------------------------------------------------------------------
      1          6           0        4.460167   -2.365532   -0.192213
      2          6           0        4.628217   -0.838119   -0.255413
      3          6           0        3.310184   -0.116116   -0.101878
      4          6           0        2.506921    0.157271   -1.215951
      5          6           0        1.265959    0.774341   -1.080493
      6          6           0        0.809223    1.145234    0.185626
      7          6           0        1.597392    0.873844    1.308541
      8          6           0        2.834185    0.250840    1.162424
      9          6           0       -0.553136    1.803879    0.405433
     10          6           0       -1.133810    2.400284   -0.797780
     11          7           0       -1.604796    2.905196   -1.730050
     12          6           0       -1.489441    0.763938    1.058298
     13          8           0       -1.754640    0.797121    2.234433
     14          6           0       -1.984387   -0.364564    0.132508
     15          8           0       -1.655671   -0.441988   -1.031575
     16          8           0       -2.789610   -1.199368    0.784382
     17          6           0       -3.338745   -2.297263    0.005260
     18          6           0       -4.552150   -1.845303   -0.789436
     19          1           0        4.024827   -2.669593    0.766074
     20          1           0        5.424878   -2.872019   -0.306685
     21          1           0        3.792279   -2.716309   -0.986585
     22          1           0        5.319413   -0.515436    0.532614
     23          1           0        5.089574   -0.562785   -1.211523
     24          1           0        2.858632   -0.118316   -2.207113
     25          1           0        0.653113    0.968878   -1.953723
     26          1           0        1.241383    1.151641    2.297375
     27          1           0        3.440950    0.050935    2.042124
     28          1           0       -0.453988    2.597118    1.154187
     29          1           0       -2.552858   -2.685868   -0.646793
     30          1           0       -3.597585   -3.046060    0.755765
     31          1           0       -4.268613   -1.102239   -1.539395
     32          1           0       -4.993251   -2.704866   -1.305978
     33          1           0       -5.309282   -1.413989   -0.127473
 ---------------------------------------------------------------------

 SCF Done:  E(UB3LYP) =  -823.264508522     A.U. after   26 cycles

 The electronic state is 2-A.
 Alpha  occ. eigenvalues --  -19.01890 -18.94541 -18.93193 -14.17631 -10.12557
 Alpha  occ. eigenvalues --  -10.11138 -10.08530 -10.08428 -10.07941 -10.07841
 Alpha  occ. eigenvalues --  -10.07402 -10.07034 -10.07013 -10.06410 -10.06317
 Alpha  occ. eigenvalues --  -10.06080 -10.05975 -10.05549  -0.96014  -0.87847
 Alpha  occ. eigenvalues --   -0.86807  -0.77669  -0.75358  -0.70122  -0.66075
 Alpha  occ. eigenvalues --   -0.65715  -0.63647  -0.60195  -0.54907  -0.53405
 Alpha  occ. eigenvalues --   -0.50303  -0.47684  -0.46941  -0.42073  -0.40752
 Alpha  occ. eigenvalues --   -0.39284  -0.36788  -0.36050  -0.35083  -0.33997
 Alpha  occ. eigenvalues --   -0.33174  -0.32181  -0.32039  -0.31070  -0.30536
 Alpha  occ. eigenvalues --   -0.30265  -0.29317  -0.28701  -0.27642  -0.26859
 Alpha  occ. eigenvalues --   -0.26199  -0.25414  -0.24275  -0.24007  -0.23648
 Alpha  occ. eigenvalues --   -0.23042  -0.21734  -0.21240  -0.20482  -0.19929
 Alpha  occ. eigenvalues --   -0.16850  -0.15285  -0.14364  -0.13505  -0.08345
 Alpha  occ. eigenvalues --    0.02450
 Alpha virt. eigenvalues --    0.06251   0.07930   0.08543   0.08762   0.09368
 Alpha virt. eigenvalues --    0.09511   0.10203   0.10518   0.11120   0.11406
 Alpha virt. eigenvalues --    0.12052   0.12531   0.12776   0.13238   0.14155

  Beta  occ. eigenvalues --  -19.01804 -18.94160 -18.92407 -14.17600 -10.12370
  Beta  occ. eigenvalues --  -10.11143 -10.08570 -10.08433 -10.07918 -10.07832
  Beta  occ. eigenvalues --  -10.06985 -10.06978 -10.06945 -10.06407 -10.06339
  Beta  occ. eigenvalues --  -10.06067 -10.05966 -10.05498  -0.95694  -0.86486
  Beta  occ. eigenvalues --   -0.86225  -0.77603  -0.75279  -0.70015  -0.65921
  Beta  occ. eigenvalues --   -0.65662  -0.63588  -0.60040  -0.54596  -0.53365
  Beta  occ. eigenvalues --   -0.50257  -0.47000  -0.46540  -0.41784  -0.40613
  Beta  occ. eigenvalues --   -0.39182  -0.36697  -0.35905  -0.34999  -0.33642
  Beta  occ. eigenvalues --   -0.33123  -0.32120  -0.31530  -0.30999  -0.30345
  Beta  occ. eigenvalues --   -0.30076  -0.28995  -0.28485  -0.27071  -0.26219
  Beta  occ. eigenvalues --   -0.25922  -0.25079  -0.24047  -0.23931  -0.23514
  Beta  occ. eigenvalues --   -0.22945  -0.21103  -0.20284  -0.19994  -0.18126
  Beta  occ. eigenvalues --   -0.15606  -0.14890  -0.14097  -0.13124  -0.07698
  Beta virt. eigenvalues --    0.06162   0.07874   0.08466   0.08708   0.09310
  Beta virt. eigenvalues --    0.09403   0.09667   0.10487   0.11060   0.11343
  Beta virt. eigenvalues --    0.12007   0.12063   0.12511   0.12754   0.13219

 Mulliken charges and spin densities:
               1          2
     1  C   -0.575490  -0.034805
     2  C   -0.463182  -0.000942
     3  C    0.864272   0.057799
     4  C   -0.745623  -0.021409
     5  C   -0.341616   0.064149
     6  C    1.007568  -0.060748
     7  C   -0.334154   0.022036
     8  C   -0.794733   0.034839
     9  C    0.971511  -0.022221
    10  C   -0.552029  -0.010199
    11  N   -0.318335   0.014843
    12  C   -0.288901   0.322957
    13  O   -0.352321   0.276266
    14  C   -0.461566   0.143854
    15  O   -0.317818   0.133485
    16  O    0.014535   0.009082
    17  C   -0.174869   0.013110
    18  C   -0.299499  -0.025527
    19  H    0.140578   0.000629
    20  H    0.083645   0.017549
    21  H    0.139679   0.003494
    22  H    0.121046   0.013310
    23  H    0.126286   0.008116
    24  H    0.147599   0.000798
    25  H    0.170778   0.003910
    26  H    0.174899  -0.004127
    27  H    0.128506   0.005539
    28  H    0.258967   0.009945
    29  H    0.145904  -0.002245
    30  H    0.137101   0.002469
    31  H    0.171304   0.009570
    32  H    0.094392   0.010506
    33  H    0.121566   0.003966
 Sum of Mulliken charges =  -1.00000   1.00000

 Dipole moment (field-independent basis, Debye):
    X=              5.6021    Y=             -4.5088    Z=             -0.2770  Tot=              7.1965
 Quadrupole moment (field-independent basis, Debye-Ang):
   XX=           -135.1194   YY=           -125.8335   ZZ=           -131.0172
   XY=              9.1292   XZ=              2.7313   YZ=              7.0799

 Summary of Natural Population Analysis:

                                       Natural Population
                Natural  -----------------------------------------------
    Atom  No    Charge         Core      Valence    Rydberg      Total
 -----------------------------------------------------------------------
      C    1   -0.28004      0.99967     2.27645    0.00392     3.28004
      C    2   -0.19400      0.99962     2.18693    0.00745     3.19400
      C    3   -0.01529      0.99951     2.00604    0.00974     3.01529
      C    4   -0.10706      0.99952     2.09931    0.00823     3.10706
      C    5   -0.07905      0.99951     2.07155    0.00799     3.07905
      C    6    0.00416      0.99949     1.98496    0.01140     2.99584
      C    7   -0.09279      0.99951     2.08488    0.00840     3.09279
      C    8   -0.10551      0.99952     2.09776    0.00823     3.10551
      C    9   -0.21147      0.99945     2.19862    0.01340     3.21147
      C   10    0.17698      0.99965     1.80264    0.02073     2.82302
      N   11   -0.19886      0.99978     2.68757    0.01150     3.69886
      C   12    0.29619      0.99964     1.68038    0.02380     2.70381
      O   13   -0.19354      0.99987     3.18704    0.00663     4.19354
      C   14    0.38849      0.99966     1.58509    0.02676     2.61151
      O   15   -0.28231      0.99987     3.27577    0.00667     4.28231
      O   16   -0.26809      0.99985     3.25866    0.00958     4.26809
      C   17   -0.01745      0.99959     2.00750    0.01036     3.01745
      C   18   -0.29931      0.99967     2.29556    0.00409     3.29931
      H   19    0.09795      0.00000     0.40117    0.00089     0.40205
      H   20    0.09058      0.00000     0.40838    0.00104     0.40942
      H   21    0.09839      0.00000     0.40058    0.00103     0.40161
      H   22    0.09408      0.00000     0.40433    0.00159     0.40592
      H   23    0.09518      0.00000     0.40371    0.00111     0.40482
      H   24    0.09349      0.00000     0.40524    0.00127     0.40651
      H   25    0.11170      0.00000     0.38694    0.00136     0.38830
      H   26    0.10464      0.00000     0.39400    0.00136     0.39536
      H   27    0.09298      0.00000     0.40575    0.00127     0.40702
      H   28    0.12649      0.00000     0.37190    0.00161     0.37351
      H   29    0.09186      0.00000     0.40671    0.00143     0.40814
      H   30    0.08208      0.00000     0.41680    0.00112     0.41792
      H   31    0.11053      0.00000     0.38838    0.00110     0.38947
      H   32    0.09155      0.00000     0.40757    0.00087     0.40845
      H   33    0.09745      0.00000     0.40158    0.00097     0.40255
 =======================================================================
   * Total *    0.00000     17.99337    46.78972    0.21690    65.00000

 Normal termination of Gaussian 16 at Fri Dec 11 19:18:00 2020.
