 Gaussian 16, Revision A.03,

 -----------------------------------------------------------
 # opt freq B3LYP/6-31G(d) empiricaldispersion=gd3bj scf=xqc
 -----------------------------------------------------------

 ------------------------------
 CID_89638163_JID_7246_neutraal
 ------------------------------
 Symbolic Z-matrix:
 Charge =  0 Multiplicity = 1

 SCF Done:  E(RB3LYP) =  -1256.28814318     A.U. after   15 cycles
 SCF Done:  E(RB3LYP) =  -1256.29485629     A.U. after   12 cycles
 SCF Done:  E(RB3LYP) =  -1256.29581942     A.U. after   12 cycles
 SCF Done:  E(RB3LYP) =  -1256.29605970     A.U. after   12 cycles
 SCF Done:  E(RB3LYP) =  -1256.29624161     A.U. after   13 cycles
 SCF Done:  E(RB3LYP) =  -1256.29676954     A.U. after   12 cycles
 SCF Done:  E(RB3LYP) =  -1256.29746872     A.U. after   13 cycles
 SCF Done:  E(RB3LYP) =  -1256.29796408     A.U. after   15 cycles
 SCF Done:  E(RB3LYP) =  -1256.29927039     A.U. after   12 cycles
 SCF Done:  E(RB3LYP) =  -1256.30060325     A.U. after   13 cycles
 SCF Done:  E(RB3LYP) =  -1256.30542857     A.U. after   10 cycles
 SCF Done:  E(RB3LYP) =  -1256.30543166     A.U. after   10 cycles
 SCF Done:  E(RB3LYP) =  -1256.30543554     A.U. after   10 cycles
 SCF Done:  E(RB3LYP) =  -1256.30543574     A.U. after    8 cycles
 Optimization completed.
    -- Stationary point found.
 Normal termination of Gaussian 16 at Fri Dec 11 12:31:57 2020.

 --------------------------------------------------------------------
 #N Geom=AllCheck Guess=TCheck SCRF=Check GenChk RB3LYP/6-31G(d) Freq
 --------------------------------------------------------------------

 Structure from the checkpoint file:  "JID_7246.chk"
 ------------------------------
 CID_89638163_JID_7246_neutraal
 ------------------------------
 Charge =  0 Multiplicity = 1

 SCF Done:  E(RB3LYP) =  -1256.30543574     A.U. after    1 cycles

  Exact polarizability: 152.028  -0.108 115.692  -4.606  -3.781 114.586
 Approx polarizability: 184.306  -4.640 193.727  -6.449 -15.583 184.379

                      1                      2                      3
                      A                      A                      A
 Frequencies --     22.7162                26.4969                38.3683
 Red. masses --      4.7659                 4.6305                 4.7247
 Frc consts  --      0.0014                 0.0019                 0.0041
 IR Inten    --      0.2305                 3.3296                 2.2572

                      4                      5                      6
                      A                      A                      A
 Frequencies --     53.7906                64.5019                82.1693
 Red. masses --      5.8505                 7.8404                 6.2627
 Frc consts  --      0.0100                 0.0192                 0.0249
 IR Inten    --      3.3366                 8.4035                 1.1924

                      7                      8                      9
                      A                      A                      A
 Frequencies --    100.6466               112.1821               163.8068
 Red. masses --      3.5562                 3.8827                 3.8433
 Frc consts  --      0.0212                 0.0288                 0.0608
 IR Inten    --     10.4546                 5.6481                 9.3068

                     10                     11                     12
                      A                      A                      A
 Frequencies --    175.1275               199.5417               215.5059
 Red. masses --      4.5702                 1.7085                 1.7135
 Frc consts  --      0.0826                 0.0401                 0.0469
 IR Inten    --     17.6102                12.4966                31.2005

                     13                     14                     15
                      A                      A                      A
 Frequencies --    254.0280               261.5929               287.5641
 Red. masses --      1.7684                 4.1075                 2.6488
 Frc consts  --      0.0672                 0.1656                 0.1291
 IR Inten    --      1.4716                 2.0877                 5.5347

                     16                     17                     18
                      A                      A                      A
 Frequencies --    309.4079               323.2533               352.3975
 Red. masses --      2.2724                 3.4094                 3.6481
 Frc consts  --      0.1282                 0.2099                 0.2669
 IR Inten    --      4.7219                 4.3288                 0.6402

                     19                     20                     21
                      A                      A                      A
 Frequencies --    361.2173               418.5209               446.1542
 Red. masses --      3.2671                 3.4653                 4.4239
 Frc consts  --      0.2512                 0.3576                 0.5188
 IR Inten    --     42.3078                28.7819                 4.0915

                     22                     23                     24
                      A                      A                      A
 Frequencies --    452.1114               464.1470               517.2232
 Red. masses --      5.0910                 8.2768                 3.6800
 Frc consts  --      0.6131                 1.0506                 0.5800
 IR Inten    --     23.8255                16.2217                 7.1790

                     25                     26                     27
                      A                      A                      A
 Frequencies --    548.4194               570.1199               625.6822
 Red. masses --      3.8138                 2.9741                 4.0040
 Frc consts  --      0.6758                 0.5696                 0.9235
 IR Inten    --     25.4273                 9.9370                 3.0077

                     28                     29                     30
                      A                      A                      A
 Frequencies --    651.2321               673.9830               695.5599
 Red. masses --      4.7794                 5.5393                 4.3489
 Frc consts  --      1.1942                 1.4825                 1.2397
 IR Inten    --      9.3177                 5.3615                45.3300

                     31                     32                     33
                      A                      A                      A
 Frequencies --    756.3722               775.9052               795.0097
 Red. masses --      4.3216                 6.5514                 1.4963
 Frc consts  --      1.4567                 2.3238                 0.5572
 IR Inten    --      2.4720               117.8339                 1.0483

                     34                     35                     36
                      A                      A                      A
 Frequencies --    838.3456               877.1475               888.4409
 Red. masses --      3.0228                 2.8724                 2.7398
 Frc consts  --      1.2517                 1.3021                 1.2742
 IR Inten    --      8.0000                15.0994                 7.9848

                     37                     38                     39
                      A                      A                      A
 Frequencies --    910.3151               931.0752               953.3639
 Red. masses --      2.2831                 1.8381                 1.9436
 Frc consts  --      1.1147                 0.9388                 1.0408
 IR Inten    --     35.6913                 3.2005                 6.8762

                     40                     41                     42
                      A                      A                      A
 Frequencies --    976.5907              1028.2292              1042.7990
 Red. masses --      2.4279                 2.5576                 3.0579
 Frc consts  --      1.3643                 1.5932                 1.9592
 IR Inten    --      6.2131                17.7648                 6.8504

                     43                     44                     45
                      A                      A                      A
 Frequencies --   1072.5589              1081.1890              1101.7898
 Red. masses --      2.3466                 2.2286                 1.8847
 Frc consts  --      1.5905                 1.5349                 1.3480
 IR Inten    --     39.1274                 6.9788                 0.2827

                     46                     47                     48
                      A                      A                      A
 Frequencies --   1132.3719              1144.6283              1165.1371
 Red. masses --      1.9682                 4.3829                 1.4489
 Frc consts  --      1.4869                 3.3833                 1.1589
 IR Inten    --     33.9115               105.0093               106.8770

                     49                     50                     51
                      A                      A                      A
 Frequencies --   1195.3427              1198.9250              1206.5486
 Red. masses --      1.1683                 1.6049                 1.8436
 Frc consts  --      0.9836                 1.3592                 1.5813
 IR Inten    --      9.1371                23.7220                50.8928

                     52                     53                     54
                      A                      A                      A
 Frequencies --   1224.4675              1244.3524              1246.5087
 Red. masses --      2.6005                 1.7331                 1.4114
 Frc consts  --      2.2972                 1.5811                 1.2921
 IR Inten    --    244.5155               154.3811                24.3473

                     55                     56                     57
                      A                      A                      A
 Frequencies --   1269.3462              1313.2045              1325.2659
 Red. masses --      1.3830                 1.6624                 1.7115
 Frc consts  --      1.3129                 1.6891                 1.7711
 IR Inten    --     31.5048                15.6496                35.6100

                     58                     59                     60
                      A                      A                      A
 Frequencies --   1341.3488              1343.2657              1373.6598
 Red. masses --      1.5194                 1.3754                 2.2790
 Frc consts  --      1.6107                 1.4622                 2.5337
 IR Inten    --     76.6670                10.4680                52.8625

                     61                     62                     63
                      A                      A                      A
 Frequencies --   1381.0463              1387.3224              1414.7712
 Red. masses --      1.9370                 1.7229                 1.6478
 Frc consts  --      2.1767                 1.9537                 1.9433
 IR Inten    --    141.8769                53.7087               102.1391

                     64                     65                     66
                      A                      A                      A
 Frequencies --   1422.0621              1445.0360              1469.9844
 Red. masses --      1.3597                 1.3281                 1.8284
 Frc consts  --      1.6200                 1.6340                 2.3278
 IR Inten    --      6.7447                10.0748                31.9296

                     67                     68                     69
                      A                      A                      A
 Frequencies --   1478.1047              1499.0133              1509.4280
 Red. masses --      1.0936                 1.0858                 1.1845
 Frc consts  --      1.4078                 1.4375                 1.5900
 IR Inten    --     15.5748                 5.6800                12.2876

                     70                     71                     72
                      A                      A                      A
 Frequencies --   1516.7110              1520.2554              1537.0466
 Red. masses --      1.0496                 1.0814                 1.0590
 Frc consts  --      1.4226                 1.4725                 1.4740
 IR Inten    --     10.0756                 4.5746                 6.9864

                     73                     74                     75
                      A                      A                      A
 Frequencies --   1550.7807              1798.1504              1818.7786
 Red. masses --      1.1519                10.8352                11.2369
 Frc consts  --      1.6321                20.6414                21.9006
 IR Inten    --     27.3457               296.2250               168.7332

                     76                     77                     78
                      A                      A                      A
 Frequencies --   3062.9536              3069.2144              3078.7023
 Red. masses --      1.0360                 1.0674                 1.0640
 Frc consts  --      5.7267                 5.9244                 5.9417
 IR Inten    --     13.2581                20.1209                12.3760

                     79                     80                     81
                      A                      A                      A
 Frequencies --   3081.7879              3097.7074              3102.0100
 Red. masses --      1.0682                 1.0591                 1.0613
 Frc consts  --      5.9772                 5.9879                 6.0170
 IR Inten    --     13.9842                27.8081                 6.7406

                     82                     83                     84
                      A                      A                      A
 Frequencies --   3103.0523              3129.6875              3137.1503
 Red. masses --      1.0830                 1.1015                 1.1044
 Frc consts  --      6.1442                 6.3569                 6.4041
 IR Inten    --      9.6815                25.6564                 4.5861

                     85                     86                     87
                      A                      A                      A
 Frequencies --   3141.6279              3148.5118              3159.4233
 Red. masses --      1.1041                 1.0990                 1.0966
 Frc consts  --      6.4206                 6.4189                 6.4494
 IR Inten    --      7.0710                 4.2263                 3.9637

                     88                     89                     90
                      A                      A                      A
 Frequencies --   3161.5970              3174.2684              3703.6322
 Red. masses --      1.1083                 1.1041                 1.0660
 Frc consts  --      6.5271                 6.5549                 8.6150
 IR Inten    --     26.9795                 1.2042               102.2281

 - Thermochemistry -
 -------------------
 Temperature   298.150 Kelvin.  Pressure   1.00000 Atm.
 Atom     1 has atomic number  6 and mass  12.00000

 Molecular mass:   265.06201 amu.
 Principal axes and moments of inertia in atomic units:
                           1         2         3
     Eigenvalues --  1575.629369060.575929302.07996
           X            0.99999   0.00214  -0.00268
           Y           -0.00203   0.99927   0.03814
           Z            0.00276  -0.03813   0.99927
 This molecule is an asymmetric top.
 Rotational symmetry number  1.
 Warning -- assumption of classical behavior for rotation
           may cause significant error
 Rotational temperatures (Kelvin)      0.05497     0.00956     0.00931
 Rotational constants (GHZ):           1.14541     0.19919     0.19401
 Zero-point vibrational energy     671827.5 (Joules/Mol)
                                  160.57063 (Kcal/Mol)
 Warning -- explicit consideration of  26 degrees of freedom as
           vibrations may cause significant error
 Vibrational temperatures:     32.68    38.12    55.20    77.39    92.80
          (Kelvin)            118.22   144.81   161.40   235.68   251.97
                              287.10   310.06   365.49   376.37   413.74
                              445.17   465.09   507.02   519.71   602.16
                              641.92   650.49   667.80   744.17   789.05
                              820.28   900.22   936.98   969.71  1000.76
                             1088.25  1116.35  1143.84  1206.19  1262.02
                             1278.27  1309.74  1339.61  1371.68  1405.10
                             1479.39  1500.36  1543.17  1555.59  1585.23
                             1629.23  1646.86  1676.37  1719.83  1724.99
                             1735.95  1761.74  1790.35  1793.45  1826.31
                             1889.41  1906.76  1929.90  1932.66  1976.39
                             1987.02  1996.05  2035.54  2046.03  2079.08
                             2114.98  2126.66  2156.75  2171.73  2182.21
                             2187.31  2211.47  2231.23  2587.14  2616.82
                             4406.91  4415.91  4429.57  4434.01  4456.91
                             4463.10  4464.60  4502.92  4513.66  4520.10
                             4530.01  4545.71  4548.83  4567.06  5328.70

 Zero-point correction=                           0.255886 (Hartree/Particle)
 Thermal correction to Energy=                    0.273648
 Thermal correction to Enthalpy=                  0.274592
 Thermal correction to Gibbs Free Energy=         0.207590
 Sum of electronic and zero-point Energies=          -1256.049550
 Sum of electronic and thermal Energies=             -1256.031788
 Sum of electronic and thermal Enthalpies=           -1256.030844
 Sum of electronic and thermal Free Energies=        -1256.097846

                     E (Thermal)             CV                S
                      KCal/Mol        Cal/Mol-Kelvin    Cal/Mol-Kelvin
 Total                  171.717             64.182            141.018
 Electronic               0.000              0.000              0.000
 Translational            0.889              2.981             42.624
 Rotational               0.889              2.981             33.251
 Vibrational            169.939             58.220             65.144
 Vibration     1          0.593              1.985              6.381
 Vibration     2          0.593              1.984              6.076
 Vibration     3          0.594              1.982              5.342
 Vibration     4          0.596              1.976              4.673
 Vibration     5          0.597              1.971              4.314
 Vibration     6          0.600              1.961              3.838
 Vibration     7          0.604              1.949              3.442
 Vibration     8          0.607              1.939              3.231
 Vibration     9          0.623              1.887              2.505
 Vibration    10          0.627              1.873              2.380
 Vibration    11          0.638              1.841              2.137
 Vibration    12          0.645              1.817              1.997
 Vibration    13          0.665              1.756              1.702
 Vibration    14          0.669              1.743              1.651
 Vibration    15          0.685              1.697              1.488
 Vibration    16          0.699              1.656              1.365
 Vibration    17          0.708              1.629              1.294
 Vibration    18          0.729              1.570              1.155
 Vibration    19          0.735              1.552              1.117
 Vibration    20          0.781              1.430              0.897
 Vibration    21          0.805              1.369              0.807
 Vibration    22          0.811              1.356              0.789
 Vibration    23          0.822              1.330              0.754
 Vibration    24          0.872              1.212              0.616
 Vibration    25          0.904              1.143              0.547
 Vibration    26          0.926              1.096              0.504

                           ! Non-Optimized Parameters !
 Normal termination of Gaussian 16 at Fri Dec 11 12:43:41 2020.

 ----------------------------------------------------------------------
 # B3LYP/6-311++G(d,p) empiricaldispersion=gd3bj scf=xqc pop=npa geom=c
 heck
 ----------------------------------------------------------------------

 --------------------------------------
 CID_89638163_JID_7246_Energie_neutraal
 --------------------------------------
 Structure from the checkpoint file:  "JID_7246.chk"
 Charge =  0 Multiplicity = 1

 SCF Done:  E(RB3LYP) =  -1256.59289301     A.U. after   15 cycles
 Normal termination of Gaussian 16 at Fri Dec 11 12:49:40 2020.

 ----------------------------------------------------------------------
 # B3LYP/6-311++G(d,p) empiricaldispersion=gd3bj scf=xqc pop=npa geom=c
 heck
 ----------------------------------------------------------------------

 ------------------------------------
 CID_89638163_JID_7246_Energie_kation
 ------------------------------------
 Structure from the checkpoint file:  "JID_7246.chk"
 Charge =  1 Multiplicity = 2

 SCF Done:  E(UB3LYP) =  -1256.25875321     A.U. after   33 cycles
 SCF Done:  E(UB3LYP) =  -1256.25875321     a.u. after    1 cycles
 Normal termination of Gaussian 16 at Fri Dec 11 13:07:55 2020.
 Gaussian 16:  ES64L-G16RevA.03 25-Dec-2016

 ----------------------------------------------------------------------
 # B3LYP/6-311++G(d,p) empiricaldispersion=gd3bj scf=xqc pop=npa geom=c
 heck
 ----------------------------------------------------------------------

 -----------------------------------
 CID_89638163_JID_7246_Energie_anion
 -----------------------------------
 Structure from the checkpoint file:  "JID_7246.chk"
 Charge = -1 Multiplicity = 2

                         Standard orientation:
 ---------------------------------------------------------------------
 Center     Atomic      Atomic             Coordinates (Angstroms)
 Number     Number       Type             X           Y           Z
 ---------------------------------------------------------------------
      1          6           0        5.170637    1.026119    0.498699
      2          6           0        5.005469   -0.297093   -0.229932
      3          8           0        3.691081   -0.397152   -0.832728
      4          6           0        2.688227   -0.791664   -0.022805
      5          8           0        2.833183   -1.097702    1.141315
      6          6           0        1.366759   -0.800259   -0.783115
      7          6           0        0.996225    0.617460   -1.272892
      8          6           0        0.095403    1.164808   -0.172098
      9          8           0       -0.269213    2.324000   -0.018245
     10          7           0       -0.283618    0.112038    0.610859
     11          6           0        0.199221   -1.185991    0.141376
     12          6           0       -1.275756    0.266176    1.653819
     13          6           0       -2.622315    0.792739    1.148091
     14         16           0       -3.385643   -0.263421   -0.101630
     15          8           0       -3.125993   -1.659312    0.225677
     16          8           0       -4.731584    0.236387   -0.372774
     17          8           0       -2.476277    0.052927   -1.443646
     18          1           0        4.984150    1.867056   -0.176955
     19          1           0        6.192337    1.113736    0.884682
     20          1           0        4.478006    1.087751    1.342296
     21          1           0        5.693788   -0.384036   -1.073327
     22          1           0        5.146003   -1.144293    0.445312
     23          1           0        1.471972   -1.497878   -1.619019
     24          1           0        0.406376    0.573146   -2.195188
     25          1           0        1.855166    1.265497   -1.451349
     26          1           0       -0.586019   -1.722894   -0.400944
     27          1           0        0.538904   -1.793237    0.983043
     28          1           0       -1.408907   -0.699661    2.143859
     29          1           0       -0.913373    0.984448    2.398377
     30          1           0       -3.356147    0.837003    1.958487
     31          1           0       -2.508639    1.782870    0.703400
     32          1           0       -2.950808    0.734014   -1.956261
 ---------------------------------------------------------------------

 SCF Done:  E(UB3LYP) =  -1256.58731266     A.U. after   33 cycles
 SCF Done:  E(UB3LYP) =  -1256.58731266     a.u. after    1 cycles

 The electronic state is 2-A.
 Alpha  occ. eigenvalues --  -88.98864 -19.08356 -19.07958 -19.03930 -19.03885
 Alpha  occ. eigenvalues --  -19.02902 -18.99699 -14.25324 -10.21612 -10.17588
 Alpha  occ. eigenvalues --  -10.14655 -10.13827 -10.12747 -10.11821 -10.11011
 Alpha  occ. eigenvalues --  -10.08981 -10.08656  -8.04990  -6.01383  -6.01193
 Alpha  occ. eigenvalues --   -6.01004  -1.05939  -1.02468  -0.94965  -0.94742
 Alpha  occ. eigenvalues --   -0.93870  -0.93377  -0.86359  -0.74625  -0.70552
 Alpha  occ. eigenvalues --   -0.68317  -0.63381  -0.61373  -0.58483  -0.54678
 Alpha  occ. eigenvalues --   -0.53672  -0.47690  -0.46639  -0.45142  -0.43990
 Alpha  occ. eigenvalues --   -0.42219  -0.41461  -0.40595  -0.39671  -0.38863
 Alpha  occ. eigenvalues --   -0.38358  -0.37067  -0.36799  -0.35208  -0.34686
 Alpha  occ. eigenvalues --   -0.33778  -0.32875  -0.32296  -0.31219  -0.30916
 Alpha  occ. eigenvalues --   -0.30615  -0.29341  -0.28614  -0.27961  -0.27343
 Alpha  occ. eigenvalues --   -0.26472  -0.25872  -0.25310  -0.24346  -0.23270
 Alpha  occ. eigenvalues --   -0.22729  -0.22559  -0.19687  -0.16637  -0.15876
 Alpha  occ. eigenvalues --    0.03734
 Alpha virt. eigenvalues --    0.05201   0.06362   0.07146   0.08060   0.08342
 Alpha virt. eigenvalues --    0.08613   0.09386   0.09465   0.10288   0.10609
 Alpha virt. eigenvalues --    0.10893   0.11759   0.12057   0.12312   0.12854

  Beta  occ. eigenvalues --  -88.98848 -19.08344 -19.07864 -19.03902 -19.03866
  Beta  occ. eigenvalues --  -19.02876 -18.99687 -14.25321 -10.21587 -10.17568
  Beta  occ. eigenvalues --  -10.14632 -10.13815 -10.12700 -10.11813 -10.11003
  Beta  occ. eigenvalues --  -10.08958 -10.08638  -8.04972  -6.01355  -6.01181
  Beta  occ. eigenvalues --   -6.00992  -1.05837  -1.02431  -0.94907  -0.94584
  Beta  occ. eigenvalues --   -0.93830  -0.93316  -0.86340  -0.74579  -0.70496
  Beta  occ. eigenvalues --   -0.68271  -0.63338  -0.61307  -0.58425  -0.54556
  Beta  occ. eigenvalues --   -0.53621  -0.47637  -0.46590  -0.45085  -0.43944
  Beta  occ. eigenvalues --   -0.42174  -0.41422  -0.40546  -0.39627  -0.38813
  Beta  occ. eigenvalues --   -0.38293  -0.37014  -0.36756  -0.35147  -0.34647
  Beta  occ. eigenvalues --   -0.33715  -0.32827  -0.32263  -0.31174  -0.30872
  Beta  occ. eigenvalues --   -0.30584  -0.29297  -0.28547  -0.27884  -0.27314
  Beta  occ. eigenvalues --   -0.26435  -0.25826  -0.25210  -0.24300  -0.23213
  Beta  occ. eigenvalues --   -0.22683  -0.22471  -0.19656  -0.16614  -0.15847
  Beta virt. eigenvalues --    0.05799   0.06323   0.07113   0.07928   0.08455
  Beta virt. eigenvalues --    0.08682   0.08866   0.09534   0.09891   0.10523
  Beta virt. eigenvalues --    0.10903   0.11085   0.11934   0.12094   0.12386

 Mulliken charges and spin densities:
               1          2
     1  C   -0.013919  -0.367484
     2  C    0.280352  -0.415785
     3  O   -0.024521   0.044709
     4  C   -0.007944  -0.416275
     5  O   -0.244030   0.001766
     6  C   -0.525425   1.085741
     7  C    1.315596  -2.030906
     8  C   -0.443618   0.453219
     9  O   -0.355325   0.018062
    10  N    0.287308  -0.054496
    11  C   -0.355361  -0.368169
    12  C    0.058078  -0.079791
    13  C   -0.695641  -0.026390
    14  S    1.259288  -1.007463
    15  O   -0.256512   0.014718
    16  O   -0.137097   0.032194
    17  O   -0.232864   0.024743
    18  H    0.118242   0.026250
    19  H   -0.190394   0.331979
    20  H    0.061864   0.112028
    21  H   -0.417142   0.591824
    22  H    0.123492   0.041649
    23  H   -0.482854   0.764463
    24  H   -0.140972   0.359537
    25  H    0.143384   0.050658
    26  H    0.163569   0.083339
    27  H    0.083434   0.116270
    28  H    0.111024   0.074314
    29  H   -0.062231   0.262792
    30  H   -0.362036   0.599250
    31  H    0.194059   0.116621
    32  H   -0.251800   0.560635
 Sum of Mulliken charges =  -1.00000   1.00000

 Dipole moment (field-independent basis, Debye):
    X=              1.6219    Y=             -0.8144    Z=              3.0575  Tot=              3.5556
 Quadrupole moment (field-independent basis, Debye-Ang):
   XX=           -203.0609   YY=           -142.2241   ZZ=           -145.0863
   XY=              1.1380   XZ=             -0.9424   YZ=              0.2095

 Summary of Natural Population Analysis:

                                       Natural Population
                Natural  -----------------------------------------------
    Atom  No    Charge         Core      Valence    Rydberg      Total
 -----------------------------------------------------------------------
      C    1   -0.29901      0.99966     2.29513    0.00422     3.29901
      C    2   -0.01655      0.99958     2.00557    0.01141     3.01655
      O    3   -0.28212      0.99986     3.27283    0.00943     4.28212
      C    4    0.41624      0.99966     1.55680    0.02729     2.58376
      O    5   -0.30792      0.99987     3.30270    0.00535     4.30792
      C    6   -0.15812      0.99956     2.14720    0.01136     3.15812
      C    7   -0.22443      0.99958     2.21600    0.00885     3.22443
      C    8    0.35511      0.99963     1.62100    0.02426     2.64489
      O    9   -0.32735      0.99988     3.32181    0.00567     4.32735
      N   10   -0.25941      0.99963     2.74828    0.01151     3.75941
      C   11   -0.07639      0.99961     2.06789    0.00890     3.07639
      C   12   -0.09241      0.99961     2.07917    0.01363     3.09241
      C   13   -0.29784      0.99956     2.28472    0.01355     3.29784
      S   14    1.12432      4.99936     1.77557    0.10074     6.87568
      O   15   -0.45293      0.99990     3.44719    0.00584     4.45293
      O   16   -0.45713      0.99990     3.45176    0.00547     4.45713
      O   17   -0.43624      0.99991     3.42873    0.00759     4.43624
      H   18    0.10090      0.00000     0.39797    0.00113     0.39910
      H   19    0.10194      0.00000     0.39701    0.00105     0.39806
      H   20    0.10639      0.00000     0.39252    0.00108     0.39361
      H   21    0.09236      0.00000     0.40606    0.00158     0.40764
      H   22    0.09425      0.00000     0.40455    0.00120     0.40575
      H   23    0.12089      0.00000     0.37728    0.00183     0.37911
      H   24    0.12181      0.00000     0.37558    0.00261     0.37819
      H   25    0.11520      0.00000     0.38348    0.00131     0.38480
      H   26    0.10547      0.00000     0.39308    0.00145     0.39453
      H   27    0.10615      0.00000     0.39249    0.00135     0.39385
      H   28    0.10870      0.00000     0.39023    0.00107     0.39130
      H   29    0.10952      0.00000     0.38939    0.00110     0.39048
      H   30    0.12142      0.00000     0.37675    0.00183     0.37858
      H   31    0.13221      0.00000     0.36642    0.00137     0.36779
      H   32    0.25496      0.00000     0.23172    0.01332     0.24504
 =======================================================================
   * Total *   -0.00000     20.99476    48.69688    0.30836    70.00000

 Normal termination of Gaussian 16 at Fri Dec 11 13:25:45 2020.
