 Gaussian 16, Revision A.03,

 -----------------------------------------------------------
 # opt freq B3LYP/6-31G(d) empiricaldispersion=gd3bj scf=xqc
 -----------------------------------------------------------

 -------------------------------
 CID_141352534_JID_2644_neutraal
 -------------------------------
 Symbolic Z-matrix:
 Charge =  0 Multiplicity = 1

 SCF Done:  E(RB3LYP) =  -1314.40815281     A.U. after   15 cycles
 SCF Done:  E(RB3LYP) =  -1314.40510806     A.U. after   13 cycles
 SCF Done:  E(RB3LYP) =  -1314.41361963     A.U. after   13 cycles
 SCF Done:  E(RB3LYP) =  -1314.41466246     A.U. after   12 cycles
 SCF Done:  E(RB3LYP) =  -1314.41494998     A.U. after   12 cycles
 SCF Done:  E(RB3LYP) =  -1314.41506211     A.U. after   12 cycles
 SCF Done:  E(RB3LYP) =  -1314.41524509     A.U. after   12 cycles
 SCF Done:  E(RB3LYP) =  -1314.41533679     A.U. after   12 cycles
 SCF Done:  E(RB3LYP) =  -1314.41538287     A.U. after   11 cycles
 SCF Done:  E(RB3LYP) =  -1314.41541623     A.U. after   12 cycles
 SCF Done:  E(RB3LYP) =  -1314.42041083     A.U. after   10 cycles
 SCF Done:  E(RB3LYP) =  -1314.42042099     A.U. after   11 cycles
 SCF Done:  E(RB3LYP) =  -1314.42042452     A.U. after    9 cycles
 SCF Done:  E(RB3LYP) =  -1314.42042546     A.U. after    8 cycles
 SCF Done:  E(RB3LYP) =  -1314.42042584     A.U. after    8 cycles
 SCF Done:  E(RB3LYP) =  -1314.42042592     A.U. after    7 cycles
 Optimization completed.
    -- Stationary point found.
 Normal termination of Gaussian 16 at Wed Dec  9 18:12:16 2020.

 --------------------------------------------------------------------
 #N Geom=AllCheck Guess=TCheck SCRF=Check GenChk RB3LYP/6-31G(d) Freq
 --------------------------------------------------------------------

 Structure from the checkpoint file:  "JID_2644.chk"
 -------------------------------
 CID_141352534_JID_2644_neutraal
 -------------------------------
 Charge =  0 Multiplicity = 1

 SCF Done:  E(RB3LYP) =  -1314.42042592     A.U. after    1 cycles

  Exact polarizability: 123.407  -6.787 112.826  -4.913  -3.332 100.284
 Approx polarizability: 170.207  -8.253 163.023  -5.953  -0.191 164.504

                      1                      2                      3
                      A                      A                      A
 Frequencies --     53.5553                65.3470               101.4925
 Red. masses --      4.2278                 4.2185                 4.3322
 Frc consts  --      0.0071                 0.0106                 0.0263
 IR Inten    --      1.6907                 5.7043                 0.4976

                      4                      5                      6
                      A                      A                      A
 Frequencies --    115.6131               116.2377               159.4749
 Red. masses --      2.7912                 4.5175                 6.0703
 Frc consts  --      0.0220                 0.0360                 0.0910
 IR Inten    --      1.8437                 9.7379                 5.8939

                      7                      8                      9
                      A                      A                      A
 Frequencies --    185.1357               204.1436               223.3065
 Red. masses --      2.1354                 2.9772                 2.5950
 Frc consts  --      0.0431                 0.0731                 0.0762
 IR Inten    --      0.1518                10.5631                 7.2369

                     10                     11                     12
                      A                      A                      A
 Frequencies --    249.8158               255.8787               299.6744
 Red. masses --      1.8948                 1.8156                 1.4642
 Frc consts  --      0.0697                 0.0700                 0.0775
 IR Inten    --      2.7401                 5.3706                 0.1568

                     13                     14                     15
                      A                      A                      A
 Frequencies --    303.7598               326.4632               355.6120
 Red. masses --      3.1114                 3.4698                 2.9065
 Frc consts  --      0.1691                 0.2179                 0.2166
 IR Inten    --      8.3739                 1.3977                 2.0452

                     16                     17                     18
                      A                      A                      A
 Frequencies --    364.3197               381.5246               416.1793
 Red. masses --      3.3988                 4.2939                 1.6661
 Frc consts  --      0.2658                 0.3683                 0.1700
 IR Inten    --      7.1359                 5.7386                26.0319

                     19                     20                     21
                      A                      A                      A
 Frequencies --    434.4583               487.3486               500.7846
 Red. masses --      2.5506                 3.6131                 6.1385
 Frc consts  --      0.2837                 0.5056                 0.9070
 IR Inten    --     22.5884                70.4627                19.3619

                     22                     23                     24
                      A                      A                      A
 Frequencies --    536.1353               622.1886               672.6604
 Red. masses --      2.5774                 4.0342                 4.2993
 Frc consts  --      0.4365                 0.9201                 1.1461
 IR Inten    --     12.0768                 7.8595                18.5366

                     25                     26                     27
                      A                      A                      A
 Frequencies --    699.5553               786.4818               808.5962
 Red. masses --      3.8865                 3.3017                 1.1821
 Frc consts  --      1.1206                 1.2033                 0.4554
 IR Inten    --     22.8923                84.6026                12.3422

                     28                     29                     30
                      A                      A                      A
 Frequencies --    818.9443               893.1351               959.9118
 Red. masses --      1.7188                 2.6842                 1.8271
 Frc consts  --      0.6792                 1.2615                 0.9919
 IR Inten    --     15.2562                10.5061                13.6534

                     31                     32                     33
                      A                      A                      A
 Frequencies --    997.5541              1010.1427              1019.2258
 Red. masses --      1.9415                 1.4759                 2.6244
 Frc consts  --      1.1383                 0.8873                 1.6063
 IR Inten    --      5.2691                13.9585               117.1112

                     34                     35                     36
                      A                      A                      A
 Frequencies --   1029.9313              1054.3477              1069.7074
 Red. masses --      1.5075                 1.7641                 2.0654
 Frc consts  --      0.9421                 1.1555                 1.3925
 IR Inten    --      5.0292                17.4778                16.0541

                     37                     38                     39
                      A                      A                      A
 Frequencies --   1085.6917              1100.5974              1120.0987
 Red. masses --      2.0089                 2.0770                 2.9497
 Frc consts  --      1.3952                 1.4823                 2.1804
 IR Inten    --     17.5525                17.5988                60.6730

                     40                     41                     42
                      A                      A                      A
 Frequencies --   1131.5615              1197.8504              1248.8609
 Red. masses --      8.4786                 1.1654                 1.2657
 Frc consts  --      6.3963                 0.9852                 1.1631
 IR Inten    --    131.0377                 4.8725                 7.0712

                     43                     44                     45
                      A                      A                      A
 Frequencies --   1279.2845              1302.4644              1318.0462
 Red. masses --      1.2147                 2.8684                 1.3341
 Frc consts  --      1.1712                 2.8669                 1.3656
 IR Inten    --      9.5867               148.7716                 7.7625

                     46                     47                     48
                      A                      A                      A
 Frequencies --   1342.3941              1357.4894              1389.5041
 Red. masses --      1.5963                 1.2000                 1.1985
 Frc consts  --      1.6948                 1.3029                 1.3634
 IR Inten    --     79.8905                18.9149                16.2349

                     49                     50                     51
                      A                      A                      A
 Frequencies --   1408.2403              1432.4165              1440.8197
 Red. masses --      1.3544                 1.2092                 1.3106
 Frc consts  --      1.5825                 1.4618                 1.6030
 IR Inten    --      8.8790                34.5070                34.9987

                     52                     53                     54
                      A                      A                      A
 Frequencies --   1441.5705              1482.6290              1498.6425
 Red. masses --      1.2353                 1.0533                 1.0882
 Frc consts  --      1.5125                 1.3642                 1.4400
 IR Inten    --     12.2473                 0.2290                 5.5966

                     55                     56                     57
                      A                      A                      A
 Frequencies --   1505.7951              1510.6079              1513.8741
 Red. masses --      1.0921                 1.0756                 1.0691
 Frc consts  --      1.4590                 1.4461                 1.4436
 IR Inten    --      6.7208                 2.4775                13.5673

                     58                     59                     60
                      A                      A                      A
 Frequencies --   1528.6437              1533.5086              1534.2849
 Red. masses --      1.0440                 1.0443                 1.0746
 Frc consts  --      1.4374                 1.4470                 1.4904
 IR Inten    --      8.6801                 4.9798                11.9689

                     61                     62                     63
                      A                      A                      A
 Frequencies --   3042.4401              3058.1347              3061.7592
 Red. masses --      1.0615                 1.0367                 1.0315
 Frc consts  --      5.7891                 5.7124                 5.6975
 IR Inten    --     25.4607                23.0448                36.7070

                     64                     65                     66
                      A                      A                      A
 Frequencies --   3075.1750              3080.8109              3082.3246
 Red. masses --      1.0693                 1.0678                 1.0607
 Frc consts  --      5.9576                 5.9711                 5.9376
 IR Inten    --     37.7188                35.0510                 7.8154

                     67                     68                     69
                      A                      A                      A
 Frequencies --   3086.8594              3121.3598              3134.5480
 Red. masses --      1.0959                 1.1020                 1.1011
 Frc consts  --      6.1528                 6.3257                 6.3739
 IR Inten    --     22.7269                16.6613                16.9880

                     70                     71                     72
                      A                      A                      A
 Frequencies --   3153.6831              3156.8682              3159.7563
 Red. masses --      1.1062                 1.0986                 1.1016
 Frc consts  --      6.4822                 6.4507                 6.4800
 IR Inten    --      4.8025                 0.6171                 3.6375

                     73                     74                     75
                      A                      A                      A
 Frequencies --   3168.2188              3182.2204              3583.3099
 Red. masses --      1.1062                 1.1072                 1.0766
 Frc consts  --      6.5422                 6.6058                 8.1444
 IR Inten    --     27.7917                 2.2026                40.4799

 - Thermochemistry -
 -------------------
 Temperature   298.150 Kelvin.  Pressure   1.00000 Atm.
 Atom     1 has atomic number  6 and mass  12.00000

 Molecular mass:   213.04934 amu.
 Principal axes and moments of inertia in atomic units:
                           1         2         3
     Eigenvalues --  1661.763413723.817804172.39310
           X            0.99860  -0.04063  -0.03384
           Y            0.03909   0.99823  -0.04491
           Z            0.03561   0.04353   0.99842
 This molecule is an asymmetric top.
 Rotational symmetry number  1.
 Warning -- assumption of classical behavior for rotation
           may cause significant error
 Rotational temperatures (Kelvin)      0.05212     0.02326     0.02076
 Rotational constants (GHZ):           1.08604     0.48465     0.43254
 Zero-point vibrational energy     588748.0 (Joules/Mol)
                                  140.71416 (Kcal/Mol)
 Warning -- explicit consideration of  22 degrees of freedom as
           vibrations may cause significant error
 Vibrational temperatures:     77.05    94.02   146.03   166.34   167.24
          (Kelvin)            229.45   266.37   293.72   321.29   359.43
                              368.15   431.16   437.04   469.71   511.65
                              524.17   548.93   598.79   625.09   701.19
                              720.52   771.38   895.19   967.81  1006.50
                             1131.57  1163.39  1178.28  1285.02  1381.10
                             1435.26  1453.37  1466.44  1481.84  1516.97
                             1539.07  1562.07  1583.51  1611.57  1628.06
                             1723.44  1796.83  1840.61  1873.96  1896.37
                             1931.41  1953.12  1999.19  2026.14  2060.93
                             2073.02  2074.10  2133.17  2156.21  2166.50
                             2173.43  2178.13  2199.38  2206.38  2207.49
                             4377.39  4399.97  4405.19  4424.49  4432.60
                             4434.78  4441.30  4490.94  4509.92  4537.45
                             4542.03  4546.18  4558.36  4578.51  5155.58

 Zero-point correction=                           0.224242 (Hartree/Particle)
 Thermal correction to Energy=                    0.238745
 Thermal correction to Enthalpy=                  0.239689
 Thermal correction to Gibbs Free Energy=         0.183298
 Sum of electronic and zero-point Energies=          -1314.196184
 Sum of electronic and thermal Energies=             -1314.181681
 Sum of electronic and thermal Enthalpies=           -1314.180737
 Sum of electronic and thermal Free Energies=        -1314.237128

                     E (Thermal)             CV                S
                      KCal/Mol        Cal/Mol-Kelvin    Cal/Mol-Kelvin
 Total                  149.815             53.614            118.685
 Electronic               0.000              0.000              0.000
 Translational            0.889              2.981             41.973
 Rotational               0.889              2.981             31.624
 Vibrational            148.037             47.653             45.089
 Vibration     1          0.596              1.976              4.682
 Vibration     2          0.597              1.971              4.289
 Vibration     3          0.604              1.948              3.425
 Vibration     4          0.608              1.936              3.172
 Vibration     5          0.608              1.936              3.162
 Vibration     6          0.621              1.892              2.556
 Vibration     7          0.631              1.860              2.276
 Vibration     8          0.640              1.834              2.095
 Vibration     9          0.649              1.806              1.932
 Vibration    10          0.663              1.763              1.732
 Vibration    11          0.666              1.753              1.690
 Vibration    12          0.692              1.674              1.419
 Vibration    13          0.695              1.667              1.396
 Vibration    14          0.710              1.623              1.278
 Vibration    15          0.731              1.564              1.141
 Vibration    16          0.738              1.546              1.104
 Vibration    17          0.751              1.510              1.033
 Vibration    18          0.779              1.435              0.905
 Vibration    19          0.795              1.395              0.844
 Vibration    20          0.843              1.278              0.691
 Vibration    21          0.856              1.248              0.656
 Vibration    22          0.891              1.170              0.574

 Optimization completed.
    -- Stationary point found.
 Normal termination of Gaussian 16 at Wed Dec  9 18:19:07 2020.

 ----------------------------------------------------------------------
 # B3LYP/6-311++G(d,p) empiricaldispersion=gd3bj scf=xqc pop=npa geom=c
 heck
 ----------------------------------------------------------------------

 ---------------------------------------
 CID_141352534_JID_2644_Energie_neutraal
 ---------------------------------------
 Structure from the checkpoint file:  "JID_2644.chk"
 Charge =  0 Multiplicity = 1

 SCF Done:  E(RB3LYP) =  -1314.63682419     A.U. after   15 cycles
 Normal termination of Gaussian 16 at Wed Dec  9 18:22:01 2020.

 ----------------------------------------------------------------------
 # B3LYP/6-311++G(d,p) empiricaldispersion=gd3bj scf=xqc pop=npa geom=c
 heck
 ----------------------------------------------------------------------

 -------------------------------------
 CID_141352534_JID_2644_Energie_kation
 -------------------------------------
 Structure from the checkpoint file:  "JID_2644.chk"
 Charge =  1 Multiplicity = 2

 SCF Done:  E(UB3LYP) =  -1314.32296106     A.U. after   25 cycles
 Normal termination of Gaussian 16 at Wed Dec  9 18:27:38 2020.
 Gaussian 16:  ES64L-G16RevA.03 25-Dec-2016

 ----------------------------------------------------------------------
 # B3LYP/6-311++G(d,p) empiricaldispersion=gd3bj scf=xqc pop=npa geom=c
 heck
 ----------------------------------------------------------------------

 ------------------------------------
 CID_141352534_JID_2644_Energie_anion
 ------------------------------------
 Structure from the checkpoint file:  "JID_2644.chk"
 Charge = -1 Multiplicity = 2

                         Standard orientation:
 ---------------------------------------------------------------------
 Center     Atomic      Atomic             Coordinates (Angstroms)
 Number     Number       Type             X           Y           Z
 ---------------------------------------------------------------------
      1          6           0       -3.345657    1.467884    1.011772
      2          6           0       -2.388020    1.311603   -0.165828
      3         16           0       -2.092380   -0.444774   -0.625139
      4          8           0       -1.070167   -0.417012   -1.761417
      5          6           0       -1.249006   -0.956936    0.943155
      6          6           0       -0.366241   -2.189628    0.745863
      7          6           0        0.914620   -1.937741   -0.060736
      8          7           0        1.839258   -0.990243    0.590816
      9         16           0        1.976141    0.635476    0.176796
     10          8           0        0.799362    1.362478    0.672991
     11          8           0        3.317457    1.008353    0.636489
     12          6           0        1.900317    0.731444   -1.617628
     13          1           0       -4.282092    0.922375    0.848189
     14          1           0       -3.595074    2.525546    1.144953
     15          1           0       -2.898871    1.115696    1.946079
     16          1           0       -2.799517    1.751463   -1.080093
     17          1           0       -1.402829    1.746567    0.022974
     18          1           0       -0.661305   -0.118482    1.321357
     19          1           0       -2.064687   -1.176670    1.640370
     20          1           0       -0.092034   -2.564768    1.739158
     21          1           0       -0.930261   -2.988864    0.246110
     22          1           0        1.459954   -2.881947   -0.157920
     23          1           0        0.646634   -1.607314   -1.064877
     24          1           0        2.775702   -1.342855    0.754244
     25          1           0        2.681264    0.100172   -2.045954
     26          1           0        0.896503    0.430245   -1.932382
     27          1           0        2.082343    1.779001   -1.868531
 ---------------------------------------------------------------------

 SCF Done:  E(UB3LYP) =  -1314.62683087     A.U. after   32 cycles

 The electronic state is 2-A.
 Alpha  occ. eigenvalues --  -88.96870 -88.84793 -19.02071 -19.01916 -18.98853
 Alpha  occ. eigenvalues --  -14.24290 -10.10899 -10.10693 -10.10534 -10.09870
 Alpha  occ. eigenvalues --  -10.08393 -10.08354  -8.03032  -7.92543  -5.99309
 Alpha  occ. eigenvalues --   -5.99279  -5.99123  -5.88831  -5.88661  -5.88119
 Alpha  occ. eigenvalues --   -1.02313  -0.91413  -0.91243  -0.82646  -0.72015
 Alpha  occ. eigenvalues --   -0.69297  -0.67262  -0.62769  -0.57778  -0.53415
 Alpha  occ. eigenvalues --   -0.50961  -0.48194  -0.43648  -0.41140  -0.39580
 Alpha  occ. eigenvalues --   -0.38452  -0.37972  -0.37547  -0.35807  -0.34825
 Alpha  occ. eigenvalues --   -0.34038  -0.33239  -0.32356  -0.30913  -0.29333
 Alpha  occ. eigenvalues --   -0.28901  -0.27796  -0.26952  -0.26294  -0.25765
 Alpha  occ. eigenvalues --   -0.24636  -0.22834  -0.21406  -0.21341  -0.18158
 Alpha  occ. eigenvalues --   -0.16735  -0.13873   0.04109
 Alpha virt. eigenvalues --    0.05713   0.06998   0.08067   0.08717   0.08978
 Alpha virt. eigenvalues --    0.09490   0.10542   0.10828   0.11135   0.11500
 Alpha virt. eigenvalues --    0.12257   0.12858   0.13145   0.13635   0.14442

  Beta  occ. eigenvalues --  -88.96869 -88.84790 -19.02064 -19.01914 -18.98847
  Beta  occ. eigenvalues --  -14.24258 -10.10865 -10.10671 -10.10526 -10.09852
  Beta  occ. eigenvalues --  -10.08353 -10.08331  -8.03030  -7.92540  -5.99307
  Beta  occ. eigenvalues --   -5.99277  -5.99121  -5.88829  -5.88659  -5.88111
  Beta  occ. eigenvalues --   -1.02299  -0.91403  -0.91232  -0.82589  -0.71984
  Beta  occ. eigenvalues --   -0.69254  -0.67223  -0.62714  -0.57719  -0.53365
  Beta  occ. eigenvalues --   -0.50902  -0.48131  -0.43613  -0.41079  -0.39563
  Beta  occ. eigenvalues --   -0.38431  -0.37926  -0.37520  -0.35764  -0.34777
  Beta  occ. eigenvalues --   -0.34008  -0.33211  -0.32323  -0.30874  -0.29293
  Beta  occ. eigenvalues --   -0.28856  -0.27765  -0.26904  -0.26258  -0.25743
  Beta  occ. eigenvalues --   -0.24611  -0.22823  -0.21387  -0.21326  -0.18130
  Beta  occ. eigenvalues --   -0.16707  -0.13848
  Beta virt. eigenvalues --    0.06436   0.07028   0.07662   0.08964   0.09034
  Beta virt. eigenvalues --    0.09539   0.10040   0.10722   0.11270   0.11544
  Beta virt. eigenvalues --    0.11990   0.12364   0.13150   0.13324   0.13869

 Mulliken charges and spin densities:
               1          2
     1  C    0.901146  -1.453401
     2  C   -1.366024   0.941413
     3  S    1.471860  -0.936695
     4  O   -0.477283   0.019031
     5  C   -1.118600   0.802801
     6  C    1.273593  -1.826471
     7  C    0.125543  -0.589461
     8  N   -0.259725   0.022707
     9  S    0.617825  -0.374940
    10  O   -0.245966   0.026352
    11  O   -0.222657  -0.017493
    12  C   -0.347677  -0.248242
    13  H   -0.247324   0.396812
    14  H   -0.369201   0.527294
    15  H   -0.143933   0.318783
    16  H   -0.009942   0.205806
    17  H    0.358687  -0.110351
    18  H    0.308798  -0.027337
    19  H   -0.395287   0.637132
    20  H   -0.204777   0.396210
    21  H   -0.058049   0.225425
    22  H   -1.292423   1.503237
    23  H    0.494825  -0.289218
    24  H    0.042044   0.303262
    25  H   -0.153125   0.360611
    26  H    0.164757   0.152518
    27  H    0.152914   0.034215
 Sum of Mulliken charges =  -1.00000   1.00000

 Dipole moment (field-independent basis, Debye):
    X=             -0.5320    Y=              3.9040    Z=             -3.1062  Tot=              5.0172
 Quadrupole moment (field-independent basis, Debye-Ang):
   XX=           -156.7130   YY=           -141.0557   ZZ=           -124.1457
   XY=              9.9324   XZ=              1.8254   YZ=             -2.6150

 Summary of Natural Population Analysis:

                                       Natural Population
                Natural  -----------------------------------------------
    Atom  No    Charge         Core      Valence    Rydberg      Total
 -----------------------------------------------------------------------
      C    1   -0.29611      0.99966     2.29071    0.00574     3.29611
      C    2   -0.27908      0.99961     2.26758    0.01189     3.27908
      S    3    0.57879      4.99943     2.37046    0.05132     7.42121
      O    4   -0.49916      0.99993     3.49355    0.00568     4.49916
      C    5   -0.28414      0.99957     2.27184    0.01274     3.28414
      C    6   -0.19822      0.99961     2.18720    0.01141     3.19822
      C    7   -0.10237      0.99959     2.08807    0.01472     3.10237
      N    8   -0.44370      0.99974     2.92984    0.01412     3.94370
      S    9    1.10073      4.99933     1.80161    0.09834     6.89927
      O   10   -0.47390      0.99990     3.46796    0.00604     4.47390
      O   11   -0.46957      0.99991     3.46403    0.00563     4.46957
      C   12   -0.40438      0.99960     2.39436    0.01042     3.40438
      H   13    0.10149      0.00000     0.39646    0.00205     0.39851
      H   14    0.10669      0.00000     0.39216    0.00116     0.39331
      H   15    0.10389      0.00000     0.39490    0.00121     0.39611
      H   16    0.10381      0.00000     0.39479    0.00141     0.39619
      H   17    0.12196      0.00000     0.37606    0.00198     0.37804
      H   18    0.12192      0.00000     0.37551    0.00256     0.37808
      H   19    0.11032      0.00000     0.38719    0.00249     0.38968
      H   20    0.10777      0.00000     0.39024    0.00199     0.39223
      H   21    0.10184      0.00000     0.39652    0.00164     0.39816
      H   22    0.10643      0.00000     0.38748    0.00610     0.39357
      H   23    0.11110      0.00000     0.38683    0.00207     0.38890
      H   24    0.20699      0.00000     0.28929    0.00372     0.29301
      H   25    0.11350      0.00000     0.38547    0.00103     0.38650
      H   26    0.13823      0.00000     0.36045    0.00131     0.36177
      H   27    0.11519      0.00000     0.38408    0.00073     0.38481
 =======================================================================
   * Total *    0.00000     19.99586    36.72462    0.27952    57.00000

 Normal termination of Gaussian 16 at Wed Dec  9 18:35:02 2020.
