 Gaussian 16, Revision A.03,

 -----------------------------------------------------------
 # opt freq B3LYP/6-31G(d) empiricaldispersion=gd3bj scf=xqc
 -----------------------------------------------------------

 --------------------------------
 CID_152001765_JID_10776_neutraal
 --------------------------------
 Symbolic Z-matrix:
 Charge =  0 Multiplicity = 1

 SCF Done:  E(RB3LYP) =  -928.614619596     A.U. after   16 cycles
 SCF Done:  E(RB3LYP) =  -928.624192629     A.U. after   15 cycles
 SCF Done:  E(RB3LYP) =  -928.625534026     A.U. after   14 cycles
 SCF Done:  E(RB3LYP) =  -928.626024340     A.U. after   13 cycles
 SCF Done:  E(RB3LYP) =  -928.626134745     A.U. after   14 cycles
 SCF Done:  E(RB3LYP) =  -928.626771896     A.U. after   13 cycles
 SCF Done:  E(RB3LYP) =  -928.627287169     A.U. after   15 cycles
 SCF Done:  E(RB3LYP) =  -928.627758828     A.U. after   13 cycles
 SCF Done:  E(RB3LYP) =  -928.627983609     A.U. after   13 cycles
 SCF Done:  E(RB3LYP) =  -928.628149938     A.U. after   13 cycles
 SCF Done:  E(RB3LYP) =  -928.630508563     A.U. after   10 cycles
 SCF Done:  E(RB3LYP) =  -928.630514190     A.U. after   10 cycles
 SCF Done:  E(RB3LYP) =  -928.630514866     A.U. after    9 cycles
 SCF Done:  E(RB3LYP) =  -928.630515151     A.U. after    8 cycles
 Optimization completed.
    -- Stationary point found.
 Normal termination of Gaussian 16 at Sun Dec 13 17:08:45 2020.

 --------------------------------------------------------------------
 #N Geom=AllCheck Guess=TCheck SCRF=Check GenChk RB3LYP/6-31G(d) Freq
 --------------------------------------------------------------------

 Structure from the checkpoint file:  "JID_10776.chk"
 --------------------------------
 CID_152001765_JID_10776_neutraal
 --------------------------------
 Charge =  0 Multiplicity = 1

 SCF Done:  E(RB3LYP) =  -928.630515151     A.U. after    1 cycles

  Exact polarizability: 198.521  -8.033 168.572   7.249 -15.620 139.339
 Approx polarizability: 274.156 -26.850 279.875  20.306 -46.370 240.468

                      1                      2                      3
                      A                      A                      A
 Frequencies --     24.9365                38.5528                40.3927
 Red. masses --      7.7869                 3.6004                 4.1261
 Frc consts  --      0.0029                 0.0032                 0.0040
 IR Inten    --      0.2437                 0.1231                 0.1412

                      4                      5                      6
                      A                      A                      A
 Frequencies --     50.0699                73.2330                85.5536
 Red. masses --      7.9111                 9.1912                 4.3909
 Frc consts  --      0.0117                 0.0290                 0.0189
 IR Inten    --      0.9386                 0.9710                 1.1867

                      7                      8                      9
                      A                      A                      A
 Frequencies --    107.4496               126.9544               151.3416
 Red. masses --      2.9872                 8.8713                 7.0613
 Frc consts  --      0.0203                 0.0842                 0.0953
 IR Inten    --      0.2475                 0.9368                 2.7910

                     10                     11                     12
                      A                      A                      A
 Frequencies --    170.5531               193.6309               234.0845
 Red. masses --      2.8929                 1.8685                 2.6527
 Frc consts  --      0.0496                 0.0413                 0.0856
 IR Inten    --      0.2142                 1.2386                 0.8278

                     13                     14                     15
                      A                      A                      A
 Frequencies --    248.1218               269.0542               285.6946
 Red. masses --      4.6257                 6.1591                 1.8673
 Frc consts  --      0.1678                 0.2627                 0.0898
 IR Inten    --      2.5874                 4.1655                 3.3200

                     16                     17                     18
                      A                      A                      A
 Frequencies --    296.3604               317.9118               342.1869
 Red. masses --     10.0240                 4.6685                 3.9468
 Frc consts  --      0.5187                 0.2780                 0.2723
 IR Inten    --      1.4797                10.5558                 1.5913

                     19                     20                     21
                      A                      A                      A
 Frequencies --    363.6522               378.2252               409.9579
 Red. masses --      9.3318                 2.3448                 1.5352
 Frc consts  --      0.7271                 0.1976                 0.1520
 IR Inten    --     14.1005                22.9016                71.6191

                     22                     23                     24
                      A                      A                      A
 Frequencies --    420.0372               443.8073               509.3036
 Red. masses --      1.9729                 2.3564                 3.6037
 Frc consts  --      0.2051                 0.2735                 0.5507
 IR Inten    --     41.3490                 1.9611                 2.5886

                     25                     26                     27
                      A                      A                      A
 Frequencies --    521.4181               543.3393               594.7146
 Red. masses --     13.0164                 4.3906                 5.6945
 Frc consts  --      2.0850                 0.7637                 1.1866
 IR Inten    --      9.4376                 6.0508                10.6591

                     28                     29                     30
                      A                      A                      A
 Frequencies --    635.4404               642.6648               653.2158
 Red. masses --      6.3987                 7.1965                 6.7029
 Frc consts  --      1.5223                 1.7512                 1.6851
 IR Inten    --      2.0952                11.7876                13.2986

                     31                     32                     33
                      A                      A                      A
 Frequencies --    680.8715               712.1556               725.0320
 Red. masses --      3.3498                 2.5155                 2.9162
 Frc consts  --      0.9150                 0.7517                 0.9032
 IR Inten    --      3.7880                20.4073                 6.6036

                     34                     35                     36
                      A                      A                      A
 Frequencies --    736.7075               761.8685               780.8374
 Red. masses --      8.7149                 1.6983                 1.9762
 Frc consts  --      2.7868                 0.5808                 0.7099
 IR Inten    --     28.0071                35.0549                13.2029

                     37                     38                     39
                      A                      A                      A
 Frequencies --    789.8305               818.7194               861.0348
 Red. masses --      4.9830                 2.5231                 1.2517
 Frc consts  --      1.8315                 0.9965                 0.5468
 IR Inten    --     29.8658                 0.4465                 0.5884

                     40                     41                     42
                      A                      A                      A
 Frequencies --    866.2437               911.1537               930.6141
 Red. masses --      2.0923                 2.5155                 1.4960
 Frc consts  --      0.9250                 1.2304                 0.7634
 IR Inten    --      3.7062                12.1300                 5.6071

                     43                     44                     45
                      A                      A                      A
 Frequencies --    938.6473               969.5667               973.4611
 Red. masses --      2.1271                 2.5709                 1.3986
 Frc consts  --      1.1042                 1.4240                 0.7809
 IR Inten    --      3.3905                 1.4666                 0.5379

                     46                     47                     48
                      A                      A                      A
 Frequencies --    999.5836              1012.2585              1023.2416
 Red. masses --      1.2748                 2.2798                 5.5919
 Frc consts  --      0.7505                 1.3763                 3.4496
 IR Inten    --      0.1744                 0.3816                 1.7564

                     49                     50                     51
                      A                      A                      A
 Frequencies --   1065.3222              1068.3856              1076.3262
 Red. masses --      2.2067                 2.0417                 2.2031
 Frc consts  --      1.4755                 1.3731                 1.5038
 IR Inten    --      5.8828                 3.1968                13.0059

                     52                     53                     54
                      A                      A                      A
 Frequencies --   1111.3655              1131.8987              1145.7126
 Red. masses --      1.8964                 2.0996                 4.8624
 Frc consts  --      1.3801                 1.5849                 3.7605
 IR Inten    --      8.5001                 0.3131                12.9671

                     55                     56                     57
                      A                      A                      A
 Frequencies --   1151.2570              1165.7531              1196.4445
 Red. masses --      2.2270                 3.0837                 1.0955
 Frc consts  --      1.7391                 2.4691                 0.9239
 IR Inten    --      2.8289                 6.3043                 0.0180

                     58                     59                     60
                      A                      A                      A
 Frequencies --   1219.4216              1222.3002              1231.6649
 Red. masses --      2.9640                 1.2835                 3.4278
 Frc consts  --      2.5968                 1.1298                 3.0637
 IR Inten    --     72.3960                31.9048                 1.0414

                     61                     62                     63
                      A                      A                      A
 Frequencies --   1264.8670              1288.4270              1303.0858
 Red. masses --      2.5729                 1.5664                 2.0541
 Frc consts  --      2.4253                 1.5320                 2.0550
 IR Inten    --    112.6093                22.2446                36.6585

                     64                     65                     66
                      A                      A                      A
 Frequencies --   1346.8045              1353.5254              1369.9963
 Red. masses --      1.3337                 2.4913                 1.6345
 Frc consts  --      1.4253                 2.6891                 1.8075
 IR Inten    --      0.4470                 5.9242                 2.9386

                     67                     68                     69
                      A                      A                      A
 Frequencies --   1378.1738              1402.6133              1410.4843
 Red. masses --      1.5687                 2.7610                 2.1065
 Frc consts  --      1.7555                 3.2003                 2.4692
 IR Inten    --     14.4091               105.4335                67.1190

                     70                     71                     72
                      A                      A                      A
 Frequencies --   1413.9627              1421.5520              1447.6769
 Red. masses --      1.4110                 1.7224                 1.2646
 Frc consts  --      1.6620                 2.0508                 1.5616
 IR Inten    --      5.4471                20.5792                14.2767

                     73                     74                     75
                      A                      A                      A
 Frequencies --   1497.7620              1506.7976              1514.3093
 Red. masses --      2.2464                 1.0877                 1.0891
 Frc consts  --      2.9691                 1.4550                 1.4714
 IR Inten    --     12.1120                 3.4328                 4.6524

                     76                     77                     78
                      A                      A                      A
 Frequencies --   1525.1766              1535.7867              1546.7799
 Red. masses --      1.0448                 1.0746                 1.8838
 Frc consts  --      1.4319                 1.4933                 2.6555
 IR Inten    --      0.9670                 5.8763                15.1892

                     79                     80                     81
                      A                      A                      A
 Frequencies --   1548.0416              1646.6379              1665.4999
 Red. masses --      1.1367                 5.6132                 5.5100
 Frc consts  --      1.6050                 8.9672                 9.0051
 IR Inten    --      5.6609                 0.5937                 4.7165

                     82                     83                     84
                      A                      A                      A
 Frequencies --   1839.8492              1892.1189              2249.9160
 Red. masses --     12.4910                11.5413                13.9908
 Frc consts  --     24.9122                24.3446                41.7278
 IR Inten    --    552.4468               187.9348               473.2617

                     85                     86                     87
                      A                      A                      A
 Frequencies --   3035.5588              3047.5489              3049.7840
 Red. masses --      1.0634                 1.0420                 1.0667
 Frc consts  --      5.7731                 5.7017                 5.8455
 IR Inten    --     14.7849                26.5392                31.7872

                     88                     89                     90
                      A                      A                      A
 Frequencies --   3058.9578              3070.4738              3088.9424
 Red. masses --      1.0677                 1.0997                 1.0953
 Frc consts  --      5.8862                 6.1085                 6.1574
 IR Inten    --     24.7220                22.3599                42.7247

                     91                     92                     93
                      A                      A                      A
 Frequencies --   3114.4133              3123.3599              3140.1502
 Red. masses --      1.0992                 1.0945                 1.1001
 Frc consts  --      6.2819                 6.2911                 6.3912
 IR Inten    --     41.9263                12.1548                29.1626

                     94                     95                     96
                      A                      A                      A
 Frequencies --   3187.6799              3197.6609              3209.8241
 Red. masses --      1.0854                 1.0894                 1.0937
 Frc consts  --      6.4980                 6.5630                 6.6391
 IR Inten    --      0.1936                12.4587                30.1285

                     97                     98                     99
                      A                      A                      A
 Frequencies --   3220.0168              3228.9231              3649.7445
 Red. masses --      1.0934                 1.0931                 1.0788
 Frc consts  --      6.6794                 6.7147                 8.4668
 IR Inten    --     12.6482                 2.5859                48.2422

 - Thermochemistry -
 -------------------
 Temperature   298.150 Kelvin.  Pressure   1.00000 Atm.
 Atom     1 has atomic number  6 and mass  12.00000

 Molecular mass:   273.12257 amu.
 Principal axes and moments of inertia in atomic units:
                           1         2         3
     Eigenvalues --  4102.634146415.024858188.55589
           X            0.99765   0.06847   0.00362
           Y           -0.06842   0.99759  -0.01123
           Z           -0.00438   0.01096   0.99993
 This molecule is an asymmetric top.
 Rotational symmetry number  1.
 Warning -- assumption of classical behavior for rotation
           may cause significant error
 Rotational temperatures (Kelvin)      0.02111     0.01350     0.01058
 Rotational constants (GHZ):           0.43990     0.28133     0.22040
 Zero-point vibrational energy     731172.1 (Joules/Mol)
                                  174.75431 (Kcal/Mol)
 Warning -- explicit consideration of  27 degrees of freedom as
           vibrations may cause significant error
 Vibrational temperatures:     35.88    55.47    58.12    72.04   105.37
          (Kelvin)            123.09   154.60   182.66   217.75   245.39
                              278.59   336.80   356.99   387.11   411.05
                              426.40   457.40   492.33   523.21   544.18
                              589.84   604.34   638.54   732.77   750.20
                              781.74   855.66   914.26   924.65   939.83
                              979.62  1024.63  1043.16  1059.96  1096.16
                             1123.45  1136.39  1177.95  1238.84  1246.33
                             1310.95  1338.95  1350.50  1394.99  1400.59
                             1438.18  1456.41  1472.22  1532.76  1537.17
                             1548.59  1599.01  1628.55  1648.42  1656.40
                             1677.26  1721.42  1754.48  1758.62  1772.09
                             1819.86  1853.76  1874.85  1937.75  1947.42
                             1971.12  1982.88  2018.05  2029.37  2034.38
                             2045.30  2082.88  2154.95  2167.95  2178.75
                             2194.39  2209.65  2225.47  2227.29  2369.14
                             2396.28  2647.13  2722.34  3237.13  4367.49
                             4384.74  4387.96  4401.16  4417.73  4444.30
                             4480.95  4493.82  4517.98  4586.36  4600.72
                             4618.22  4632.89  4645.70  5251.17

 Zero-point correction=                           0.278489 (Hartree/Particle)
 Thermal correction to Energy=                    0.296969
 Thermal correction to Enthalpy=                  0.297913
 Thermal correction to Gibbs Free Energy=         0.230224
 Sum of electronic and zero-point Energies=           -928.352026
 Sum of electronic and thermal Energies=              -928.333546
 Sum of electronic and thermal Enthalpies=            -928.332602
 Sum of electronic and thermal Free Energies=         -928.400291

                     E (Thermal)             CV                S
                      KCal/Mol        Cal/Mol-Kelvin    Cal/Mol-Kelvin
 Total                  186.351             69.270            142.465
 Electronic               0.000              0.000              0.000
 Translational            0.889              2.981             42.713
 Rotational               0.889              2.981             33.732
 Vibrational            184.574             63.309             66.020
 Vibration     1          0.593              1.985              6.196
 Vibration     2          0.594              1.981              5.332
 Vibration     3          0.594              1.981              5.240
 Vibration     4          0.595              1.978              4.815
 Vibration     5          0.599              1.967              4.065
 Vibration     6          0.601              1.959              3.759
 Vibration     7          0.606              1.943              3.314
 Vibration     8          0.611              1.926              2.992
 Vibration     9          0.619              1.901              2.655
 Vibration    10          0.626              1.879              2.429
 Vibration    11          0.635              1.849              2.193
 Vibration    12          0.654              1.789              1.847
 Vibration    13          0.662              1.766              1.744
 Vibration    14          0.673              1.730              1.602
 Vibration    15          0.683              1.700              1.499
 Vibration    16          0.690              1.681              1.437
 Vibration    17          0.704              1.639              1.321
 Vibration    18          0.721              1.591              1.202
 Vibration    19          0.737              1.547              1.106
 Vibration    20          0.749              1.517              1.046
 Vibration    21          0.774              1.449              0.927
 Vibration    22          0.783              1.427              0.892
 Vibration    23          0.803              1.375              0.815
 Vibration    24          0.864              1.229              0.635
 Vibration    25          0.876              1.203              0.607
 Vibration    26          0.898              1.154              0.558
 Vibration    27          0.952              1.043              0.459

 Optimization completed.
    -- Stationary point found.
 Normal termination of Gaussian 16 at Sun Dec 13 17:28:25 2020.

 ----------------------------------------------------------------------
 # B3LYP/6-311++G(d,p) empiricaldispersion=gd3bj scf=xqc pop=npa geom=c
 heck
 ----------------------------------------------------------------------

 ----------------------------------------
 CID_152001765_JID_10776_Energie_neutraal
 ----------------------------------------
 Structure from the checkpoint file:  "JID_10776.chk"
 Charge =  0 Multiplicity = 1

 SCF Done:  E(RB3LYP) =  -928.887343401     A.U. after   17 cycles
 Normal termination of Gaussian 16 at Sun Dec 13 17:36:17 2020.

 ----------------------------------------------------------------------
 # B3LYP/6-311++G(d,p) empiricaldispersion=gd3bj scf=xqc pop=npa geom=c
 heck
 ----------------------------------------------------------------------

 --------------------------------------
 CID_152001765_JID_10776_Energie_kation
 --------------------------------------
 Structure from the checkpoint file:  "JID_10776.chk"
 Charge =  1 Multiplicity = 2

 SCF Done:  E(UB3LYP) =  -928.564301156     A.U. after   33 cycles
 SCF Done:  E(UB3LYP) =  -928.564301156     a.u. after    2 cycles
 Normal termination of Gaussian 16 at Sun Dec 13 18:16:38 2020.
 Gaussian 16:  ES64L-G16RevA.03 25-Dec-2016

 ----------------------------------------------------------------------
 # B3LYP/6-311++G(d,p) empiricaldispersion=gd3bj scf=xqc pop=npa geom=c
 heck
 ----------------------------------------------------------------------

 -------------------------------------
 CID_152001765_JID_10776_Energie_anion
 -------------------------------------
 Structure from the checkpoint file:  "JID_10776.chk"
 Charge = -1 Multiplicity = 2

                         Standard orientation:
 ---------------------------------------------------------------------
 Center     Atomic      Atomic             Coordinates (Angstroms)
 Number     Number       Type             X           Y           Z
 ---------------------------------------------------------------------
      1          6           0        1.645700    3.504254   -0.961790
      2          6           0        1.975606    2.677815    0.283971
      3          6           0        0.812041    2.553850    1.281760
      4          6           0       -0.491700    1.926168    0.767087
      5          6           0       -0.464768    0.406331    0.458854
      6          6           0        0.463423    0.088044   -0.736990
      7          8           0        0.393189    0.535515   -1.858109
      8          7           0        1.390216   -0.822022   -0.255342
      9          6           0        1.314581   -0.997704    1.159857
     10          8           0        2.113158   -1.622871    1.819896
     11          7           0        0.171450   -0.355528    1.531605
     12          7           0        2.560755   -1.109841   -0.970630
     13          7           0        2.846652   -2.334135   -0.915753
     14          7           0        3.285610   -3.380725   -0.960897
     15          6           0       -1.876529   -0.094106    0.139536
     16          6           0       -2.566066    0.436182   -0.959137
     17          6           0       -3.862567    0.014542   -1.245644
     18          6           0       -4.488467   -0.937992   -0.439469
     19          6           0       -3.802733   -1.474607    0.648828
     20          6           0       -2.501502   -1.057974    0.934448
     21          1           0        0.902417    3.005389   -1.589994
     22          1           0        2.541055    3.654212   -1.574221
     23          1           0        1.258906    4.493570   -0.686052
     24          1           0        2.337967    1.688637   -0.019432
     25          1           0        2.814445    3.143292    0.817133
     26          1           0        1.154434    2.004180    2.167721
     27          1           0        0.556856    3.562122    1.634649
     28          1           0       -1.279151    2.073182    1.516914
     29          1           0       -0.833839    2.437239   -0.137021
     30          1           0       -0.027375   -0.215289    2.511199
     31          1           0       -2.074985    1.153489   -1.606888
     32          1           0       -4.382483    0.428780   -2.104653
     33          1           0       -5.500204   -1.263753   -0.663052
     34          1           0       -4.275527   -2.223917    1.277345
     35          1           0       -1.968198   -1.495337    1.771330
 ---------------------------------------------------------------------

 SCF Done:  E(UB3LYP) =  -928.897149451     A.U. after   33 cycles
 SCF Done:  E(UB3LYP) =  -928.897149451     a.u. after    1 cycles

 The electronic state is 2-A.
 Alpha  occ. eigenvalues --  -19.00458 -18.99689 -14.30164 -14.27463 -14.24385
 Alpha  occ. eigenvalues --  -14.24347 -14.21948 -10.20249 -10.18206 -10.14536
 Alpha  occ. eigenvalues --  -10.09700 -10.08948 -10.08762 -10.08683 -10.08672
 Alpha  occ. eigenvalues --  -10.08612 -10.08198 -10.07714 -10.07060 -10.06249
 Alpha  occ. eigenvalues --   -1.00102  -0.96723  -0.94752  -0.88818  -0.85833
 Alpha  occ. eigenvalues --   -0.77416  -0.76052  -0.71692  -0.68721  -0.66063
 Alpha  occ. eigenvalues --   -0.64414  -0.60493  -0.56715  -0.55256  -0.52554
 Alpha  occ. eigenvalues --   -0.52050  -0.49688  -0.47416  -0.44219  -0.43888
 Alpha  occ. eigenvalues --   -0.41357  -0.39964  -0.38379  -0.37156  -0.36519
 Alpha  occ. eigenvalues --   -0.36150  -0.35528  -0.34706  -0.34154  -0.33792
 Alpha  occ. eigenvalues --   -0.33237  -0.32695  -0.32275  -0.30458  -0.30314
 Alpha  occ. eigenvalues --   -0.29536  -0.29223  -0.28442  -0.27479  -0.26246
 Alpha  occ. eigenvalues --   -0.25953  -0.23917  -0.23631  -0.23195  -0.22756
 Alpha  occ. eigenvalues --   -0.19172  -0.18029  -0.17219  -0.16928  -0.16728
 Alpha  occ. eigenvalues --   -0.15679  -0.11078   0.03996
 Alpha virt. eigenvalues --    0.05796   0.06340   0.06447   0.07056   0.07425
 Alpha virt. eigenvalues --    0.08153   0.08791   0.08930   0.09620   0.10086
 Alpha virt. eigenvalues --    0.10783   0.11605   0.12022   0.12359   0.13295

  Beta  occ. eigenvalues --  -19.00442 -18.99676 -14.29711 -14.27310 -14.24404
  Beta  occ. eigenvalues --  -14.24312 -14.21267 -10.20229 -10.18191 -10.14531
  Beta  occ. eigenvalues --  -10.09674 -10.08960 -10.08726 -10.08654 -10.08652
  Beta  occ. eigenvalues --  -10.08600 -10.08143 -10.07700 -10.07053 -10.06245
  Beta  occ. eigenvalues --   -0.99541  -0.96316  -0.94723  -0.88612  -0.85597
  Beta  occ. eigenvalues --   -0.77295  -0.75743  -0.71649  -0.68665  -0.65997
  Beta  occ. eigenvalues --   -0.64361  -0.60402  -0.56370  -0.55190  -0.52413
  Beta  occ. eigenvalues --   -0.51993  -0.49597  -0.47364  -0.44139  -0.43734
  Beta  occ. eigenvalues --   -0.41275  -0.39739  -0.38189  -0.36668  -0.36342
  Beta  occ. eigenvalues --   -0.36101  -0.35058  -0.34503  -0.34038  -0.33366
  Beta  occ. eigenvalues --   -0.33134  -0.32510  -0.31731  -0.30270  -0.29563
  Beta  occ. eigenvalues --   -0.29292  -0.28847  -0.28263  -0.27342  -0.26144
  Beta  occ. eigenvalues --   -0.25921  -0.23890  -0.23569  -0.23166  -0.21951
  Beta  occ. eigenvalues --   -0.19073  -0.17760  -0.17120  -0.16620  -0.16321
  Beta  occ. eigenvalues --   -0.15549  -0.10860
  Beta virt. eigenvalues --    0.05963   0.06523   0.06806   0.07205   0.07573
  Beta virt. eigenvalues --    0.08260   0.08773   0.08988   0.09794   0.10190
  Beta virt. eigenvalues --    0.10841   0.11390   0.11722   0.11991   0.12352

 Mulliken charges and spin densities:
               1          2
     1  C   -0.345482  -0.273361
     2  C   -0.309948   0.216495
     3  C    0.104643  -0.597597
     4  C   -0.834331   0.365700
     5  C    0.936927  -0.174795
     6  C   -0.497222  -0.515182
     7  O   -0.213550   0.028862
     8  N    0.196740   0.215511
     9  C    0.183483  -0.123026
    10  O   -0.351929   0.020631
    11  N   -0.212504  -0.076812
    12  N   -0.688313  -0.260365
    13  N    0.607222   0.217088
    14  N   -0.138640   0.391831
    15  C    0.846046  -0.100326
    16  C   -0.360820   0.127666
    17  C   -0.329176   0.038535
    18  C   -0.062022  -0.144792
    19  C   -0.669495   0.088569
    20  C    0.123527  -0.035567
    21  H    0.153455   0.032068
    22  H    0.114966   0.013169
    23  H    0.084010   0.033282
    24  H    0.166520   0.032970
    25  H    0.022107   0.144157
    26  H    0.036514   0.111966
    27  H   -0.087008   0.260250
    28  H   -0.133380   0.325077
    29  H    0.169607  -0.026947
    30  H    0.004647   0.337821
    31  H    0.181355   0.020260
    32  H    0.116214   0.041995
    33  H    0.081668   0.043745
    34  H    0.034656   0.122084
    35  H    0.069513   0.099039
 Sum of Mulliken charges =  -1.00000   1.00000

 Dipole moment (field-independent basis, Debye):
    X=             -6.7936    Y=              4.8174    Z=              0.3674  Tot=              8.3363
 Quadrupole moment (field-independent basis, Debye-Ang):
   XX=           -166.9111   YY=           -158.3105   ZZ=           -147.2957
   XY=             19.7284   XZ=              4.8399   YZ=             -4.7276

 Summary of Natural Population Analysis:

                                       Natural Population
                Natural  -----------------------------------------------
    Atom  No    Charge         Core      Valence    Rydberg      Total
 -----------------------------------------------------------------------
      C    1   -0.28942      0.99966     2.28529    0.00447     3.28942
      C    2   -0.19634      0.99963     2.18890    0.00780     3.19634
      C    3   -0.19144      0.99962     2.18289    0.00893     3.19144
      C    4   -0.18823      0.99959     2.17793    0.01071     3.18823
      C    5    0.02725      0.99949     1.95814    0.01512     2.97275
      C    6    0.35489      0.99959     1.62056    0.02496     2.64511
      O    7   -0.30043      0.99987     3.29460    0.00597     4.30043
      N    8   -0.16895      0.99956     2.65864    0.01075     3.66895
      C    9    0.41190      0.99967     1.56412    0.02432     2.58810
      O   10   -0.30795      0.99987     3.30249    0.00560     4.30795
      N   11   -0.33077      0.99965     2.82051    0.01060     3.83077
      N   12   -0.13930      0.99971     2.62307    0.01652     3.63930
      N   13    0.14452      0.99971     2.34080    0.01497     3.35548
      N   14    0.06368      0.99982     2.42258    0.01392     3.43632
      C   15   -0.01018      0.99947     1.99908    0.01163     3.01018
      C   16   -0.08957      0.99951     2.08229    0.00778     3.08957
      C   17   -0.10338      0.99957     2.09413    0.00969     3.10338
      C   18   -0.10264      0.99957     2.09320    0.00987     3.10264
      C   19   -0.09347      0.99957     2.08480    0.00911     3.09347
      C   20   -0.10301      0.99951     2.09372    0.00978     3.10301
      H   21    0.10691      0.00000     0.39207    0.00101     0.39309
      H   22    0.09869      0.00000     0.40056    0.00074     0.40131
      H   23    0.08890      0.00000     0.41017    0.00092     0.41110
      H   24    0.10373      0.00000     0.39463    0.00164     0.39627
      H   25    0.09430      0.00000     0.40477    0.00093     0.40570
      H   26    0.10091      0.00000     0.39768    0.00140     0.39909
      H   27    0.09571      0.00000     0.40340    0.00089     0.40429
      H   28    0.10367      0.00000     0.39533    0.00100     0.39633
      H   29    0.10670      0.00000     0.39206    0.00124     0.39330
      H   30    0.20226      0.00000     0.29420    0.00354     0.29774
      H   31    0.11016      0.00000     0.38829    0.00155     0.38984
      H   32    0.09843      0.00000     0.40080    0.00077     0.40157
      H   33    0.09730      0.00000     0.40196    0.00074     0.40270
      H   34    0.09824      0.00000     0.40102    0.00075     0.40176
      H   35    0.10695      0.00000     0.39194    0.00112     0.39305
 =======================================================================
   * Total *    0.00000     19.99263    51.75663    0.25073    72.00000

 Normal termination of Gaussian 16 at Sun Dec 13 18:37:17 2020.
