 Gaussian 16, Revision A.03,

 -----------------------------------------------------------
 # opt freq B3LYP/6-31G(d) empiricaldispersion=gd3bj scf=xqc
 -----------------------------------------------------------

 ------------------------------
 CID_81274365_JID_5374_neutraal
 ------------------------------
 Symbolic Z-matrix:
 Charge =  0 Multiplicity = 1

 SCF Done:  E(RB3LYP) =  -615.787654922     A.U. after   15 cycles
 SCF Done:  E(RB3LYP) =  -615.790970955     A.U. after   12 cycles
 SCF Done:  E(RB3LYP) =  -615.791588853     A.U. after   12 cycles
 SCF Done:  E(RB3LYP) =  -615.792075182     A.U. after   12 cycles
 SCF Done:  E(RB3LYP) =  -615.792528955     A.U. after   12 cycles
 SCF Done:  E(RB3LYP) =  -615.792629149     A.U. after   12 cycles
 SCF Done:  E(RB3LYP) =  -615.793189993     A.U. after   11 cycles
 SCF Done:  E(RB3LYP) =  -615.793669307     A.U. after   12 cycles
 SCF Done:  E(RB3LYP) =  -615.793850709     A.U. after   11 cycles
 SCF Done:  E(RB3LYP) =  -615.794005771     A.U. after   11 cycles
 SCF Done:  E(RB3LYP) =  -615.795089448     A.U. after   12 cycles
 SCF Done:  E(RB3LYP) =  -615.795118757     A.U. after   10 cycles
 SCF Done:  E(RB3LYP) =  -615.795124697     A.U. after   10 cycles
 SCF Done:  E(RB3LYP) =  -615.795125327     A.U. after    8 cycles
 SCF Done:  E(RB3LYP) =  -615.795125554     A.U. after    8 cycles
 Optimization completed.
    -- Stationary point found.
 Normal termination of Gaussian 16 at Thu Dec 10 15:55:31 2020.

 --------------------------------------------------------------------
 #N Geom=AllCheck Guess=TCheck SCRF=Check GenChk RB3LYP/6-31G(d) Freq
 --------------------------------------------------------------------

 Structure from the checkpoint file:  "JID_5374.chk"
 ------------------------------
 CID_81274365_JID_5374_neutraal
 ------------------------------
 Charge =  0 Multiplicity = 1

 SCF Done:  E(RB3LYP) =  -615.795125554     A.U. after    1 cycles

  Exact polarizability: 239.214  11.353 139.751   1.295  -0.612  87.829
 Approx polarizability: 334.313  32.303 226.598   0.136  -2.100 128.992

                      1                      2                      3
                      A                      A                      A
 Frequencies --     32.0624                48.0840                63.7825
 Red. masses --      4.2043                 3.2435                 3.5944
 Frc consts  --      0.0025                 0.0044                 0.0086
 IR Inten    --      0.3994                 1.0401                 0.8080

                      4                      5                      6
                      A                      A                      A
 Frequencies --     88.9314                94.5371               110.1058
 Red. masses --      2.2357                 1.2672                 3.8518
 Frc consts  --      0.0104                 0.0067                 0.0275
 IR Inten    --      1.4485                 0.4577                 1.8655

                      7                      8                      9
                      A                      A                      A
 Frequencies --    134.6948               156.9327               211.1897
 Red. masses --      3.7828                 2.5991                 2.7504
 Frc consts  --      0.0404                 0.0377                 0.0723
 IR Inten    --      2.3399                 2.2119                 0.9190

                     10                     11                     12
                      A                      A                      A
 Frequencies --    217.5166               247.1102               248.8722
 Red. masses --      1.7979                 2.7319                 1.2849
 Frc consts  --      0.0501                 0.0983                 0.0469
 IR Inten    --      0.2386                 0.3533                 0.1949

                     13                     14                     15
                      A                      A                      A
 Frequencies --    254.7828               299.8063               308.6803
 Red. masses --      3.9651                 1.5731                 2.7781
 Frc consts  --      0.1517                 0.0833                 0.1560
 IR Inten    --      1.5598                 0.2182                 1.4937

                     16                     17                     18
                      A                      A                      A
 Frequencies --    391.5499               396.5657               439.9707
 Red. masses --      3.1262                 2.2744                 2.8267
 Frc consts  --      0.2824                 0.2107                 0.3224
 IR Inten    --      4.6444                 1.3114                20.2267

                     19                     20                     21
                      A                      A                      A
 Frequencies --    450.0757               470.9048               478.8771
 Red. masses --      1.5005                 4.5283                 2.8159
 Frc consts  --      0.1791                 0.5916                 0.3805
 IR Inten    --     51.6930                15.6004                43.9599

                     22                     23                     24
                      A                      A                      A
 Frequencies --    519.9746               529.9720               595.2261
 Red. masses --      6.8811                 2.8507                 3.5720
 Frc consts  --      1.0962                 0.4717                 0.7456
 IR Inten    --     23.3290                 9.6473                 8.3806

                     25                     26                     27
                      A                      A                      A
 Frequencies --    613.1146               622.9954               725.1791
 Red. masses --      3.2522                 5.1021                 3.6474
 Frc consts  --      0.7203                 1.1667                 1.1301
 IR Inten    --      4.8621                 1.6037                 0.1442

                     28                     29                     30
                      A                      A                      A
 Frequencies --    735.3825               761.0476               772.8757
 Red. masses --      5.0459                 1.8207                 2.5138
 Frc consts  --      1.6077                 0.6213                 0.8847
 IR Inten    --      3.6557                 2.0674                 4.7232

                     31                     32                     33
                      A                      A                      A
 Frequencies --    821.0401               857.9587               861.2881
 Red. masses --      1.4358                 1.5214                 1.6712
 Frc consts  --      0.5703                 0.6598                 0.7304
 IR Inten    --     18.8684                21.6749                 2.5858

                     34                     35                     36
                      A                      A                      A
 Frequencies --    881.5022               909.1223               948.5938
 Red. masses --      2.1468                 1.5292                 2.2529
 Frc consts  --      0.9828                 0.7446                 1.1944
 IR Inten    --      1.0620                 1.9311                 2.9791

                     37                     38                     39
                      A                      A                      A
 Frequencies --    951.8520               988.5124              1025.2996
 Red. masses --      1.3355                 1.9898                 1.3769
 Frc consts  --      0.7129                 1.1456                 0.8528
 IR Inten    --      0.2306                 2.0634                 2.5305

                     40                     41                     42
                      A                      A                      A
 Frequencies --   1037.2944              1065.2819              1074.7080
 Red. masses --      1.5138                 1.5777                 1.5095
 Frc consts  --      0.9596                 1.0549                 1.0272
 IR Inten    --      0.9302                 4.4376                 3.5789

                     43                     44                     45
                      A                      A                      A
 Frequencies --   1092.3235              1138.1043              1166.1533
 Red. masses --      2.5537                 2.2122                 2.0205
 Frc consts  --      1.7953                 1.6883                 1.6189
 IR Inten    --      3.7600                 8.3045                41.4432

                     46                     47                     48
                      A                      A                      A
 Frequencies --   1181.4294              1195.8188              1219.4326
 Red. masses --      2.4075                 2.1321                 1.6723
 Frc consts  --      1.9798                 1.7964                 1.4651
 IR Inten    --     23.1243                56.1748                 2.1216

                     49                     50                     51
                      A                      A                      A
 Frequencies --   1253.7079              1273.4923              1300.0811
 Red. masses --      2.3404                 1.3739                 1.4021
 Frc consts  --      2.1674                 1.3128                 1.3963
 IR Inten    --      0.7047                 0.7080                17.3861

                     52                     53                     54
                      A                      A                      A
 Frequencies --   1309.2947              1333.7840              1366.1580
 Red. masses --      1.4591                 2.2463                 1.4355
 Frc consts  --      1.4737                 2.3545                 1.5785
 IR Inten    --     62.0703                 9.3623                 0.5893

                     55                     56                     57
                      A                      A                      A
 Frequencies --   1382.0403              1387.2096              1404.6635
 Red. masses --      2.2323                 1.4899                 1.4010
 Frc consts  --      2.5121                 1.6893                 1.6286
 IR Inten    --    114.6032                26.3084                 4.2458

                     58                     59                     60
                      A                      A                      A
 Frequencies --   1417.8678              1438.3541              1445.5451
 Red. masses --      1.4785                 1.2874                 1.2920
 Frc consts  --      1.7513                 1.5693                 1.5906
 IR Inten    --      4.0585                10.3195                 6.6432

                     61                     62                     63
                      A                      A                      A
 Frequencies --   1446.1556              1457.3808              1510.1628
 Red. masses --      1.2486                 2.0344                 1.0425
 Frc consts  --      1.5385                 2.5458                 1.4008
 IR Inten    --      3.2632                 7.4252                 6.7007

                     64                     65                     66
                      A                      A                      A
 Frequencies --   1512.7889              1516.9845              1521.5546
 Red. masses --      1.0736                 1.0958                 1.1195
 Frc consts  --      1.4475                 1.4857                 1.5270
 IR Inten    --      3.9407                 3.4506                 6.9369

                     67                     68                     69
                      A                      A                      A
 Frequencies --   1524.7615              1533.8251              1535.4722
 Red. masses --      1.0873                 1.0417                 1.0590
 Frc consts  --      1.4894                 1.4440                 1.4711
 IR Inten    --      3.8806                 2.7189                 4.9053

                     70                     71                     72
                      A                      A                      A
 Frequencies --   1540.6409              1545.3853              1567.5848
 Red. masses --      1.3494                 1.7188                 2.2691
 Frc consts  --      1.8871                 2.4185                 3.2852
 IR Inten    --      8.6574                 0.8697               240.8347

                     73                     74                     75
                      A                      A                      A
 Frequencies --   1618.8562              1673.9144              2334.1657
 Red. masses --      3.9336                 5.8320                12.6725
 Frc consts  --      6.0738                 9.6280                40.6794
 IR Inten    --     13.8178               386.3551               111.7861

                     76                     77                     78
                      A                      A                      A
 Frequencies --   3014.2496              3046.4599              3048.0706
 Red. masses --      1.0659                 1.0495                 1.0445
 Frc consts  --      5.7060                 5.7386                 5.7174
 IR Inten    --     27.5636                 4.2632                23.6868

                     79                     80                     81
                      A                      A                      A
 Frequencies --   3052.4226              3054.2272              3061.4700
 Red. masses --      1.0441                 1.0367                 1.0856
 Frc consts  --      5.7317                 5.6975                 5.9948
 IR Inten    --     34.5003                14.8169                 6.2284

                     82                     83                     84
                      A                      A                      A
 Frequencies --   3070.3268              3083.8887              3109.3942
 Red. masses --      1.0952                 1.0980                 1.1005
 Frc consts  --      6.0829                 6.1524                 6.2687
 IR Inten    --     18.8542                45.7603                 9.6188

                     85                     86                     87
                      A                      A                      A
 Frequencies --   3113.1652              3118.8026              3121.1425
 Red. masses --      1.1024                 1.1014                 1.1004
 Frc consts  --      6.2952                 6.3122                 6.3160
 IR Inten    --     53.9406                54.6766                27.7657

                     88                     89                     90
                      A                      A                      A
 Frequencies --   3134.9490              3137.6406              3170.2910
 Red. masses --      1.1021                 1.1026                 1.0896
 Frc consts  --      6.3815                 6.3955                 6.4524
 IR Inten    --     31.1651                14.6770                19.0209

                     91                     92                     93
                      A                      A                      A
 Frequencies --   3207.8718              3230.5455              3579.6400
 Red. masses --      1.0890                 1.0928                 1.0754
 Frc consts  --      6.6026                 6.7196                 8.1192
 IR Inten    --      6.1898                13.2983                19.1904

 - Thermochemistry -
 -------------------
 Temperature   298.150 Kelvin.  Pressure   1.00000 Atm.
 Atom     1 has atomic number  6 and mass  12.00000

 Molecular mass:   202.14700 amu.
 Principal axes and moments of inertia in atomic units:
                           1         2         3
     Eigenvalues --  1078.262317833.126048437.48779
           X            0.99986  -0.01684  -0.00061
           Y            0.01684   0.99986   0.00154
           Z            0.00058  -0.00155   1.00000
 This molecule is an asymmetric top.
 Rotational symmetry number  1.
 Warning -- assumption of classical behavior for rotation
           may cause significant error
 Rotational temperatures (Kelvin)      0.08033     0.01106     0.01027
 Rotational constants (GHZ):           1.67375     0.23040     0.21390
 Zero-point vibrational energy     753305.9 (Joules/Mol)
                                  180.04442 (Kcal/Mol)
 Warning -- explicit consideration of  25 degrees of freedom as
           vibrations may cause significant error
 Vibrational temperatures:     46.13    69.18    91.77   127.95   136.02
          (Kelvin)            158.42   193.80   225.79   303.85   312.96
                              355.54   358.07   366.58   431.35   444.12
                              563.35   570.57   633.02   647.56   677.53
                              689.00   748.13   762.51   856.40   882.14
                              896.35  1043.37  1058.05  1094.98  1112.00
                             1181.29  1234.41  1239.20  1268.29  1308.02
                             1364.81  1369.50  1422.25  1475.18  1492.44
                             1532.70  1546.27  1571.61  1637.48  1677.83
                             1699.81  1720.52  1754.49  1803.81  1832.27
                             1870.53  1883.78  1919.02  1965.60  1988.45
                             1995.89  2021.00  2040.00  2069.47  2079.82
                             2080.70  2096.85  2172.79  2176.57  2182.60
                             2189.18  2193.79  2206.83  2209.20  2216.64
                             2223.46  2255.40  2329.17  2408.39  3358.34
                             4336.83  4383.18  4385.49  4391.76  4394.35
                             4404.77  4417.52  4437.03  4473.72  4479.15
                             4487.26  4490.63  4510.49  4514.36  4561.34
                             4615.41  4648.03  5150.30

 Zero-point correction=                           0.286919 (Hartree/Particle)
 Thermal correction to Energy=                    0.302906
 Thermal correction to Enthalpy=                  0.303850
 Thermal correction to Gibbs Free Energy=         0.243019
 Sum of electronic and zero-point Energies=           -615.508207
 Sum of electronic and thermal Energies=              -615.492220
 Sum of electronic and thermal Enthalpies=            -615.491276
 Sum of electronic and thermal Free Energies=         -615.552107

                     E (Thermal)             CV                S
                      KCal/Mol        Cal/Mol-Kelvin    Cal/Mol-Kelvin
 Total                  190.076             59.634            128.030
 Electronic               0.000              0.000              0.000
 Translational            0.889              2.981             41.816
 Rotational               0.889              2.981             32.633
 Vibrational            188.299             53.672             53.582
 Vibration     1          0.594              1.983              5.698
 Vibration     2          0.595              1.978              4.895
 Vibration     3          0.597              1.972              4.337
 Vibration     4          0.602              1.957              3.683
 Vibration     5          0.603              1.953              3.564
 Vibration     6          0.606              1.941              3.267
 Vibration     7          0.613              1.919              2.878
 Vibration     8          0.621              1.895              2.586
 Vibration     9          0.643              1.824              2.033
 Vibration    10          0.646              1.814              1.980
 Vibration    11          0.661              1.768              1.751
 Vibration    12          0.662              1.765              1.739
 Vibration    13          0.665              1.755              1.697
 Vibration    14          0.692              1.674              1.418
 Vibration    15          0.698              1.657              1.369
 Vibration    16          0.759              1.488              0.994
 Vibration    17          0.763              1.477              0.975
 Vibration    18          0.800              1.383              0.827
 Vibration    19          0.809              1.361              0.796
 Vibration    20          0.828              1.315              0.735
 Vibration    21          0.835              1.297              0.713
 Vibration    22          0.875              1.206              0.610
 Vibration    23          0.885              1.184              0.587
 Vibration    24          0.953              1.042              0.458
 Vibration    25          0.972              1.004              0.428

 Optimization completed.
    -- Stationary point found.
 Normal termination of Gaussian 16 at Thu Dec 10 16:04:38 2020.

 ----------------------------------------------------------------------
 # B3LYP/6-311++G(d,p) empiricaldispersion=gd3bj scf=xqc pop=npa geom=c
 heck
 ----------------------------------------------------------------------

 --------------------------------------
 CID_81274365_JID_5374_Energie_neutraal
 --------------------------------------
 Structure from the checkpoint file:  "JID_5374.chk"
 Charge =  0 Multiplicity = 1

 SCF Done:  E(RB3LYP) =  -615.961845100     A.U. after   15 cycles
 Normal termination of Gaussian 16 at Thu Dec 10 16:09:15 2020.

 ----------------------------------------------------------------------
 # B3LYP/6-311++G(d,p) empiricaldispersion=gd3bj scf=xqc pop=npa geom=c
 heck
 ----------------------------------------------------------------------

 ------------------------------------
 CID_81274365_JID_5374_Energie_kation
 ------------------------------------
 Structure from the checkpoint file:  "JID_5374.chk"
 Charge =  1 Multiplicity = 2

 SCF Done:  E(UB3LYP) =  -615.682491823     A.U. after   23 cycles
 Normal termination of Gaussian 16 at Thu Dec 10 16:18:02 2020.
 Gaussian 16:  ES64L-G16RevA.03 25-Dec-2016

 ----------------------------------------------------------------------
 # B3LYP/6-311++G(d,p) empiricaldispersion=gd3bj scf=xqc pop=npa geom=c
 heck
 ----------------------------------------------------------------------

 -----------------------------------
 CID_81274365_JID_5374_Energie_anion
 -----------------------------------
 Structure from the checkpoint file:  "JID_5374.chk"
 Charge = -1 Multiplicity = 2

                         Standard orientation:
 ---------------------------------------------------------------------
 Center     Atomic      Atomic             Coordinates (Angstroms)
 Number     Number       Type             X           Y           Z
 ---------------------------------------------------------------------
      1          6           0        4.939699   -1.177493   -0.815228
      2          6           0        4.825976    0.176219   -0.107600
      3          6           0        3.473264    0.872576   -0.308646
      4          6           0        2.250982    0.082518    0.181525
      5          6           0        2.321732   -0.264172    1.675268
      6          7           0        1.057470    0.860042   -0.147580
      7          6           0       -0.228312    0.368940   -0.091503
      8          6           0       -1.312116    1.274649   -0.103647
      9          6           0       -2.632287    0.851982   -0.096753
     10          6           0       -2.896486   -0.539270   -0.072415
     11          6           0       -1.828120   -1.448250   -0.056720
     12          6           0       -0.512435   -1.011927   -0.062987
     13          6           0       -4.242065   -1.013868   -0.059582
     14          7           0       -5.346036   -1.385707   -0.048762
     15          6           0       -3.766048    1.843821   -0.112800
     16          1           0        4.248537   -1.917112   -0.395368
     17          1           0        5.951666   -1.585494   -0.720815
     18          1           0        4.714775   -1.083360   -1.884565
     19          1           0        5.026318    0.050799    0.963775
     20          1           0        5.609598    0.845863   -0.483442
     21          1           0        3.491508    1.842054    0.212507
     22          1           0        3.328229    1.091094   -1.374442
     23          1           0        2.193823   -0.845633   -0.397849
     24          1           0        2.466068    0.644706    2.271944
     25          1           0        1.394973   -0.742777    2.005425
     26          1           0        3.150639   -0.946938    1.888808
     27          1           0        1.140240    1.852345    0.035899
     28          1           0       -1.100538    2.341687   -0.124651
     29          1           0       -2.041396   -2.512244   -0.035202
     30          1           0        0.289480   -1.739966   -0.048636
     31          1           0       -3.392115    2.871243   -0.126198
     32          1           0       -4.404403    1.697611   -0.991760
     33          1           0       -4.410139    1.721421    0.765493
 ---------------------------------------------------------------------

 SCF Done:  E(UB3LYP) =  -615.957266128     A.U. after   33 cycles
 SCF Done:  E(UB3LYP) =  -615.957266128     a.u. after    1 cycles

 The electronic state is 2-A.
 Alpha  occ. eigenvalues --  -14.22654 -14.19395 -10.11471 -10.11422 -10.09591
 Alpha  occ. eigenvalues --  -10.09567 -10.08745 -10.08187 -10.08038 -10.07396
 Alpha  occ. eigenvalues --  -10.07365 -10.07130 -10.07121 -10.06712 -10.06317
 Alpha  occ. eigenvalues --   -0.84575  -0.79612  -0.75941  -0.71161  -0.68036
 Alpha  occ. eigenvalues --   -0.66570  -0.63416  -0.60168  -0.59345  -0.54346
 Alpha  occ. eigenvalues --   -0.52828  -0.49559  -0.47300  -0.44290  -0.42352
 Alpha  occ. eigenvalues --   -0.40258  -0.37441  -0.36463  -0.34237  -0.33944
 Alpha  occ. eigenvalues --   -0.33473  -0.32757  -0.32503  -0.31636  -0.30867
 Alpha  occ. eigenvalues --   -0.30211  -0.28548  -0.28082  -0.27340  -0.26860
 Alpha  occ. eigenvalues --   -0.25599  -0.25406  -0.25313  -0.24296  -0.23597
 Alpha  occ. eigenvalues --   -0.23012  -0.22096  -0.19348  -0.15810  -0.10795
 Alpha  occ. eigenvalues --    0.03871
 Alpha virt. eigenvalues --    0.05766   0.06369   0.07273   0.07677   0.08053
 Alpha virt. eigenvalues --    0.08348   0.08784   0.09765   0.10373   0.10555
 Alpha virt. eigenvalues --    0.10875   0.11234   0.11943   0.12331   0.12811

  Beta  occ. eigenvalues --  -14.22617 -14.19285 -10.11465 -10.11228 -10.09581
  Beta  occ. eigenvalues --  -10.09527 -10.08672 -10.08077 -10.08039 -10.07376
  Beta  occ. eigenvalues --  -10.07343 -10.07169 -10.07148 -10.06681 -10.06280
  Beta  occ. eigenvalues --   -0.84437  -0.79445  -0.75806  -0.71081  -0.67931
  Beta  occ. eigenvalues --   -0.66437  -0.63298  -0.60136  -0.59279  -0.54194
  Beta  occ. eigenvalues --   -0.52652  -0.49458  -0.47237  -0.44212  -0.42251
  Beta  occ. eigenvalues --   -0.40192  -0.37398  -0.36378  -0.34143  -0.33821
  Beta  occ. eigenvalues --   -0.33389  -0.32705  -0.32453  -0.31584  -0.30797
  Beta  occ. eigenvalues --   -0.30151  -0.28435  -0.27844  -0.27207  -0.26794
  Beta  occ. eigenvalues --   -0.25526  -0.25247  -0.24959  -0.24203  -0.23482
  Beta  occ. eigenvalues --   -0.22966  -0.22029  -0.18887  -0.15547  -0.10385
  Beta virt. eigenvalues --    0.06229   0.06926   0.07221   0.07582   0.08169
  Beta virt. eigenvalues --    0.08225   0.08577   0.09093   0.09988   0.10624
  Beta virt. eigenvalues --    0.10853   0.11111   0.11431   0.11954   0.12322

 Mulliken charges and spin densities:
               1          2
     1  C    0.761970  -1.361652
     2  C   -0.238361  -0.068418
     3  C   -0.182918   0.027116
     4  C   -0.644692   0.418866
     5  C    0.623732  -1.200384
     6  N    0.148064   0.055828
     7  C    0.664169  -0.457210
     8  C   -0.459405  -0.072217
     9  C   -0.349212   0.233706
    10  C    1.754805   0.145286
    11  C   -0.274017   0.232529
    12  C    0.069671  -0.112158
    13  C   -1.618846  -0.238278
    14  N   -0.256632   0.058830
    15  C   -0.256121  -0.153589
    16  H   -0.186439   0.320435
    17  H   -0.330380   0.477384
    18  H    0.031754   0.104005
    19  H   -0.032751   0.182367
    20  H   -0.433240   0.599066
    21  H   -0.295436   0.423418
    22  H   -0.047523   0.210703
    23  H    0.321052  -0.174732
    24  H   -0.261341   0.438939
    25  H    0.105406   0.017449
    26  H   -0.067645   0.214188
    27  H    0.191801   0.064332
    28  H   -0.285462   0.380840
    29  H    0.146827   0.028196
    30  H    0.003081   0.136137
    31  H    0.089002   0.049052
    32  H    0.149655   0.015096
    33  H    0.159434   0.004870
 Sum of Mulliken charges =  -1.00000   1.00000

 Dipole moment (field-independent basis, Debye):
    X=             -1.9169    Y=              1.1480    Z=             -1.2028  Tot=              2.5376
 Quadrupole moment (field-independent basis, Debye-Ang):
   XX=           -223.3555   YY=           -122.6391   ZZ=           -118.4409
   XY=            -13.9694   XZ=             -1.1311   YZ=             -1.5565

 Summary of Natural Population Analysis:

                                       Natural Population
                Natural  -----------------------------------------------
    Atom  No    Charge         Core      Valence    Rydberg      Total
 -----------------------------------------------------------------------
      C    1   -0.28795      0.99967     2.28243    0.00586     3.28795
      C    2   -0.19117      0.99964     2.18353    0.00801     3.19117
      C    3   -0.18811      0.99961     2.17822    0.01029     3.18811
      C    4   -0.01050      0.99959     1.99998    0.01092     3.01050
      C    5   -0.29459      0.99964     2.28943    0.00551     3.29459
      N    6   -0.30153      0.99966     2.79129    0.01057     3.80153
      C    7    0.13855      0.99951     1.85145    0.01049     2.86145
      C    8   -0.13190      0.99949     2.12365    0.00877     3.13190
      C    9    0.02298      0.99951     1.96885    0.00866     2.97702
      C   10   -0.11477      0.99937     2.10686    0.00854     3.11477
      C   11   -0.04180      0.99955     2.03283    0.00942     3.04180
      C   12   -0.15111      0.99953     2.14361    0.00797     3.15111
      C   13    0.15276      0.99964     1.82866    0.01894     2.84724
      N   14   -0.18937      0.99979     2.67866    0.01093     3.68937
      C   15   -0.29413      0.99964     2.29015    0.00434     3.29413
      H   16    0.09552      0.00000     0.40350    0.00098     0.40448
      H   17    0.10096      0.00000     0.39796    0.00108     0.39904
      H   18    0.09540      0.00000     0.40370    0.00089     0.40460
      H   19    0.09638      0.00000     0.40206    0.00156     0.40362
      H   20    0.09777      0.00000     0.40087    0.00137     0.40223
      H   21    0.09816      0.00000     0.40019    0.00165     0.40184
      H   22    0.09898      0.00000     0.39983    0.00119     0.40102
      H   23    0.09270      0.00000     0.40487    0.00244     0.40730
      H   24    0.10013      0.00000     0.39864    0.00123     0.39987
      H   25    0.10431      0.00000     0.39466    0.00102     0.39569
      H   26    0.10138      0.00000     0.39762    0.00100     0.39862
      H   27    0.18624      0.00000     0.31107    0.00268     0.31376
      H   28    0.09708      0.00000     0.40146    0.00146     0.40292
      H   29    0.10043      0.00000     0.39879    0.00078     0.39957
      H   30    0.10257      0.00000     0.39615    0.00128     0.39743
      H   31    0.10052      0.00000     0.39873    0.00075     0.39948
      H   32    0.10690      0.00000     0.39206    0.00104     0.39310
      H   33    0.10721      0.00000     0.39178    0.00102     0.39279
 =======================================================================
   * Total *   -0.00000     14.99383    39.84354    0.16262    55.00000

 Normal termination of Gaussian 16 at Thu Dec 10 16:34:30 2020.
