 Gaussian 16, Revision A.03,

 -----------------------------------------------------------
 # opt freq B3LYP/6-31G(d) empiricaldispersion=gd3bj scf=xqc
 -----------------------------------------------------------

 -------------------------------
 CID_106409833_JID_4447_neutraal
 -------------------------------
 Symbolic Z-matrix:
 Charge =  0 Multiplicity = 1

 SCF Done:  E(RB3LYP) =  -646.816762418     A.U. after   14 cycles
 SCF Done:  E(RB3LYP) =  -646.820908055     A.U. after   13 cycles
 SCF Done:  E(RB3LYP) =  -646.820150464     A.U. after   14 cycles
 SCF Done:  E(RB3LYP) =  -646.819806671     A.U. after   12 cycles
 SCF Done:  E(RB3LYP) =  -646.818961190     A.U. after   12 cycles
 SCF Done:  E(RB3LYP) =  -646.821486514     A.U. after    9 cycles
 SCF Done:  E(RB3LYP) =  -646.824107624     A.U. after   13 cycles
 SCF Done:  E(RB3LYP) =  -646.824713212     A.U. after   12 cycles
 SCF Done:  E(RB3LYP) =  -646.824705510     A.U. after   12 cycles
 SCF Done:  E(RB3LYP) =  -646.825105955     A.U. after   11 cycles
 SCF Done:  E(RB3LYP) =  -646.825202841     A.U. after    8 cycles
 SCF Done:  E(RB3LYP) =  -646.825203043     A.U. after    9 cycles
 SCF Done:  E(RB3LYP) =  -646.825203190     A.U. after    8 cycles
 SCF Done:  E(RB3LYP) =  -646.825203286     A.U. after    8 cycles
 Optimization completed.
    -- Stationary point found.
 Normal termination of Gaussian 16 at Thu Dec 10 09:54:52 2020.

 --------------------------------------------------------------------
 #N Geom=AllCheck Guess=TCheck SCRF=Check GenChk RB3LYP/6-31G(d) Freq
 --------------------------------------------------------------------

 Structure from the checkpoint file:  "JID_4447.chk"
 -------------------------------
 CID_106409833_JID_4447_neutraal
 -------------------------------
 Charge =  0 Multiplicity = 1

 SCF Done:  E(RB3LYP) =  -646.825203286     A.U. after    1 cycles

  Exact polarizability: 124.130   4.172 118.799  -0.712   1.966 110.275
 Approx polarizability: 163.579   6.516 181.751  -6.372   4.351 181.673

                      1                      2                      3
                      A                      A                      A
 Frequencies --     22.4665                39.7448                67.6085
 Red. masses --      5.9163                 4.6255                 4.9525
 Frc consts  --      0.0018                 0.0043                 0.0133
 IR Inten    --      0.6086                 0.0818                 0.0205

                      4                      5                      6
                      A                      A                      A
 Frequencies --     80.5019               149.2104               155.7357
 Red. masses --      3.6364                 4.2734                 4.3051
 Frc consts  --      0.0139                 0.0561                 0.0615
 IR Inten    --      0.2037                 2.2614                 3.6100

                      7                      8                      9
                      A                      A                      A
 Frequencies --    193.0515               235.7621               244.6203
 Red. masses --      1.2210                 1.2661                 1.7758
 Frc consts  --      0.0268                 0.0415                 0.0626
 IR Inten    --      1.3437                 1.0732                 0.3010

                     10                     11                     12
                      A                      A                      A
 Frequencies --    267.8799               285.2908               313.0317
 Red. masses --      2.2400                 5.6798                 2.5916
 Frc consts  --      0.0947                 0.2724                 0.1496
 IR Inten    --      3.6059                 4.0853                 5.2330

                     13                     14                     15
                      A                      A                      A
 Frequencies --    336.2353               349.6355               377.8701
 Red. masses --      1.1121                 2.2838                 2.4244
 Frc consts  --      0.0741                 0.1645                 0.2040
 IR Inten    --      2.1323                 4.2703                 0.0458

                     16                     17                     18
                      A                      A                      A
 Frequencies --    391.4889               415.6733               431.9414
 Red. masses --      2.1209                 2.3843                 1.3753
 Frc consts  --      0.1915                 0.2427                 0.1512
 IR Inten    --     10.8491                 0.2632                67.6250

                     19                     20                     21
                      A                      A                      A
 Frequencies --    469.4059               535.8813               585.7588
 Red. masses --      2.0597                 2.7705                 3.7572
 Frc consts  --      0.2674                 0.4688                 0.7595
 IR Inten    --     64.5657                10.3987                46.6576

                     22                     23                     24
                      A                      A                      A
 Frequencies --    623.7183               637.3598               656.1407
 Red. masses --      4.1586                 1.5722                 3.8937
 Frc consts  --      0.9532                 0.3763                 0.9877
 IR Inten    --     10.7478               111.8662                 6.3030

                     25                     26                     27
                      A                      A                      A
 Frequencies --    680.8711               746.6051               748.3378
 Red. masses --      3.3307                 3.6138                 3.3772
 Frc consts  --      0.9097                 1.1869                 1.1143
 IR Inten    --      1.0022                64.4535                30.2407

                     28                     29                     30
                      A                      A                      A
 Frequencies --    852.8600               874.8555               886.7020
 Red. masses --      2.4231                 8.6637                 1.4782
 Frc consts  --      1.0384                 3.9068                 0.6848
 IR Inten    --      0.8399                27.3214                 4.9738

                     31                     32                     33
                      A                      A                      A
 Frequencies --    908.6793               949.2545               950.1637
 Red. masses --      2.1136                 1.7513                 1.7480
 Frc consts  --      1.0282                 0.9298                 0.9298
 IR Inten    --     13.9218                 0.6608                 1.7991

                     34                     35                     36
                      A                      A                      A
 Frequencies --    969.0719               976.6119               980.6085
 Red. masses --      3.1353                 1.2086                 7.1292
 Frc consts  --      1.7348                 0.6792                 4.0391
 IR Inten    --      0.5794                 0.6837                 2.2633

                     37                     38                     39
                      A                      A                      A
 Frequencies --   1010.5824              1031.0399              1059.4208
 Red. masses --      3.3920                 2.3581                 1.3752
 Frc consts  --      2.0410                 1.4770                 0.9094
 IR Inten    --      9.2763                13.0532                 2.5472

                     40                     41                     42
                      A                      A                      A
 Frequencies --   1066.3042              1085.0783              1155.4124
 Red. masses --      1.4148                 2.2666                 2.9523
 Frc consts  --      0.9478                 1.5723                 2.3222
 IR Inten    --      1.3319                 4.8021                31.8211

                     43                     44                     45
                      A                      A                      A
 Frequencies --   1209.8662              1218.8975              1244.6479
 Red. masses --      2.2513                 1.3358                 2.4299
 Frc consts  --      1.9416                 1.1693                 2.2178
 IR Inten    --     11.2100                 5.6924                 9.5125

                     46                     47                     48
                      A                      A                      A
 Frequencies --   1247.0396              1258.6797              1278.0327
 Red. masses --      2.2556                 2.0240                 1.4117
 Frc consts  --      2.0666                 1.8893                 1.3585
 IR Inten    --     11.7478                15.8881                 9.4577

                     49                     50                     51
                      A                      A                      A
 Frequencies --   1304.8450              1352.2364              1358.5575
 Red. masses --      1.6931                 2.7174                 2.1056
 Frc consts  --      1.6984                 2.9276                 2.2897
 IR Inten    --      1.8316                92.3388                31.3579

                     52                     53                     54
                      A                      A                      A
 Frequencies --   1387.3354              1411.7971              1428.9678
 Red. masses --      2.1015                 1.5957                 1.2242
 Frc consts  --      2.3831                 1.8739                 1.4728
 IR Inten    --     15.2951                30.0267                 0.8210

                     55                     56                     57
                      A                      A                      A
 Frequencies --   1433.6077              1466.8241              1490.1428
 Red. masses --      1.2060                 1.2238                 1.1450
 Frc consts  --      1.4603                 1.5514                 1.4980
 IR Inten    --      8.2297                 6.9925                 8.4654

                     58                     59                     60
                      A                      A                      A
 Frequencies --   1509.0182              1519.4830              1523.7177
 Red. masses --      1.0753                 1.0754                 1.0504
 Frc consts  --      1.4426                 1.4628                 1.4368
 IR Inten    --      5.1219                 3.2220                 1.8336

                     61                     62                     63
                      A                      A                      A
 Frequencies --   1527.4154              1537.2043              1540.5806
 Red. masses --      1.1462                 2.0295                 1.1735
 Frc consts  --      1.5755                 2.8255                 1.6410
 IR Inten    --      4.9690                 8.7389                 3.5213

                     64                     65                     66
                      A                      A                      A
 Frequencies --   1546.0326              1556.7261              1617.0912
 Red. masses --      1.2455                 1.0644                 7.1866
 Frc consts  --      1.7540                 1.5197                11.0725
 IR Inten    --      3.8160                19.8182                67.5703

                     67                     68                     69
                      A                      A                      A
 Frequencies --   1656.3437              1740.3579              3017.8594
 Red. masses --      1.2350                 6.4025                 1.0655
 Frc consts  --      1.9963                11.4255                 5.7173
 IR Inten    --     73.6692               305.4697                45.8555

                     70                     71                     72
                      A                      A                      A
 Frequencies --   3042.0373              3049.4511              3056.8982
 Red. masses --      1.0393                 1.0408                 1.0419
 Frc consts  --      5.6668                 5.7024                 5.7363
 IR Inten    --     18.1683                30.7390                22.2057

                     73                     74                     75
                      A                      A                      A
 Frequencies --   3064.4484              3074.4062              3102.1732
 Red. masses --      1.0655                 1.0947                 1.0998
 Frc consts  --      5.8951                 6.0962                 6.2356
 IR Inten    --     26.1177                37.3887                 0.9483

                     76                     77                     78
                      A                      A                      A
 Frequencies --   3108.1509              3115.5688              3134.7136
 Red. masses --      1.1001                 1.1015                 1.1023
 Frc consts  --      6.2618                 6.2994                 6.3821
 IR Inten    --     58.7511                28.6735                25.4027

                     79                     80                     81
                      A                      A                      A
 Frequencies --   3138.6654              3167.2314              3172.8753
 Red. masses --      1.0981                 1.0960                 1.0949
 Frc consts  --      6.3737                 6.4776                 6.4942
 IR Inten    --     10.7717                12.9867                15.7714

                     82                     83                     84
                      A                      A                      A
 Frequencies --   3284.9303              3560.3259              3679.8604
 Red. masses --      1.0995                 1.0482                 1.0976
 Frc consts  --      6.9904                 7.8282                 8.7573
 IR Inten    --      0.8210                10.6050                13.8299

 - Thermochemistry -
 -------------------
 Temperature   298.150 Kelvin.  Pressure   1.00000 Atm.
 Atom     1 has atomic number  6 and mass  12.00000

 Molecular mass:   196.13241 amu.
 Principal axes and moments of inertia in atomic units:
                           1         2         3
     Eigenvalues --  1557.593424364.431714578.10928
           X            0.99981   0.01966   0.00109
           Y           -0.01969   0.99803   0.05950
           Z            0.00009  -0.05951   0.99823
 This molecule is an asymmetric top.
 Rotational symmetry number  1.
 Warning -- assumption of classical behavior for rotation
           may cause significant error
 Rotational temperatures (Kelvin)      0.05561     0.01985     0.01892
 Rotational constants (GHZ):           1.15867     0.41351     0.39421
 Zero-point vibrational energy     675492.4 (Joules/Mol)
                                  161.44657 (Kcal/Mol)
 Warning -- explicit consideration of  21 degrees of freedom as
           vibrations may cause significant error
 Vibrational temperatures:     32.32    57.18    97.27   115.82   214.68
          (Kelvin)            224.07   277.76   339.21   351.95   385.42
                              410.47   450.38   483.77   503.05   543.67
                              563.27   598.06   621.47   675.37   771.01
                              842.78   897.39   917.02   944.04   979.62
                             1074.20  1076.69  1227.08  1258.72  1275.77
                             1307.39  1365.77  1367.07  1394.28  1405.13
                             1410.88  1454.00  1483.44  1524.27  1534.17
                             1561.19  1662.38  1740.73  1753.72  1790.77
                             1794.21  1810.96  1838.80  1877.38  1945.57
                             1954.66  1996.07  2031.26  2055.97  2062.64
                             2110.43  2143.98  2171.14  2186.20  2192.29
                             2197.61  2211.69  2216.55  2224.40  2239.78
                             2326.63  2383.11  2503.99  4342.03  4376.81
                             4387.48  4398.19  4409.06  4423.38  4463.34
                             4471.94  4482.61  4510.15  4515.84  4556.94
                             4565.06  4726.28  5122.51  5294.50

 Zero-point correction=                           0.257281 (Hartree/Particle)
 Thermal correction to Energy=                    0.271708
 Thermal correction to Enthalpy=                  0.272652
 Thermal correction to Gibbs Free Energy=         0.215213
 Sum of electronic and zero-point Energies=           -646.567922
 Sum of electronic and thermal Energies=              -646.553495
 Sum of electronic and thermal Enthalpies=            -646.552551
 Sum of electronic and thermal Free Energies=         -646.609991

                     E (Thermal)             CV                S
                      KCal/Mol        Cal/Mol-Kelvin    Cal/Mol-Kelvin
 Total                  170.499             54.673            120.891
 Electronic               0.000              0.000              0.000
 Translational            0.889              2.981             41.726
 Rotational               0.889              2.981             31.809
 Vibrational            168.722             48.711             47.356
 Vibration     1          0.593              1.985              6.403
 Vibration     2          0.594              1.981              5.272
 Vibration     3          0.598              1.970              4.222
 Vibration     4          0.600              1.962              3.879
 Vibration     5          0.618              1.904              2.682
 Vibration     6          0.620              1.896              2.601
 Vibration     7          0.635              1.850              2.198
 Vibration     8          0.655              1.786              1.835
 Vibration     9          0.660              1.772              1.769
 Vibration    10          0.673              1.732              1.610
 Vibration    11          0.683              1.701              1.502
 Vibration    12          0.701              1.649              1.346
 Vibration    13          0.717              1.603              1.230
 Vibration    14          0.727              1.576              1.168
 Vibration    15          0.748              1.517              1.048
 Vibration    16          0.759              1.488              0.994
 Vibration    17          0.779              1.436              0.907
 Vibration    18          0.793              1.401              0.852
 Vibration    19          0.827              1.318              0.739
 Vibration    20          0.891              1.171              0.574
 Vibration    21          0.943              1.062              0.475

 Optimization completed.
    -- Stationary point found.
 Normal termination of Gaussian 16 at Thu Dec 10 10:04:31 2020.

 ----------------------------------------------------------------------
 # B3LYP/6-311++G(d,p) empiricaldispersion=gd3bj scf=xqc pop=npa geom=c
 heck
 ----------------------------------------------------------------------

 ---------------------------------------
 CID_106409833_JID_4447_Energie_neutraal
 ---------------------------------------
 Structure from the checkpoint file:  "JID_4447.chk"
 Charge =  0 Multiplicity = 1

 SCF Done:  E(RB3LYP) =  -647.010050346     A.U. after   14 cycles
 Normal termination of Gaussian 16 at Thu Dec 10 10:08:48 2020.

 ----------------------------------------------------------------------
 # B3LYP/6-311++G(d,p) empiricaldispersion=gd3bj scf=xqc pop=npa geom=c
 heck
 ----------------------------------------------------------------------

 -------------------------------------
 CID_106409833_JID_4447_Energie_kation
 -------------------------------------
 Structure from the checkpoint file:  "JID_4447.chk"
 Charge =  1 Multiplicity = 2

 SCF Done:  E(UB3LYP) =  -646.702149501     A.U. after   33 cycles
 SCF Done:  E(UB3LYP) =  -646.702149501     a.u. after    2 cycles
 Normal termination of Gaussian 16 at Thu Dec 10 10:33:21 2020.
 Gaussian 16:  ES64L-G16RevA.03 25-Dec-2016

 ----------------------------------------------------------------------
 # B3LYP/6-311++G(d,p) empiricaldispersion=gd3bj scf=xqc pop=npa geom=c
 heck
 ----------------------------------------------------------------------

 ------------------------------------
 CID_106409833_JID_4447_Energie_anion
 ------------------------------------
 Structure from the checkpoint file:  "JID_4447.chk"
 Charge = -1 Multiplicity = 2

                         Standard orientation:
 ---------------------------------------------------------------------
 Center     Atomic      Atomic             Coordinates (Angstroms)
 Number     Number       Type             X           Y           Z
 ---------------------------------------------------------------------
      1          6           0        2.819750   -0.471170   -1.363146
      2          6           0        2.202187    0.425193   -0.268317
      3          6           0        3.366338    1.204896    0.379327
      4          6           0        1.231976    1.462341   -0.873820
      5          6           0        1.445003   -0.457998    0.756278
      6          7           0        0.484812   -1.283899    0.563485
      7          6           0       -0.105606   -1.632559   -0.704789
      8          6           0       -1.627904   -1.780064   -0.519024
      9          6           0       -2.261474   -0.471550   -0.181787
     10          7           0       -2.911804   -0.255542    0.933747
     11          8           0       -3.306324    1.100242    0.827493
     12          6           0       -2.835043    1.528208   -0.347268
     13          7           0       -2.189280    0.631262   -1.023726
     14          7           0        1.918036   -0.386619    2.062080
     15          1           0        3.389438    0.146683   -2.067181
     16          1           0        2.070338   -1.020371   -1.934254
     17          1           0        3.506634   -1.200331   -0.919698
     18          1           0        3.903640    1.758638   -0.398017
     19          1           0        3.013884    1.946992    1.106701
     20          1           0        4.078231    0.538170    0.874716
     21          1           0        0.377913    1.014937   -1.383229
     22          1           0        0.834886    2.115970   -0.088243
     23          1           0        1.768942    2.091631   -1.593783
     24          1           0        0.069032   -0.928315   -1.525871
     25          1           0        0.285642   -2.607369   -1.030966
     26          1           0       -2.073864   -2.159154   -1.446879
     27          1           0       -1.833432   -2.489793    0.285831
     28          1           0       -3.034679    2.556753   -0.615941
     29          1           0        2.275053    0.500058    2.386888
     30          1           0        1.295235   -0.846618    2.716155
 ---------------------------------------------------------------------

 SCF Done:  E(UB3LYP) =  -646.997351507     A.U. after   33 cycles
 SCF Done:  E(UB3LYP) =  -646.997351507     a.u. after    1 cycles

 The electronic state is 2-A.
 Alpha  occ. eigenvalues --  -19.10914 -14.25399 -14.21620 -14.21299 -14.17497
 Alpha  occ. eigenvalues --  -10.16279 -10.13876 -10.13218 -10.09635 -10.09537
 Alpha  occ. eigenvalues --  -10.08073 -10.06209 -10.05961 -10.05653  -1.05614
 Alpha  occ. eigenvalues --   -0.84741  -0.83436  -0.76971  -0.75906  -0.71346
 Alpha  occ. eigenvalues --   -0.66321  -0.59063  -0.58551  -0.56547  -0.53833
 Alpha  occ. eigenvalues --   -0.50912  -0.48865  -0.43854  -0.42319  -0.41288
 Alpha  occ. eigenvalues --   -0.39402  -0.38521  -0.35577  -0.34897  -0.34429
 Alpha  occ. eigenvalues --   -0.34000  -0.32580  -0.30901  -0.29414  -0.28743
 Alpha  occ. eigenvalues --   -0.27883  -0.26820  -0.26692  -0.26281  -0.25250
 Alpha  occ. eigenvalues --   -0.23918  -0.23032  -0.22878  -0.21851  -0.19612
 Alpha  occ. eigenvalues --   -0.18786  -0.13741  -0.13027   0.04530
 Alpha virt. eigenvalues --    0.06173   0.06917   0.07316   0.07748   0.09142
 Alpha virt. eigenvalues --    0.09849   0.10157   0.10403   0.10935   0.11574
 Alpha virt. eigenvalues --    0.12225   0.12673   0.12949   0.13101   0.13661

  Beta  occ. eigenvalues --  -19.10792 -14.25265 -14.21632 -14.21273 -14.17491
  Beta  occ. eigenvalues --  -10.16134 -10.13869 -10.13191 -10.09631 -10.09524
  Beta  occ. eigenvalues --  -10.08074 -10.06182 -10.05916 -10.05635  -1.05413
  Beta  occ. eigenvalues --   -0.84717  -0.83345  -0.76854  -0.75785  -0.71321
  Beta  occ. eigenvalues --   -0.66272  -0.59015  -0.58482  -0.56492  -0.53608
  Beta  occ. eigenvalues --   -0.50838  -0.48784  -0.43786  -0.42215  -0.41239
  Beta  occ. eigenvalues --   -0.39270  -0.38148  -0.35523  -0.34802  -0.34375
  Beta  occ. eigenvalues --   -0.33929  -0.32523  -0.30840  -0.29359  -0.28699
  Beta  occ. eigenvalues --   -0.27834  -0.26787  -0.26661  -0.26241  -0.25201
  Beta  occ. eigenvalues --   -0.23777  -0.22952  -0.22813  -0.21583  -0.19539
  Beta  occ. eigenvalues --   -0.18090  -0.13702  -0.13000
  Beta virt. eigenvalues --    0.06858   0.07392   0.07785   0.08167   0.08315
  Beta virt. eigenvalues --    0.09554   0.10286   0.10404   0.10746   0.11065
  Beta virt. eigenvalues --    0.11941   0.12469   0.12757   0.13211   0.13458

 Mulliken charges and spin densities:
               1          2
     1  C    0.519659  -0.966267
     2  C   -1.090465   1.872856
     3  C    1.607757  -2.215632
     4  C   -0.622224  -0.057052
     5  C    0.390119  -0.955577
     6  N    0.025299  -0.022152
     7  C   -0.032191  -0.102447
     8  C    0.407895  -1.189843
     9  C   -0.585993   0.253535
    10  N   -0.140954   0.127395
    11  O    0.087813   0.006320
    12  C    0.245908   0.018498
    13  N   -0.030283   0.017856
    14  N   -0.417295   0.175820
    15  H   -0.154405   0.305396
    16  H   -0.115846   0.246421
    17  H   -0.042780   0.201074
    18  H   -0.159091   0.306637
    19  H   -0.550436   0.686417
    20  H   -0.235596   0.401598
    21  H    0.180383  -0.051351
    22  H    0.119794   0.058183
    23  H   -0.153087   0.301296
    24  H    0.146445  -0.030701
    25  H   -0.051511   0.243630
    26  H    0.033376   0.116616
    27  H    0.152128   0.029775
    28  H   -0.651105   0.828516
    29  H   -0.098520   0.349276
    30  H    0.215206   0.043906
 Sum of Mulliken charges =  -1.00000   1.00000

 Dipole moment (field-independent basis, Debye):
    X=             -2.3927    Y=             -2.7855    Z=             -0.9069  Tot=              3.7824
 Quadrupole moment (field-independent basis, Debye-Ang):
   XX=           -157.3105   YY=           -123.4727   ZZ=           -120.1063
   XY=             -2.9345   XZ=             -0.9020   YZ=             -0.4620

 Summary of Natural Population Analysis:

                                       Natural Population
                Natural  -----------------------------------------------
    Atom  No    Charge         Core      Valence    Rydberg      Total
 -----------------------------------------------------------------------
      C    1   -0.28067      0.99963     2.27401    0.00704     3.28067
      C    2   -0.07140      0.99955     2.06018    0.01166     3.07140
      C    3   -0.28970      0.99964     2.28200    0.00806     3.28970
      C    4   -0.28317      0.99962     2.27634    0.00721     3.28317
      C    5    0.24561      0.99953     1.73642    0.01845     2.75439
      N    6   -0.29339      0.99961     2.78169    0.01209     3.79339
      C    7   -0.09373      0.99960     2.08307    0.01107     3.09373
      C    8   -0.20880      0.99957     2.19995    0.00927     3.20880
      C    9    0.17865      0.99964     1.80299    0.01871     2.82135
      N   10   -0.07425      0.99966     2.56217    0.01241     3.57425
      O   11   -0.16051      0.99987     3.15252    0.00813     4.16051
      C   12    0.21881      0.99967     1.76209    0.01943     2.78119
      N   13   -0.27699      0.99970     2.76674    0.01055     3.77699
      N   14   -0.39921      0.99971     2.89015    0.00935     3.89921
      H   15    0.09965      0.00000     0.39937    0.00098     0.40035
      H   16    0.10183      0.00000     0.39687    0.00130     0.39817
      H   17    0.10166      0.00000     0.39727    0.00107     0.39834
      H   18    0.10370      0.00000     0.39490    0.00140     0.39630
      H   19    0.10002      0.00000     0.39779    0.00219     0.39998
      H   20    0.10499      0.00000     0.39349    0.00152     0.39501
      H   21    0.10955      0.00000     0.38871    0.00174     0.39045
      H   22    0.10040      0.00000     0.39806    0.00154     0.39960
      H   23    0.09778      0.00000     0.40114    0.00109     0.40222
      H   24    0.08754      0.00000     0.41008    0.00238     0.41246
      H   25    0.09330      0.00000     0.40534    0.00136     0.40670
      H   26    0.10558      0.00000     0.39334    0.00108     0.39442
      H   27    0.11086      0.00000     0.38767    0.00147     0.38914
      H   28    0.09199      0.00000     0.40639    0.00163     0.40801
      H   29    0.19004      0.00000     0.30759    0.00238     0.30996
      H   30    0.18986      0.00000     0.30789    0.00225     0.31014
 =======================================================================
   * Total *   -0.00000     13.99500    38.81622    0.18878    53.00000

 Normal termination of Gaussian 16 at Thu Dec 10 10:47:52 2020.
