 Gaussian 16, Revision A.03,

 ----------------------------------------------------------------------
 # opt=(cartesian,calcfc) freq B3LYP/6-31G(d) empiricaldispersion=gd3bj
  scf=xqc
 ----------------------------------------------------------------------

 -------------------------------
 CID_113491252_JID_9920_neutraal
 -------------------------------
 Symbolic Z-matrix:
 Charge =  0 Multiplicity = 1

 SCF Done:  E(RB3LYP) =  -919.128752004     A.U. after   14 cycles
 SCF Done:  E(RB3LYP) =  -919.128761241     A.U. after   10 cycles
 SCF Done:  E(RB3LYP) =  -919.128761457     A.U. after    7 cycles
 Optimization completed.
    -- Stationary point found.
 Normal termination of Gaussian 16 at Mon Jan  4 10:44:01 2021.

 --------------------------------------------------------------------
 #N Geom=AllCheck Guess=TCheck SCRF=Check GenChk RB3LYP/6-31G(d) Freq
 --------------------------------------------------------------------

 Structure from the checkpoint file:  "JID_9920.chk"
 -------------------------------
 CID_113491252_JID_9920_neutraal
 -------------------------------
 Charge =  0 Multiplicity = 1

 SCF Done:  E(RB3LYP) =  -919.128761457     A.U. after    1 cycles

  Exact polarizability: 185.234   1.719 142.211  -1.621  -3.429 135.559
 Approx polarizability: 224.556   5.892 220.068  -7.194  -6.642 210.114

                      1                      2                      3
                      A                      A                      A
 Frequencies --     19.0384                29.9476                35.0399
 Red. masses --      5.9782                 3.6428                10.7805
 Frc consts  --      0.0013                 0.0019                 0.0078
 IR Inten    --      0.1503                 0.2306                 0.8377

                      4                      5                      6
                      A                      A                      A
 Frequencies --     63.5169                70.5721                80.8568
 Red. masses --      5.0936                 3.2178                 6.0289
 Frc consts  --      0.0121                 0.0094                 0.0232
 IR Inten    --      1.7583                 0.6436                 2.9404

                      7                      8                      9
                      A                      A                      A
 Frequencies --    127.5199               157.1793               172.4677
 Red. masses --      4.0626                 4.8373                 4.0177
 Frc consts  --      0.0389                 0.0704                 0.0704
 IR Inten    --      4.3947                 2.3446                 3.6837

                     10                     11                     12
                      A                      A                      A
 Frequencies --    190.0248               214.4005               230.4724
 Red. masses --      4.4899                 4.0103                 2.2985
 Frc consts  --      0.0955                 0.1086                 0.0719
 IR Inten    --      1.7735                 2.6928                 0.1401

                     13                     14                     15
                      A                      A                      A
 Frequencies --    249.7270               262.3999               308.3436
 Red. masses --      2.2774                 2.2890                 1.3347
 Frc consts  --      0.0837                 0.0929                 0.0748
 IR Inten    --      1.5348                 3.3489                 1.5967

                     16                     17                     18
                      A                      A                      A
 Frequencies --    324.3701               341.5962               347.6327
 Red. masses --      2.2428                 2.6069                 2.9890
 Frc consts  --      0.1390                 0.1792                 0.2128
 IR Inten    --      5.0898                 0.7703                 5.3750

                     19                     20                     21
                      A                      A                      A
 Frequencies --    374.4643               406.8972               427.8225
 Red. masses --      2.4224                 2.0257                 2.4608
 Frc consts  --      0.2001                 0.1976                 0.2654
 IR Inten    --      3.3570                 0.8997                 7.5475

                     22                     23                     24
                      A                      A                      A
 Frequencies --    453.8011               478.3938               490.3197
 Red. masses --      2.9275                 3.0192                 3.1435
 Frc consts  --      0.3552                 0.4071                 0.4453
 IR Inten    --      3.0484                24.2191                 1.0009

                     25                     26                     27
                      A                      A                      A
 Frequencies --    508.4615               521.9278               579.6301
 Red. masses --      4.0310                 1.7393                 3.6466
 Frc consts  --      0.6140                 0.2791                 0.7218
 IR Inten    --     13.3089                15.1762                14.6723

                     28                     29                     30
                      A                      A                      A
 Frequencies --    591.5907               631.0190               663.2825
 Red. masses --      2.8441                 3.9319                 2.2540
 Frc consts  --      0.5865                 0.9224                 0.5842
 IR Inten    --      9.3438                24.0800                12.5444

                     31                     32                     33
                      A                      A                      A
 Frequencies --    680.9974               695.6808               724.0013
 Red. masses --      1.8699                 2.0393                 3.5881
 Frc consts  --      0.5109                 0.5815                 1.1081
 IR Inten    --     47.8474                50.2603                13.9423

                     34                     35                     36
                      A                      A                      A
 Frequencies --    797.7297               815.4206               836.5213
 Red. masses --      3.5756                 2.4003                 2.4341
 Frc consts  --      1.3406                 0.9403                 1.0035
 IR Inten    --      7.2020                 0.5640                 4.7867

                     37                     38                     39
                      A                      A                      A
 Frequencies --    847.9412               863.6064               884.1752
 Red. masses --      2.6308                 2.9719                 2.2376
 Frc consts  --      1.1145                 1.3059                 1.0306
 IR Inten    --      1.4674                19.4243                32.9189

                     40                     41                     42
                      A                      A                      A
 Frequencies --    890.0400               910.5148               920.9401
 Red. masses --      2.7172                 2.0608                 2.0681
 Frc consts  --      1.2682                 1.0066                 1.0334
 IR Inten    --     13.6769                17.5636                 1.1798

                     43                     44                     45
                      A                      A                      A
 Frequencies --    947.9000               952.9952               965.3316
 Red. masses --      1.9463                 2.0772                 2.0914
 Frc consts  --      1.0303                 1.1115                 1.1483
 IR Inten    --      2.5480                10.3623                 5.9049

                     46                     47                     48
                      A                      A                      A
 Frequencies --   1005.1532              1007.1582              1016.6994
 Red. masses --      1.5246                 1.7888                 2.0327
 Frc consts  --      0.9076                 1.0691                 1.2380
 IR Inten    --      1.1827                 1.9172                 3.3212

                     49                     50                     51
                      A                      A                      A
 Frequencies --   1030.3866              1033.7051              1053.6601
 Red. masses --      1.8826                 2.1411                 2.0035
 Frc consts  --      1.1776                 1.3480                 1.3105
 IR Inten    --     21.2281                12.2855                21.5464

                     52                     53                     54
                      A                      A                      A
 Frequencies --   1072.8782              1091.3974              1102.4833
 Red. masses --      1.7536                 2.7550                 1.8276
 Frc consts  --      1.1893                 1.9335                 1.3088
 IR Inten    --      9.4293                25.8360                25.7431

                     55                     56                     57
                      A                      A                      A
 Frequencies --   1143.2424              1148.4557              1169.0393
 Red. masses --      1.9106                 4.5476                 1.9730
 Frc consts  --      1.4713                 3.5340                 1.5887
 IR Inten    --     42.2797                61.5852                26.1072

                     58                     59                     60
                      A                      A                      A
 Frequencies --   1170.8144              1199.9483              1205.2343
 Red. masses --      2.0920                 1.6728                 1.4049
 Frc consts  --      1.6896                 1.4192                 1.2024
 IR Inten    --    173.7411                86.4484                 6.2057

                     61                     62                     63
                      A                      A                      A
 Frequencies --   1215.0410              1215.2067              1218.5894
 Red. masses --      1.9814                 2.5364                 1.9347
 Frc consts  --      1.7235                 2.2069                 1.6927
 IR Inten    --      9.1432                59.0465                47.2432

                     64                     65                     66
                      A                      A                      A
 Frequencies --   1251.4095              1260.5124              1269.4193
 Red. masses --      1.3997                 1.4264                 1.3029
 Frc consts  --      1.2914                 1.3353                 1.2370
 IR Inten    --     19.9134                38.3858                23.7958

                     67                     68                     69
                      A                      A                      A
 Frequencies --   1293.3020              1300.3954              1322.7420
 Red. masses --      1.5364                 1.3891                 1.5376
 Frc consts  --      1.5141                 1.3840                 1.5850
 IR Inten    --      0.1777                 9.1645                40.1203

                     70                     71                     72
                      A                      A                      A
 Frequencies --   1333.7608              1335.3751              1339.6846
 Red. masses --      1.4668                 1.2679                 1.4009
 Frc consts  --      1.5374                 1.3322                 1.4814
 IR Inten    --      1.1418                20.6314                 4.0683

                     73                     74                     75
                      A                      A                      A
 Frequencies --   1377.9262              1381.2155              1384.5332
 Red. masses --      1.3864                 1.5178                 1.4750
 Frc consts  --      1.5509                 1.7060                 1.6659
 IR Inten    --      2.4133                 6.4798                 1.4884

                     76                     77                     78
                      A                      A                      A
 Frequencies --   1397.5579              1402.5371              1403.7695
 Red. masses --      1.6155                 1.2496                 1.5675
 Frc consts  --      1.8590                 1.4483                 1.8199
 IR Inten    --    137.3128                13.4349                29.0779

                     79                     80                     81
                      A                      A                      A
 Frequencies --   1422.0796              1440.8597              1442.3794
 Red. masses --      1.6678                 1.9058                 1.5565
 Frc consts  --      1.9872                 2.3311                 1.9079
 IR Inten    --    239.6609                98.4743                51.5363

                     82                     83                     84
                      A                      A                      A
 Frequencies --   1451.5640              1489.6775              1494.6498
 Red. masses --      1.7726                 1.0884                 1.0929
 Frc consts  --      2.2006                 1.4230                 1.4385
 IR Inten    --     62.4372                15.3269                 2.9952

                     85                     86                     87
                      A                      A                      A
 Frequencies --   1499.6639              1515.8450              1520.6220
 Red. masses --      1.2334                 1.2252                 1.0682
 Frc consts  --      1.6343                 1.6587                 1.4553
 IR Inten    --      1.5357                 4.1455                 1.2705

                     88                     89                     90
                      A                      A                      A
 Frequencies --   1527.0004              1536.0937              1538.1491
 Red. masses --      1.0916                 1.0830                 1.0747
 Frc consts  --      1.4997                 1.5056                 1.4981
 IR Inten    --      5.6909                 0.9799                 1.1786

                     91                     92                     93
                      A                      A                      A
 Frequencies --   1547.3565              1548.6360              1566.3130
 Red. masses --      1.0739                 1.0808                 1.0923
 Frc consts  --      1.5150                 1.5272                 1.5789
 IR Inten    --     14.5924                 5.9785                 4.5113

                     94                     95                     96
                      A                      A                      A
 Frequencies --   1761.0855              1844.2261              2984.3727
 Red. masses --      7.6393                 9.5954                 1.0721
 Frc consts  --     13.9593                19.2283                 5.6257
 IR Inten    --    332.0232               233.4356                22.0367

                     97                     98                     99
                      A                      A                      A
 Frequencies --   2990.3555              3041.1508              3053.1971
 Red. masses --      1.0722                 1.0620                 1.0639
 Frc consts  --      5.6489                 5.7871                 5.8431
 IR Inten    --     80.2475                23.8696                 6.0571

                    100                    101                    102
                      A                      A                      A
 Frequencies --   3056.3206              3057.9110              3063.9220
 Red. masses --      1.0651                 1.0633                 1.0612
 Frc consts  --      5.8617                 5.8583                 5.8695
 IR Inten    --      8.2056                46.8290                14.6065

                    103                    104                    105
                      A                      A                      A
 Frequencies --   3072.5810              3075.8946              3088.8883
 Red. masses --      1.0398                 1.0645                 1.0955
 Frc consts  --      5.7838                 5.9336                 6.1587
 IR Inten    --     15.7693                25.8404                 1.6616

                    106                    107                    108
                      A                      A                      A
 Frequencies --   3092.1197              3099.4896              3099.7557
 Red. masses --      1.1007                 1.1054                 1.1035
 Frc consts  --      6.2007                 6.2565                 6.2473
 IR Inten    --     32.9870                 5.1371                45.3652

                    109                    110                    111
                      A                      A                      A
 Frequencies --   3108.5087              3111.2641              3113.7609
 Red. masses --      1.0924                 1.0939                 1.0878
 Frc consts  --      6.2190                 6.2387                 6.2139
 IR Inten    --     42.2730                49.1927                29.8122

                    112                    113                    114
                      A                      A                      A
 Frequencies --   3137.1254              3143.0752              3144.7989
 Red. masses --      1.0941                 1.1009                 1.1013
 Frc consts  --      6.3439                 6.4079                 6.4172
 IR Inten    --      9.9075                24.1220                26.3822

                    115                    116                    117
                      A                      A                      A
 Frequencies --   3145.7351              3491.3990              3683.2819
 Red. masses --      1.1025                 1.0725                 1.0640
 Frc consts  --      6.4282                 7.7030                 8.5045
 IR Inten    --     19.8339                 2.3570                49.3885

 - Thermochemistry -
 -------------------
 Temperature   298.150 Kelvin.  Pressure   1.00000 Atm.
 Atom     1 has atomic number  6 and mass  12.00000

 Molecular mass:   270.15796 amu.
 Principal axes and moments of inertia in atomic units:
                           1         2         3
     Eigenvalues --  2286.92326********************
           X            0.99996  -0.00859   0.00206
           Y            0.00858   0.99996   0.00188
           Z           -0.00207  -0.00186   1.00000
 This molecule is an asymmetric top.
 Rotational symmetry number  1.
 Warning -- assumption of classical behavior for rotation
           may cause significant error
 Rotational temperatures (Kelvin)      0.03787     0.00766     0.00716
 Rotational constants (GHZ):           0.78916     0.15957     0.14910
 Zero-point vibrational energy     940509.2 (Joules/Mol)
                                  224.78709 (Kcal/Mol)
 Warning -- explicit consideration of  28 degrees of freedom as
           vibrations may cause significant error
 Vibrational temperatures:     27.39    43.09    50.41    91.39   101.54
          (Kelvin)            116.33   183.47   226.15   248.14   273.40
                              308.47   331.60   359.30   377.53   443.64
                              466.70   491.48   500.17   538.77   585.43
                              615.54   652.92   688.30   705.46   731.56
                              750.94   833.96   851.17   907.90   954.32
                              979.80  1000.93  1041.68  1147.76  1173.21
                             1203.57  1220.00  1242.54  1272.13  1280.57
                             1310.03  1325.03  1363.82  1371.15  1388.90
                             1446.19  1449.08  1462.80  1482.50  1487.27
                             1515.98  1543.63  1570.28  1586.23  1644.87
                             1652.37  1681.99  1684.54  1726.46  1734.06
                             1748.17  1748.41  1753.28  1800.50  1813.60
                             1826.41  1860.77  1870.98  1903.13  1918.98
                             1921.31  1927.51  1982.53  1987.26  1992.03
                             2010.77  2017.94  2019.71  2046.06  2073.08
                             2075.26  2088.48  2143.31  2150.47  2157.68
                             2180.96  2187.84  2197.01  2210.10  2213.05
                             2226.30  2228.14  2253.58  2533.81  2653.43
                             4293.85  4302.45  4375.54  4392.87  4397.36
                             4399.65  4408.30  4420.76  4425.53  4444.22
                             4448.87  4459.47  4459.86  4472.45  4476.42
                             4480.01  4513.62  4522.18  4524.66  4526.01
                             5023.34  5299.42

 Zero-point correction=                           0.358221 (Hartree/Particle)
 Thermal correction to Energy=                    0.376496
 Thermal correction to Enthalpy=                  0.377441
 Thermal correction to Gibbs Free Energy=         0.309930
 Sum of electronic and zero-point Energies=           -918.770540
 Sum of electronic and thermal Energies=              -918.752265
 Sum of electronic and thermal Enthalpies=            -918.751321
 Sum of electronic and thermal Free Energies=         -918.818832

                     E (Thermal)             CV                S
                      KCal/Mol        Cal/Mol-Kelvin    Cal/Mol-Kelvin
 Total                  236.255             70.519            142.089
 Electronic               0.000              0.000              0.000
 Translational            0.889              2.981             42.680
 Rotational               0.889              2.981             34.103
 Vibrational            234.478             64.558             65.305
 Vibration     1          0.593              1.986              6.732
 Vibration     2          0.594              1.984              5.833
 Vibration     3          0.594              1.982              5.521
 Vibration     4          0.597              1.972              4.345
 Vibration     5          0.598              1.968              4.137
 Vibration     6          0.600              1.962              3.870
 Vibration     7          0.611              1.926              2.983
 Vibration     8          0.621              1.895              2.583
 Vibration     9          0.626              1.876              2.408
 Vibration    10          0.633              1.854              2.228
 Vibration    11          0.644              1.819              2.006
 Vibration    12          0.652              1.794              1.875
 Vibration    13          0.663              1.763              1.733
 Vibration    14          0.670              1.742              1.646
 Vibration    15          0.698              1.658              1.371
 Vibration    16          0.709              1.627              1.288
 Vibration    17          0.721              1.592              1.205
 Vibration    18          0.725              1.580              1.177
 Vibration    19          0.746              1.524              1.061
 Vibration    20          0.772              1.455              0.938
 Vibration    21          0.789              1.410              0.866
 Vibration    22          0.812              1.352              0.784
 Vibration    23          0.835              1.298              0.714
 Vibration    24          0.846              1.271              0.683
 Vibration    25          0.864              1.231              0.637
 Vibration    26          0.877              1.201              0.606
 Vibration    27          0.936              1.075              0.486
 Vibration    28          0.949              1.050              0.464

 Normal termination of Gaussian 16 at Mon Jan  4 11:03:18 2021.

 ----------------------------------------------------------------------
 # B3LYP/6-311++G(d,p) empiricaldispersion=gd3bj scf=xqc pop=npa geom=c
 heck
 ----------------------------------------------------------------------

 ---------------------------------------
 CID_113491252_JID_9920_Energie_neutraal
 ---------------------------------------
 Structure from the checkpoint file:  "JID_9920.chk"
 Charge =  0 Multiplicity = 1

 SCF Done:  E(RB3LYP) =  -919.402874924     A.U. after   15 cycles
 Normal termination of Gaussian 16 at Mon Jan  4 11:11:24 2021.

 ----------------------------------------------------------------------
 # B3LYP/6-311++G(d,p) empiricaldispersion=gd3bj scf=xqc pop=npa geom=c
 heck
 ----------------------------------------------------------------------

 -------------------------------------
 CID_113491252_JID_9920_Energie_kation
 -------------------------------------
 Structure from the checkpoint file:  "JID_9920.chk"
 Charge =  1 Multiplicity = 2

 SCF Done:  E(UB3LYP) =  -919.092714327     A.U. after   33 cycles
 SCF Done:  E(UB3LYP) =  -919.092714327     a.u. after    1 cycles
 Normal termination of Gaussian 16 at Mon Jan  4 11:35:34 2021.
 Gaussian 16:  ES64L-G16RevA.03 25-Dec-2016

 ----------------------------------------------------------------------
 # B3LYP/6-311++G(d,p) empiricaldispersion=gd3bj scf=xqc pop=npa geom=c
 heck
 ----------------------------------------------------------------------

 ------------------------------------
 CID_113491252_JID_9920_Energie_anion
 ------------------------------------
 Structure from the checkpoint file:  "JID_9920.chk"
 Charge = -1 Multiplicity = 2

                         Standard orientation:
 ---------------------------------------------------------------------
 Center     Atomic      Atomic             Coordinates (Angstroms)
 Number     Number       Type             X           Y           Z
 ---------------------------------------------------------------------
      1          6           0        1.474202   -1.326090    0.403869
      2          6           0        2.366223   -0.084797    0.315115
      3          6           0        3.547245   -0.192568    1.300625
      4          6           0        4.587843   -1.218638    0.847277
      5          8           0        5.074264   -0.930199   -0.454395
      6          6           0        4.031520   -0.956098   -1.419908
      7          6           0        2.946876    0.078482   -1.111122
      8          7           0        1.601003    1.135011    0.722647
      9          6           0        0.570779    1.597024   -0.148693
     10          8           0        0.754244    2.503955   -0.956887
     11          7           0       -0.648709    0.994322    0.001128
     12          6           0       -1.137366    0.384387    1.251197
     13          6           0       -2.603805    0.827602    1.313684
     14          6           0       -3.014951    0.903201   -0.170442
     15          6           0       -1.760642    1.509414   -0.816226
     16          6           0       -3.343403   -0.471880   -0.761731
     17          6           0       -4.618283   -1.067577   -0.209085
     18          8           0       -5.416121   -0.506872    0.509929
     19          8           0       -4.792416   -2.343916   -0.633386
     20          1           0        1.097564   -1.453872    1.422481
     21          1           0        2.030333   -2.227354    0.133758
     22          1           0        0.624319   -1.243065   -0.279085
     23          1           0        4.046367    0.783631    1.361691
     24          1           0        3.177285   -0.434691    2.304028
     25          1           0        4.170614   -2.239274    0.877117
     26          1           0        5.458132   -1.198094    1.509574
     27          1           0        3.601936   -1.970428   -1.479405
     28          1           0        4.505029   -0.740408   -2.381952
     29          1           0        2.145424    0.018537   -1.857355
     30          1           0        3.384676    1.079680   -1.197927
     31          1           0        2.272781    1.901673    0.728332
     32          1           0       -0.528728    0.719891    2.092745
     33          1           0       -1.064877   -0.708097    1.205936
     34          1           0       -3.232242    0.151244    1.897365
     35          1           0       -2.676998    1.824852    1.761337
     36          1           0       -3.881776    1.555021   -0.306538
     37          1           0       -1.628213    1.226523   -1.865626
     38          1           0       -1.771438    2.604371   -0.774658
     39          1           0       -3.463947   -0.403191   -1.851071
     40          1           0       -2.529113   -1.189401   -0.603779
     41          1           0       -5.640376   -2.641390   -0.252850
 ---------------------------------------------------------------------

 SCF Done:  E(UB3LYP) =  -919.395275662     A.U. after   32 cycles

 The electronic state is 2-A.
 Alpha  occ. eigenvalues --  -19.07699 -19.04488 -19.02739 -19.00025 -14.25166
 Alpha  occ. eigenvalues --  -14.23004 -10.21849 -10.20221 -10.13841 -10.13649
 Alpha  occ. eigenvalues --  -10.13640 -10.11583 -10.11509 -10.09922 -10.09796
 Alpha  occ. eigenvalues --  -10.08928 -10.08629 -10.08454 -10.07389  -1.01934
 Alpha  occ. eigenvalues --   -0.96271  -0.96000  -0.93148  -0.85896  -0.82957
 Alpha  occ. eigenvalues --   -0.73320  -0.71129  -0.68707  -0.66697  -0.64123
 Alpha  occ. eigenvalues --   -0.62378  -0.57008  -0.56090  -0.54233  -0.53106
 Alpha  occ. eigenvalues --   -0.48223  -0.47212  -0.46555  -0.43717  -0.42938
 Alpha  occ. eigenvalues --   -0.41253  -0.40752  -0.39822  -0.39478  -0.38473
 Alpha  occ. eigenvalues --   -0.37868  -0.37220  -0.36904  -0.35722  -0.34607
 Alpha  occ. eigenvalues --   -0.34030  -0.33370  -0.32155  -0.31767  -0.31086
 Alpha  occ. eigenvalues --   -0.30753  -0.30454  -0.29809  -0.29186  -0.28030
 Alpha  occ. eigenvalues --   -0.27144  -0.26776  -0.26132  -0.25396  -0.24930
 Alpha  occ. eigenvalues --   -0.24699  -0.23628  -0.23026  -0.20471  -0.19629
 Alpha  occ. eigenvalues --   -0.17964  -0.15919  -0.15653   0.03738
 Alpha virt. eigenvalues --    0.05436   0.06668   0.06704   0.07101   0.07547
 Alpha virt. eigenvalues --    0.07970   0.08682   0.09047   0.09428   0.09680
 Alpha virt. eigenvalues --    0.10161   0.10489   0.10584   0.11208   0.11383

  Beta  occ. eigenvalues --  -19.07644 -19.04483 -19.02724 -19.00022 -14.25166
  Beta  occ. eigenvalues --  -14.23001 -10.21847 -10.20219 -10.13840 -10.13632
  Beta  occ. eigenvalues --  -10.13630 -10.11565 -10.11497 -10.09917 -10.09755
  Beta  occ. eigenvalues --  -10.08913 -10.08617 -10.08446 -10.07359  -1.01865
  Beta  occ. eigenvalues --   -0.96265  -0.95990  -0.93088  -0.85887  -0.82949
  Beta  occ. eigenvalues --   -0.73297  -0.71109  -0.68686  -0.66656  -0.64072
  Beta  occ. eigenvalues --   -0.62340  -0.56976  -0.56060  -0.54198  -0.53028
  Beta  occ. eigenvalues --   -0.48167  -0.47170  -0.46518  -0.43694  -0.42912
  Beta  occ. eigenvalues --   -0.41218  -0.40714  -0.39796  -0.39448  -0.38438
  Beta  occ. eigenvalues --   -0.37841  -0.37204  -0.36881  -0.35700  -0.34587
  Beta  occ. eigenvalues --   -0.34009  -0.33334  -0.32127  -0.31742  -0.31060
  Beta  occ. eigenvalues --   -0.30718  -0.30426  -0.29781  -0.29156  -0.28008
  Beta  occ. eigenvalues --   -0.27123  -0.26755  -0.26109  -0.25368  -0.24897
  Beta  occ. eigenvalues --   -0.24679  -0.23585  -0.23009  -0.20459  -0.19587
  Beta  occ. eigenvalues --   -0.17934  -0.15907  -0.15646
  Beta virt. eigenvalues --    0.05710   0.06378   0.06980   0.07354   0.07596
  Beta virt. eigenvalues --    0.07787   0.08261   0.08894   0.09268   0.09698
  Beta virt. eigenvalues --    0.09953   0.10248   0.10613   0.10814   0.11191

 Mulliken charges and spin densities:
               1          2
     1  C    0.779191  -1.232146
     2  C   -1.059791   0.480862
     3  C   -0.051480   0.114387
     4  C    0.189045  -0.681147
     5  O   -0.137172   0.037250
     6  C   -0.088712  -0.544786
     7  C   -0.288275   0.326276
     8  N    0.153886   0.028004
     9  C   -0.024056  -0.084933
    10  O   -0.277469   0.009776
    11  N    0.057299   0.099329
    12  C   -0.297379   0.052962
    13  C    0.400866  -1.057978
    14  C   -1.070941   1.527433
    15  C    0.388686  -1.006638
    16  C    1.531321  -2.043870
    17  C   -0.381268   0.372184
    18  O   -0.269523  -0.004275
    19  O   -0.170337   0.041832
    20  H   -0.212242   0.388822
    21  H   -0.225721   0.348350
    22  H    0.191967  -0.022551
    23  H    0.054232   0.070088
    24  H   -0.130656   0.295335
    25  H    0.051290   0.087254
    26  H   -0.145572   0.352034
    27  H   -0.013361   0.168405
    28  H    0.144579   0.048449
    29  H    0.042444   0.126379
    30  H    0.164652   0.041923
    31  H    0.185906   0.097332
    32  H    0.064666   0.146513
    33  H    0.002501   0.138632
    34  H   -0.013828   0.212572
    35  H    0.071897   0.077242
    36  H    0.077386   0.178280
    37  H    0.128707   0.067751
    38  H    0.114014   0.094994
    39  H   -0.323319   0.525792
    40  H   -0.120082   0.332450
    41  H   -0.493348   0.789431
 Sum of Mulliken charges =  -1.00000   1.00000

 Dipole moment (field-independent basis, Debye):
    X=              4.9777    Y=              4.1274    Z=              0.1762  Tot=              6.4687
 Quadrupole moment (field-independent basis, Debye-Ang):
   XX=           -233.1954   YY=           -165.3781   ZZ=           -149.9769
   XY=            -16.9856   XZ=             -3.6611   YZ=              3.5404

 Summary of Natural Population Analysis:

                                       Natural Population
                Natural  -----------------------------------------------
    Atom  No    Charge         Core      Valence    Rydberg      Total
 -----------------------------------------------------------------------
      C    1   -0.29757      0.99960     2.28863    0.00933     3.29757
      C    2    0.06423      0.99954     1.92177    0.01446     2.93577
      C    3   -0.20628      0.99958     2.19542    0.01129     3.20628
      C    4   -0.01067      0.99958     1.99771    0.01338     3.01067
      O    5   -0.30022      0.99989     3.29125    0.00907     4.30022
      C    6   -0.00837      0.99958     1.99759    0.01120     3.00837
      C    7   -0.21420      0.99958     2.20612    0.00850     3.21420
      N    8   -0.35389      0.99969     2.84344    0.01075     3.85389
      C    9    0.41524      0.99966     1.56115    0.02396     2.58476
      O   10   -0.33251      0.99988     3.32763    0.00500     4.33251
      N   11   -0.26397      0.99963     2.75488    0.00945     3.76397
      C   12   -0.08531      0.99961     2.07572    0.00997     3.08531
      C   13   -0.19205      0.99961     2.18508    0.00735     3.19205
      C   14   -0.11816      0.99960     2.10660    0.01197     3.11816
      C   15   -0.07815      0.99961     2.06895    0.00959     3.07815
      C   16   -0.24335      0.99956     2.23379    0.01000     3.24335
      C   17    0.41068      0.99972     1.56440    0.02520     2.58932
      O   18   -0.30921      0.99987     3.30308    0.00626     4.30921
      O   19   -0.34231      0.99988     3.33579    0.00663     4.34231
      H   20    0.10623      0.00000     0.39236    0.00141     0.39377
      H   21    0.10265      0.00000     0.39594    0.00141     0.39735
      H   22    0.10665      0.00000     0.39148    0.00188     0.39335
      H   23    0.09772      0.00000     0.40102    0.00125     0.40228
      H   24    0.10845      0.00000     0.39030    0.00125     0.39155
      H   25    0.07918      0.00000     0.41946    0.00137     0.42082
      H   26    0.09272      0.00000     0.40612    0.00116     0.40728
      H   27    0.07823      0.00000     0.42034    0.00144     0.42177
      H   28    0.09133      0.00000     0.40751    0.00116     0.40867
      H   29    0.10800      0.00000     0.39096    0.00105     0.39200
      H   30    0.10392      0.00000     0.39488    0.00120     0.39608
      H   31    0.18338      0.00000     0.31442    0.00220     0.31662
      H   32    0.10896      0.00000     0.38972    0.00132     0.39104
      H   33    0.09488      0.00000     0.40336    0.00175     0.40512
      H   34    0.11139      0.00000     0.38759    0.00102     0.38861
      H   35    0.09896      0.00000     0.39995    0.00109     0.40104
      H   36    0.10997      0.00000     0.38917    0.00087     0.39003
      H   37    0.10184      0.00000     0.39699    0.00117     0.39816
      H   38    0.10180      0.00000     0.39704    0.00116     0.39820
      H   39    0.11908      0.00000     0.37952    0.00140     0.38092
      H   40    0.11645      0.00000     0.38152    0.00203     0.38355
      H   41    0.24428      0.00000     0.23780    0.01792     0.25572
 =======================================================================
   * Total *    0.00000     18.99364    53.74645    0.25990    73.00000

 Normal termination of Gaussian 16 at Mon Jan  4 11:58:58 2021.
