 Gaussian 16, Revision A.03,

 -----------------------------------------------------------
 # opt freq B3LYP/6-31G(d) empiricaldispersion=gd3bj scf=xqc
 -----------------------------------------------------------

 -------------------------------
 CID_126984422_JID_4435_neutraal
 -------------------------------
 Symbolic Z-matrix:
 Charge =  0 Multiplicity = 1

 SCF Done:  E(RB3LYP) =  -969.823310261     A.U. after   15 cycles
 SCF Done:  E(RB3LYP) =  -969.828145788     A.U. after   12 cycles
 SCF Done:  E(RB3LYP) =  -969.828863638     A.U. after   12 cycles
 SCF Done:  E(RB3LYP) =  -969.829063790     A.U. after   12 cycles
 SCF Done:  E(RB3LYP) =  -969.829150148     A.U. after   11 cycles
 SCF Done:  E(RB3LYP) =  -969.829240435     A.U. after   11 cycles
 SCF Done:  E(RB3LYP) =  -969.829414014     A.U. after   12 cycles
 SCF Done:  E(RB3LYP) =  -969.829504343     A.U. after   12 cycles
 SCF Done:  E(RB3LYP) =  -969.829496348     A.U. after   11 cycles
 SCF Done:  E(RB3LYP) =  -969.829593399     A.U. after   10 cycles
 SCF Done:  E(RB3LYP) =  -969.833185957     A.U. after    8 cycles
 SCF Done:  E(RB3LYP) =  -969.833186577     A.U. after    8 cycles
 SCF Done:  E(RB3LYP) =  -969.833187245     A.U. after    9 cycles
 SCF Done:  E(RB3LYP) =  -969.833187448     A.U. after    8 cycles
 SCF Done:  E(RB3LYP) =  -969.833187530     A.U. after    7 cycles
 Optimization completed.
    -- Stationary point found.
 Normal termination of Gaussian 16 at Thu Dec 10 10:09:27 2020.

 --------------------------------------------------------------------
 #N Geom=AllCheck Guess=TCheck SCRF=Check GenChk RB3LYP/6-31G(d) Freq
 --------------------------------------------------------------------

 Structure from the checkpoint file:  "JID_4435.chk"
 -------------------------------
 CID_126984422_JID_4435_neutraal
 -------------------------------
 Charge =  0 Multiplicity = 1

 SCF Done:  E(RB3LYP) =  -969.833187530     A.U. after    1 cycles

  Exact polarizability: 142.433 -11.733 134.826 -14.482  -5.397 112.374
 Approx polarizability: 189.151 -27.309 214.615 -35.904 -10.562 192.490

                      1                      2                      3
                      A                      A                      A
 Frequencies --     20.3811                32.1031                39.2998
 Red. masses --      4.6254                 4.5640                 4.2479
 Frc consts  --      0.0011                 0.0028                 0.0039
 IR Inten    --      0.1019                 1.3143                 0.0677

                      4                      5                      6
                      A                      A                      A
 Frequencies --     63.4120               116.2861               136.6384
 Red. masses --      4.4168                 3.7212                 4.3892
 Frc consts  --      0.0105                 0.0296                 0.0483
 IR Inten    --      3.2525                 1.0234                 1.1447

                      7                      8                      9
                      A                      A                      A
 Frequencies --    201.7406               243.6282               258.8175
 Red. masses --      2.9553                 3.5572                 3.7217
 Frc consts  --      0.0709                 0.1244                 0.1469
 IR Inten    --      0.2300                 0.8503                 0.2913

                     10                     11                     12
                      A                      A                      A
 Frequencies --    300.0253               310.6504               364.1977
 Red. masses --      1.1011                 2.4244                 2.7316
 Frc consts  --      0.0584                 0.1379                 0.2135
 IR Inten    --     48.8137                 2.6766                 7.5110

                     13                     14                     15
                      A                      A                      A
 Frequencies --    399.8763               417.2260               427.4030
 Red. masses --      1.7826                 1.6775                 2.0811
 Frc consts  --      0.1679                 0.1721                 0.2240
 IR Inten    --      5.0965                97.5965                 8.6864

                     16                     17                     18
                      A                      A                      A
 Frequencies --    445.9341               497.0174               556.0263
 Red. masses --      2.6722                 2.8409                 3.1698
 Frc consts  --      0.3131                 0.4135                 0.5774
 IR Inten    --      8.8398                13.6701                23.4248

                     19                     20                     21
                      A                      A                      A
 Frequencies --    564.2245               602.2693               658.4295
 Red. masses --      2.7596                 6.6118                 3.9000
 Frc consts  --      0.5176                 1.4130                 0.9962
 IR Inten    --      7.0928                 3.5475                16.1196

                     22                     23                     24
                      A                      A                      A
 Frequencies --    659.8505               699.9401               767.2318
 Red. masses --      3.0152                10.6047                 3.5863
 Frc consts  --      0.7735                 3.0611                 1.2438
 IR Inten    --      3.4103                10.3841                 3.6777

                     25                     26                     27
                      A                      A                      A
 Frequencies --    797.5335               817.1849               860.1768
 Red. masses --      2.4923                 3.2550                 1.7545
 Frc consts  --      0.9340                 1.2807                 0.7648
 IR Inten    --     10.1184                 5.2239                 8.0105

                     28                     29                     30
                      A                      A                      A
 Frequencies --    881.3713               896.7402               916.0632
 Red. masses --      3.5969                 3.1913                 1.5511
 Frc consts  --      1.6463                 1.5120                 0.7669
 IR Inten    --      8.9662                10.4008                88.1984

                     31                     32                     33
                      A                      A                      A
 Frequencies --    925.7046               935.7725               946.8751
 Red. masses --      1.4049                 1.9748                 1.8834
 Frc consts  --      0.7093                 1.0189                 0.9949
 IR Inten    --      3.7152                28.9298                26.5304

                     34                     35                     36
                      A                      A                      A
 Frequencies --    959.9142              1015.4320              1033.0562
 Red. masses --      1.8338                 1.9674                 1.8944
 Frc consts  --      0.9956                 1.1952                 1.1911
 IR Inten    --     18.8665                 1.2836                 6.6383

                     37                     38                     39
                      A                      A                      A
 Frequencies --   1050.0041              1059.7644              1087.4974
 Red. masses --      1.6963                 2.7829                 2.0250
 Frc consts  --      1.1019                 1.8415                 1.4110
 IR Inten    --      3.0717                 1.4382                19.8838

                     40                     41                     42
                      A                      A                      A
 Frequencies --   1118.2837              1143.0782              1157.8215
 Red. masses --      1.7922                 2.4551                 1.4642
 Frc consts  --      1.3205                 1.8901                 1.1565
 IR Inten    --      0.6535                14.4441                17.4601

                     43                     44                     45
                      A                      A                      A
 Frequencies --   1178.3682              1213.8956              1224.2088
 Red. masses --      1.6175                 1.7248                 1.4909
 Frc consts  --      1.3233                 1.4974                 1.3165
 IR Inten    --     28.8205                52.6182                11.0861

                     46                     47                     48
                      A                      A                      A
 Frequencies --   1274.8605              1282.1517              1288.2775
 Red. masses --      3.2880                 1.5775                 1.5077
 Frc consts  --      3.1485                 1.5279                 1.4743
 IR Inten    --     29.3404                28.6128                42.2471

                     49                     50                     51
                      A                      A                      A
 Frequencies --   1294.4308              1311.6004              1316.1009
 Red. masses --      1.4386                 1.3277                 1.4974
 Frc consts  --      1.4202                 1.3457                 1.5281
 IR Inten    --      4.0876                 2.2565                 3.6205

                     52                     53                     54
                      A                      A                      A
 Frequencies --   1327.6299              1344.4534              1357.9454
 Red. masses --      1.2823                 1.2556                 1.2711
 Frc consts  --      1.3316                 1.3372                 1.3810
 IR Inten    --      1.1616                 1.1042                 1.8312

                     55                     56                     57
                      A                      A                      A
 Frequencies --   1368.0929              1393.6678              1408.3385
 Red. masses --      1.4049                 1.3861                 1.3365
 Frc consts  --      1.5492                 1.5862                 1.5619
 IR Inten    --     11.5421                16.2741                21.0673

                     58                     59                     60
                      A                      A                      A
 Frequencies --   1423.7900              1436.3080              1492.2065
 Red. masses --      1.6060                 1.3159                 2.1188
 Frc consts  --      1.9181                 1.5994                 2.7797
 IR Inten    --     16.6460                11.5897                40.0414

                     61                     62                     63
                      A                      A                      A
 Frequencies --   1507.9926              1515.4893              1516.9413
 Red. masses --      1.1163                 1.0879                 1.1574
 Frc consts  --      1.4957                 1.4721                 1.5692
 IR Inten    --     28.0085                 6.6631                11.7367

                     64                     65                     66
                      A                      A                      A
 Frequencies --   1522.2006              1537.6029              1573.7899
 Red. masses --      1.0870                 1.1062                 2.3503
 Frc consts  --      1.4839                 1.5409                 3.4299
 IR Inten    --      2.6588                 4.9210                93.1126

                     67                     68                     69
                      A                      A                      A
 Frequencies --   1616.8844              1696.1001              3009.8029
 Red. masses --      5.5104                 1.0890                 1.0721
 Frc consts  --      8.4877                 1.8458                 5.7223
 IR Inten    --    352.6130                26.9613                17.9715

                     70                     71                     72
                      A                      A                      A
 Frequencies --   3017.5650              3027.3938              3038.5978
 Red. masses --      1.0616                 1.0824                 1.0663
 Frc consts  --      5.6952                 5.8447                 5.8005
 IR Inten    --     27.5657                11.2335                34.5644

                     73                     74                     75
                      A                      A                      A
 Frequencies --   3053.0451              3056.7624              3067.7830
 Red. masses --      1.0690                 1.0920                 1.0734
 Frc consts  --      5.8706                 6.0118                 5.9522
 IR Inten    --     30.3668                35.6743                80.2611

                     76                     77                     78
                      A                      A                      A
 Frequencies --   3070.7721              3090.2074              3103.9642
 Red. masses --      1.0873                 1.1008                 1.1001
 Frc consts  --      6.0409                 6.1937                 6.2447
 IR Inten    --     28.4151                44.4657                50.3075

                     79                     80                     81
                      A                      A                      A
 Frequencies --   3131.5339              3157.7888              3221.2592
 Red. masses --      1.0927                 1.0952                 1.0924
 Frc consts  --      6.3134                 6.4345                 6.6785
 IR Inten    --      6.4153                 4.6809                12.3004

                     82                     83                     84
                      A                      A                      A
 Frequencies --   3440.2957              3527.7624              3620.9718
 Red. masses --      1.0494                 1.0918                 1.0766
 Frc consts  --      7.3182                 8.0052                 8.3169
 IR Inten    --      3.2230                 2.4807                34.3104

 - Thermochemistry -
 -------------------
 Temperature   298.150 Kelvin.  Pressure   1.00000 Atm.
 Atom     1 has atomic number  6 and mass  12.00000

 Molecular mass:   212.10957 amu.
 Principal axes and moments of inertia in atomic units:
                           1         2         3
     Eigenvalues --  1559.067615757.783906439.43651
           X            0.99995   0.00905   0.00363
           Y           -0.00901   0.99991  -0.00996
           Z           -0.00372   0.00992   0.99994
 This molecule is an asymmetric top.
 Rotational symmetry number  1.
 Warning -- assumption of classical behavior for rotation
           may cause significant error
 Rotational temperatures (Kelvin)      0.05555     0.01504     0.01345
 Rotational constants (GHZ):           1.15758     0.31344     0.28026
 Zero-point vibrational energy     678544.1 (Joules/Mol)
                                  162.17593 (Kcal/Mol)
 Warning -- explicit consideration of  20 degrees of freedom as
           vibrations may cause significant error
 Vibrational temperatures:     29.32    46.19    56.54    91.24   167.31
          (Kelvin)            196.59   290.26   350.53   372.38   431.67
                              446.96   524.00   575.33   600.30   614.94
                              641.60   715.10   800.00   811.79   866.53
                              947.33   949.38  1007.06  1103.88  1147.47
                             1175.75  1237.60  1268.10  1290.21  1318.01
                             1331.88  1346.37  1362.34  1381.10  1460.98
                             1486.34  1510.72  1524.76  1564.67  1608.96
                             1644.63  1665.85  1695.41  1746.53  1761.36
                             1834.24  1844.73  1853.54  1862.40  1887.10
                             1893.58  1910.16  1934.37  1953.78  1968.38
                             2005.18  2026.29  2048.52  2066.53  2146.95
                             2169.67  2180.45  2182.54  2190.11  2212.27
                             2264.33  2326.34  2440.31  4330.44  4341.60
                             4355.74  4371.86  4392.65  4398.00  4413.86
                             4418.16  4446.12  4465.91  4505.58  4543.35
                             4634.67  4949.82  5075.66  5209.77

 Zero-point correction=                           0.258444 (Hartree/Particle)
 Thermal correction to Energy=                    0.272150
 Thermal correction to Enthalpy=                  0.273094
 Thermal correction to Gibbs Free Energy=         0.215475
 Sum of electronic and zero-point Energies=           -969.574744
 Sum of electronic and thermal Energies=              -969.561038
 Sum of electronic and thermal Enthalpies=            -969.560094
 Sum of electronic and thermal Free Energies=         -969.617713

                     E (Thermal)             CV                S
                      KCal/Mol        Cal/Mol-Kelvin    Cal/Mol-Kelvin
 Total                  170.776             52.016            121.270
 Electronic               0.000              0.000              0.000
 Translational            0.889              2.981             41.959
 Rotational               0.889              2.981             32.425
 Vibrational            168.999             46.055             46.886
 Vibration     1          0.593              1.986              6.597
 Vibration     2          0.594              1.983              5.695
 Vibration     3          0.594              1.981              5.294
 Vibration     4          0.597              1.972              4.348
 Vibration     5          0.608              1.936              3.161
 Vibration     6          0.614              1.917              2.850
 Vibration     7          0.639              1.837              2.117
 Vibration     8          0.659              1.773              1.776
 Vibration     9          0.668              1.748              1.670
 Vibration    10          0.693              1.674              1.417
 Vibration    11          0.699              1.653              1.359
 Vibration    12          0.738              1.546              1.104
 Vibration    13          0.766              1.470              0.963
 Vibration    14          0.780              1.433              0.901
 Vibration    15          0.789              1.411              0.867
 Vibration    16          0.805              1.370              0.808
 Vibration    17          0.853              1.257              0.666
 Vibration    18          0.911              1.127              0.532
 Vibration    19          0.920              1.109              0.515
 Vibration    20          0.961              1.027              0.446

                           ! Non-Optimized Parameters !
 Normal termination of Gaussian 16 at Thu Dec 10 10:18:05 2020.

 ----------------------------------------------------------------------
 # B3LYP/6-311++G(d,p) empiricaldispersion=gd3bj scf=xqc pop=npa geom=c
 heck
 ----------------------------------------------------------------------

 ---------------------------------------
 CID_126984422_JID_4435_Energie_neutraal
 ---------------------------------------
 Structure from the checkpoint file:  "JID_4435.chk"
 Charge =  0 Multiplicity = 1

 SCF Done:  E(RB3LYP) =  -970.024804249     A.U. after   15 cycles
 Normal termination of Gaussian 16 at Thu Dec 10 10:22:12 2020.

 ----------------------------------------------------------------------
 # B3LYP/6-311++G(d,p) empiricaldispersion=gd3bj scf=xqc pop=npa geom=c
 heck
 ----------------------------------------------------------------------

 -------------------------------------
 CID_126984422_JID_4435_Energie_kation
 -------------------------------------
 Structure from the checkpoint file:  "JID_4435.chk"
 Charge =  1 Multiplicity = 2

 SCF Done:  E(UB3LYP) =  -969.727320018     A.U. after   28 cycles
 Normal termination of Gaussian 16 at Thu Dec 10 10:33:20 2020.
 Gaussian 16:  ES64L-G16RevA.03 25-Dec-2016

 ----------------------------------------------------------------------
 # B3LYP/6-311++G(d,p) empiricaldispersion=gd3bj scf=xqc pop=npa geom=c
 heck
 ----------------------------------------------------------------------

 ------------------------------------
 CID_126984422_JID_4435_Energie_anion
 ------------------------------------
 Structure from the checkpoint file:  "JID_4435.chk"
 Charge = -1 Multiplicity = 2

                         Standard orientation:
 ---------------------------------------------------------------------
 Center     Atomic      Atomic             Coordinates (Angstroms)
 Number     Number       Type             X           Y           Z
 ---------------------------------------------------------------------
      1          6           0       -1.604239   -0.399879    0.954446
      2          6           0       -2.359082   -1.559421    0.294128
      3          6           0       -3.355962   -0.867800   -0.675143
      4          6           0       -2.660112    0.472006   -1.050703
      5          6           0       -1.347245    0.543754   -0.234250
      6          6           0       -0.943399    1.970371    0.138810
      7          6           0        0.404815    2.083594    0.862077
      8          7           0        1.537258    1.660083    0.037851
      9          6           0        2.091765    0.430538    0.121056
     10          7           0        1.835074   -0.452289    1.065619
     11          6           0        2.599697   -1.564285    0.839857
     12          7           0        3.421842   -1.647259   -0.175465
     13         16           0        3.292751   -0.175806   -1.023967
     14          7           0       -4.685460   -0.586079   -0.111562
     15          1           0       -2.246941    0.102904    1.693888
     16          1           0       -0.684752   -0.704929    1.459745
     17          1           0       -2.867640   -2.222757    1.003209
     18          1           0       -1.646046   -2.172715   -0.273517
     19          1           0       -3.523997   -1.488562   -1.561746
     20          1           0       -2.478413    0.557469   -2.126828
     21          1           0       -3.329784    1.298543   -0.781807
     22          1           0       -0.540926    0.099477   -0.834666
     23          1           0       -0.915036    2.596160   -0.765594
     24          1           0       -1.714548    2.409163    0.788251
     25          1           0        0.582272    3.121327    1.167180
     26          1           0        0.423154    1.464641    1.760299
     27          1           0        1.722203    2.195954   -0.798428
     28          1           0        2.521793   -2.405452    1.522270
     29          1           0       -5.127336   -1.463288    0.164239
     30          1           0       -4.576443   -0.049520    0.750192
 ---------------------------------------------------------------------

 SCF Done:  E(UB3LYP) =  -970.018295529     A.U. after   33 cycles
 SCF Done:  E(UB3LYP) =  -970.018295529     a.u. after    1 cycles

 The electronic state is 2-A.
 Alpha  occ. eigenvalues --  -88.78480 -14.24119 -14.21937 -14.20352 -14.20058
 Alpha  occ. eigenvalues --  -10.17156 -10.13184 -10.10518 -10.10144 -10.06912
 Alpha  occ. eigenvalues --  -10.06690 -10.06642 -10.06246 -10.06019  -7.86925
 Alpha  occ. eigenvalues --   -5.83312  -5.82886  -5.82399  -0.90563  -0.84310
 Alpha  occ. eigenvalues --   -0.79850  -0.75999  -0.72625  -0.67526  -0.64302
 Alpha  occ. eigenvalues --   -0.61007  -0.58727  -0.52975  -0.52308  -0.47519
 Alpha  occ. eigenvalues --   -0.46630  -0.46056  -0.42153  -0.40514  -0.38128
 Alpha  occ. eigenvalues --   -0.37295  -0.36638  -0.35227  -0.34349  -0.33602
 Alpha  occ. eigenvalues --   -0.32729  -0.31528  -0.28617  -0.27726  -0.27100
 Alpha  occ. eigenvalues --   -0.26259  -0.24715  -0.24253  -0.23507  -0.22251
 Alpha  occ. eigenvalues --   -0.21970  -0.21380  -0.21033  -0.18169  -0.17779
 Alpha  occ. eigenvalues --   -0.14988  -0.12278   0.04213
 Alpha virt. eigenvalues --    0.05879   0.07279   0.07733   0.08133   0.08365
 Alpha virt. eigenvalues --    0.09145   0.09869   0.10215   0.10424   0.11197
 Alpha virt. eigenvalues --    0.12038   0.12338   0.12748   0.13055   0.13689

  Beta  occ. eigenvalues --  -88.78460 -14.24043 -14.21852 -14.20351 -14.20035
  Beta  occ. eigenvalues --  -10.17110 -10.13173 -10.10502 -10.10139 -10.06907
  Beta  occ. eigenvalues --  -10.06661 -10.06634 -10.06235 -10.06009  -7.86903
  Beta  occ. eigenvalues --   -5.83264  -5.82874  -5.82378  -0.90484  -0.84187
  Beta  occ. eigenvalues --   -0.79813  -0.75894  -0.72595  -0.67455  -0.64213
  Beta  occ. eigenvalues --   -0.60972  -0.58677  -0.52904  -0.52169  -0.47449
  Beta  occ. eigenvalues --   -0.46572  -0.45975  -0.41994  -0.40480  -0.38056
  Beta  occ. eigenvalues --   -0.37251  -0.36578  -0.35134  -0.34272  -0.33558
  Beta  occ. eigenvalues --   -0.32692  -0.31464  -0.28536  -0.27691  -0.26956
  Beta  occ. eigenvalues --   -0.26233  -0.24690  -0.24173  -0.23472  -0.22212
  Beta  occ. eigenvalues --   -0.21920  -0.21302  -0.20926  -0.18090  -0.17719
  Beta  occ. eigenvalues --   -0.14963  -0.12160
  Beta virt. eigenvalues --    0.06265   0.07653   0.07761   0.08024   0.08274
  Beta virt. eigenvalues --    0.08852   0.09617   0.10285   0.10445   0.10609
  Beta virt. eigenvalues --    0.11217   0.12201   0.12627   0.13094   0.13359

 Mulliken charges and spin densities:
               1          2
     1  C   -0.528273  -0.144714
     2  C   -0.174722  -0.558259
     3  C    0.116549   0.152120
     4  C    0.394558  -1.315241
     5  C   -0.468189   1.637112
     6  C    1.111411  -1.688581
     7  C   -0.105240  -0.337833
     8  N    0.085662  -0.044930
     9  C    0.227193  -0.537577
    10  N   -0.091682  -0.040431
    11  C   -0.208182  -0.045370
    12  N   -0.224591   0.025173
    13  S    0.028112   0.126623
    14  N   -0.329203  -0.010263
    15  H   -0.159346   0.311303
    16  H    0.236066  -0.102483
    17  H   -0.037932   0.208303
    18  H    0.109244  -0.003011
    19  H    0.084721   0.140044
    20  H   -0.051736   0.176770
    21  H    0.105366   0.092830
    22  H    0.058247   0.136931
    23  H   -0.369488   0.557165
    24  H    0.048706   0.079840
    25  H   -0.829408   1.044359
    26  H    0.274976  -0.056410
    27  H   -0.563884   0.878561
    28  H    0.125993   0.029677
    29  H    0.011480   0.201428
    30  H    0.123593   0.086864
 Sum of Mulliken charges =  -1.00000   1.00000

 Dipole moment (field-independent basis, Debye):
    X=             -0.6636    Y=             -5.0558    Z=              2.6470  Tot=              5.7452
 Quadrupole moment (field-independent basis, Debye-Ang):
   XX=           -164.4017   YY=           -143.5433   ZZ=           -120.1806
   XY=             -1.6206   XZ=              3.4639   YZ=              5.6143

 Summary of Natural Population Analysis:

                                       Natural Population
                Natural  -----------------------------------------------
    Atom  No    Charge         Core      Valence    Rydberg      Total
 -----------------------------------------------------------------------
      C    1   -0.19838      0.99961     2.19071    0.00806     3.19838
      C    2   -0.19841      0.99962     2.19024    0.00855     3.19841
      C    3   -0.01492      0.99961     2.00246    0.01284     3.01492
      C    4   -0.18880      0.99961     2.18142    0.00777     3.18880
      C    5   -0.11562      0.99959     2.10562    0.01041     3.11562
      C    6   -0.18937      0.99960     2.17995    0.00982     3.18937
      C    7   -0.08577      0.99960     2.07397    0.01220     3.08577
      N    8   -0.30537      0.99964     2.79114    0.01459     3.80537
      C    9    0.14454      0.99960     1.83250    0.02336     2.85546
      N   10   -0.30360      0.99964     2.79317    0.01079     3.80360
      C   11    0.11771      0.99969     1.86398    0.01862     2.88229
      N   12   -0.31760      0.99974     2.80833    0.00954     3.81760
      S   13    0.24821      4.99947     2.72681    0.02551     7.75179
      N   14   -0.42015      0.99977     2.90991    0.01046     3.92015
      H   15    0.08840      0.00000     0.41028    0.00132     0.41160
      H   16    0.11443      0.00000     0.38427    0.00130     0.38557
      H   17    0.09669      0.00000     0.40213    0.00119     0.40331
      H   18    0.09717      0.00000     0.40162    0.00121     0.40283
      H   19    0.08942      0.00000     0.40974    0.00084     0.41058
      H   20    0.10347      0.00000     0.39557    0.00096     0.39653
      H   21    0.09996      0.00000     0.39861    0.00143     0.40004
      H   22    0.09793      0.00000     0.39976    0.00231     0.40207
      H   23    0.10294      0.00000     0.39468    0.00238     0.39706
      H   24    0.09740      0.00000     0.40123    0.00136     0.40260
      H   25    0.09964      0.00000     0.39868    0.00168     0.40036
      H   26    0.10530      0.00000     0.39240    0.00230     0.39470
      H   27    0.20501      0.00000     0.27698    0.01801     0.29499
      H   28    0.08862      0.00000     0.41025    0.00113     0.41138
      H   29    0.17091      0.00000     0.32739    0.00170     0.32909
      H   30    0.17022      0.00000     0.32789    0.00189     0.32978
 =======================================================================
   * Total *    0.00000     17.99480    38.78169    0.22350    57.00000

 Normal termination of Gaussian 16 at Thu Dec 10 10:49:18 2020.
