 Gaussian 16, Revision A.03,

 -----------------------------------------------------------
 # opt freq B3LYP/6-31G(d) empiricaldispersion=gd3bj scf=xqc
 -----------------------------------------------------------

 -------------------------------
 CID_150718283_JID_3513_neutraal
 -------------------------------
 Symbolic Z-matrix:
 Charge =  0 Multiplicity = 1

 SCF Done:  E(RB3LYP) =  -572.778320028     A.U. after   15 cycles
 SCF Done:  E(RB3LYP) =  -572.781097914     A.U. after   15 cycles
 SCF Done:  E(RB3LYP) =  -572.781522132     A.U. after   14 cycles
 SCF Done:  E(RB3LYP) =  -572.783127147     A.U. after   13 cycles
 SCF Done:  E(RB3LYP) =  -572.783938621     A.U. after   12 cycles
 SCF Done:  E(RB3LYP) =  -572.783869101     A.U. after   12 cycles
 SCF Done:  E(RB3LYP) =  -572.784102226     A.U. after   12 cycles
 SCF Done:  E(RB3LYP) =  -572.784122318     A.U. after   11 cycles
 SCF Done:  E(RB3LYP) =  -572.784124945     A.U. after    9 cycles
 SCF Done:  E(RB3LYP) =  -572.784127720     A.U. after    8 cycles
 SCF Done:  E(RB3LYP) =  -572.784127790     A.U. after    7 cycles
 SCF Done:  E(RB3LYP) =  -572.784127836     A.U. after    7 cycles
 Optimization completed.
    -- Stationary point found.

 1\1\GINC-NODE101\FOpt\RB3LYP\6-31G(d)\C9H18N4\VSC10255\09-Dec-2020\0\\
 # opt freq B3LYP/6-31G(d) empiricaldispersion=gd3bj scf=xqc\\CID_15071
 8283_JID_3513_neutraal\\0,1\C,0.9068947016,-0.0818522751,-0.0255764398
 \C,0.4961220459,1.3910050525,0.0561802936\C,0.872444711,2.2308185125,-
 1.1804250171\C,0.4007837897,1.5807472895,-2.4953499764\C,-1.1165276928
 ,1.4167472067,-2.6503463598\N,-1.8178209872,2.6692852599,-3.0192162835
 \N,-2.3229664178,3.3132450097,-2.0987563649\N,-2.8512486753,3.99347591
 46,-1.3489385979\N,0.3375384968,3.586431572,-1.0655592643\C,0.79440076

 Normal termination of Gaussian 16 at Wed Dec  9 23:34:44 2020.

 --------------------------------------------------------------------
 #N Geom=AllCheck Guess=TCheck SCRF=Check GenChk RB3LYP/6-31G(d) Freq
 --------------------------------------------------------------------

 Structure from the checkpoint file:  "JID_3513.chk"
 -------------------------------
 CID_150718283_JID_3513_neutraal
 -------------------------------
 Charge =  0 Multiplicity = 1

 SCF Done:  E(RB3LYP) =  -572.784127836     A.U. after    1 cycles

  Exact polarizability: 133.016  -0.548 105.088  10.919   2.402 110.204
 Approx polarizability: 184.338   3.337 149.485  41.201   6.464 197.178

                      1                      2                      3
                      A                      A                      A
 Frequencies --     21.0305                41.1314                75.6674
 Red. masses --      3.2918                 2.3757                 3.9193
 Frc consts  --      0.0009                 0.0024                 0.0132
 IR Inten    --      0.5258                 0.2561                 0.5838

                      4                      5                      6
                      A                      A                      A
 Frequencies --     91.4931               109.1458               118.5544
 Red. masses --      2.7571                 4.8368                 2.6931
 Frc consts  --      0.0136                 0.0339                 0.0223
 IR Inten    --      0.1053                 0.6065                 1.0001

                      7                      8                      9
                      A                      A                      A
 Frequencies --    178.5182               187.8058               214.7048
 Red. masses --      2.5671                 2.4193                 2.6066
 Frc consts  --      0.0482                 0.0503                 0.0708
 IR Inten    --      0.3731                 0.7499                 0.5958

                     10                     11                     12
                      A                      A                      A
 Frequencies --    254.5887               261.0370               320.5173
 Red. masses --      2.0418                 2.4789                 2.1954
 Frc consts  --      0.0780                 0.0995                 0.1329
 IR Inten    --      1.6745                 2.4400                 3.4249

                     13                     14                     15
                      A                      A                      A
 Frequencies --    351.0609               371.7293               398.1076
 Red. masses --      3.0674                 2.3857                 3.5850
 Frc consts  --      0.2227                 0.1942                 0.3348
 IR Inten    --      1.1050                 4.8578                 2.9179

                     16                     17                     18
                      A                      A                      A
 Frequencies --    457.1620               557.2798               570.8872
 Red. masses --      2.0368                12.7029                 2.5586
 Frc consts  --      0.2508                 2.3243                 0.4913
 IR Inten    --      2.1385                17.0520                 2.8858

                     19                     20                     21
                      A                      A                      A
 Frequencies --    620.7136               649.2474               661.5181
 Red. masses --      2.1047                 3.6003                 4.2321
 Frc consts  --      0.4778                 0.8941                 1.0912
 IR Inten    --      1.1666                 5.5303                 4.2437

                     22                     23                     24
                      A                      A                      A
 Frequencies --    758.9189               801.0498               834.6797
 Red. masses --      1.6939                 1.4833                 2.0848
 Frc consts  --      0.5748                 0.5608                 0.8558
 IR Inten    --      0.0344                 1.7702                 5.7609

                     25                     26                     27
                      A                      A                      A
 Frequencies --    858.8293               873.0672               898.1591
 Red. masses --      1.7911                 1.7793                 2.3615
 Frc consts  --      0.7784                 0.7991                 1.1224
 IR Inten    --      0.8404                 8.9364                13.8339

                     28                     29                     30
                      A                      A                      A
 Frequencies --    927.9208               944.1343               978.5605
 Red. masses --      2.7413                 2.3401                 2.2110
 Frc consts  --      1.3907                 1.2290                 1.2474
 IR Inten    --      3.1442                 1.7282                 7.4265

                     31                     32                     33
                      A                      A                      A
 Frequencies --    992.9097               999.2312              1020.1118
 Red. masses --      1.6699                 1.8532                 1.7916
 Frc consts  --      0.9700                 1.0902                 1.0985
 IR Inten    --      2.6756                 0.7342                 1.7177

                     34                     35                     36
                      A                      A                      A
 Frequencies --   1035.5422              1074.9137              1081.7951
 Red. masses --      2.0231                 2.4524                 2.0158
 Frc consts  --      1.2782                 1.6695                 1.3899
 IR Inten    --      7.7858                 2.5721                 3.5461

                     37                     38                     39
                      A                      A                      A
 Frequencies --   1125.0106              1141.1451              1152.1704
 Red. masses --      1.9201                 1.6289                 2.3227
 Frc consts  --      1.4318                 1.2497                 1.8167
 IR Inten    --      9.4161                 2.2706                 3.7910

                     40                     41                     42
                      A                      A                      A
 Frequencies --   1170.8825              1211.1150              1237.0020
 Red. masses --      2.6046                 2.4613                 1.4096
 Frc consts  --      2.1038                 2.1271                 1.2709
 IR Inten    --     36.7792                16.4100                 7.2419

                     43                     44                     45
                      A                      A                      A
 Frequencies --   1250.8552              1254.8454              1270.5293
 Red. masses --      1.2485                 1.2438                 1.3787
 Frc consts  --      1.1509                 1.1539                 1.3112
 IR Inten    --      6.2606                 1.7138                 5.6404

                     46                     47                     48
                      A                      A                      A
 Frequencies --   1287.7153              1299.8773              1307.0455
 Red. masses --      1.3588                 1.2068                 1.2593
 Frc consts  --      1.3275                 1.2014                 1.2676
 IR Inten    --     15.0948                 5.6445                 5.0631

                     49                     50                     51
                      A                      A                      A
 Frequencies --   1336.6252              1347.9712              1350.0453
 Red. masses --      1.3348                 1.3865                 1.3464
 Frc consts  --      1.4050                 1.4843                 1.4459
 IR Inten    --     21.9346                25.4316                 4.5962

                     52                     53                     54
                      A                      A                      A
 Frequencies --   1371.6000              1378.1552              1391.8149
 Red. masses --      2.1881                 1.3047                 1.5381
 Frc consts  --      2.4254                 1.4601                 1.7554
 IR Inten    --     82.2260                 2.5098                 3.9333

                     55                     56                     57
                      A                      A                      A
 Frequencies --   1405.0966              1414.0564              1420.5025
 Red. masses --      1.5214                 1.4596                 1.3993
 Frc consts  --      1.7697                 1.7195                 1.6635
 IR Inten    --     31.9003                 0.3783                 4.4420

                     58                     59                     60
                      A                      A                      A
 Frequencies --   1431.0422              1444.0579              1513.2830
 Red. masses --      1.4829                 1.2566                 1.0773
 Frc consts  --      1.7893                 1.5439                 1.4536
 IR Inten    --      6.4147                 2.1375                12.1793

                     61                     62                     63
                      A                      A                      A
 Frequencies --   1515.1476              1517.0042              1530.3506
 Red. masses --      1.0823                 1.0823                 1.0457
 Frc consts  --      1.4638                 1.4675                 1.4429
 IR Inten    --      0.8084                 4.3151                 5.1630

                     64                     65                     66
                      A                      A                      A
 Frequencies --   1534.1954              1537.3800              1539.4746
 Red. masses --      1.0904                 1.0639                 1.0869
 Frc consts  --      1.5121                 1.4815                 1.5177
 IR Inten    --      5.0989                 5.9693                 1.0766

                     67                     68                     69
                      A                      A                      A
 Frequencies --   1546.8602              1559.8780              2271.3992
 Red. masses --      1.0722                 1.1052                13.6205
 Frc consts  --      1.5116                 1.5844                41.4030
 IR Inten    --      3.7952                 1.6651               390.9343

                     70                     71                     72
                      A                      A                      A
 Frequencies --   2870.0365              2908.2580              2925.5702
 Red. masses --      1.0805                 1.0738                 1.0744
 Frc consts  --      5.2440                 5.3512                 5.4181
 IR Inten    --     58.2090                61.8252               115.2262

                     73                     74                     75
                      A                      A                      A
 Frequencies --   3047.7862              3050.0671              3060.4380
 Red. masses --      1.0433                 1.0583                 1.0617
 Frc consts  --      5.7100                 5.8006                 5.8588
 IR Inten    --      6.6167                42.6646                19.6184

                     76                     77                     78
                      A                      A                      A
 Frequencies --   3074.0200              3076.8031              3085.9703
 Red. masses --      1.0644                 1.0600                 1.0634
 Frc consts  --      5.9260                 5.9123                 5.9668
 IR Inten    --     25.9301                25.6208                52.1278

                     79                     80                     81
                      A                      A                      A
 Frequencies --   3090.8471              3106.1970              3110.8303
 Red. masses --      1.0956                 1.0989                 1.1022
 Frc consts  --      6.1670                 6.2468                 6.2844
 IR Inten    --      5.9936                17.7355                16.2465

                     82                     83                     84
                      A                      A                      A
 Frequencies --   3113.4897              3115.4972              3116.8797
 Red. masses --      1.1012                 1.1016                 1.0922
 Frc consts  --      6.2896                 6.2998                 6.2516
 IR Inten    --     31.8754                44.6136                 0.3410

                     85                     86                     87
                      A                      A                      A
 Frequencies --   3123.7625              3124.5928              3135.7891
 Red. masses --      1.0985                 1.0947                 1.1050
 Frc consts  --      6.3152                 6.2969                 6.4021
 IR Inten    --     71.6028                14.9862                51.8392

 - Thermochemistry -
 -------------------
 Temperature   298.150 Kelvin.  Pressure   1.00000 Atm.
 Atom     1 has atomic number  6 and mass  12.00000

 Molecular mass:   182.15315 amu.
 Principal axes and moments of inertia in atomic units:
                           1         2         3
     Eigenvalues --  1893.972082554.352123435.55440
           X            0.99986   0.01282  -0.01107
           Y           -0.01243   0.99932   0.03463
           Z            0.01151  -0.03449   0.99934
 This molecule is an asymmetric top.
 Rotational symmetry number  1.
 Warning -- assumption of classical behavior for rotation
           may cause significant error
 Rotational temperatures (Kelvin)      0.04573     0.03391     0.02521
 Rotational constants (GHZ):           0.95289     0.70654     0.52531
 Zero-point vibrational energy     728482.1 (Joules/Mol)
                                  174.11139 (Kcal/Mol)
 Warning -- explicit consideration of  19 degrees of freedom as
           vibrations may cause significant error
 Vibrational temperatures:     30.26    59.18   108.87   131.64   157.04
          (Kelvin)            170.57   256.85   270.21   308.91   366.30
                              375.57   461.15   505.10   534.84   572.79
                              657.75   801.80   821.38   893.07   934.12
                              951.78  1091.92  1152.53  1200.92  1235.66
                             1256.15  1292.25  1335.07  1358.40  1407.93
                             1428.58  1437.67  1467.71  1489.91  1546.56
                             1556.46  1618.64  1641.85  1657.72  1684.64
                             1742.52  1779.77  1799.70  1805.44  1828.01
                             1852.74  1870.23  1880.55  1923.11  1939.43
                             1942.41  1973.43  1982.86  2002.51  2021.62
                             2034.51  2043.79  2058.95  2077.68  2177.28
                             2179.96  2182.63  2201.83  2207.36  2211.95
                             2214.96  2225.59  2244.32  3268.04  4129.34
                             4184.33  4209.24  4385.08  4388.37  4403.29
                             4422.83  4426.83  4440.02  4447.04  4469.12
                             4475.79  4479.62  4482.51  4484.49  4494.40
                             4495.59  4511.70

 Zero-point correction=                           0.277464 (Hartree/Particle)
 Thermal correction to Energy=                    0.291156
 Thermal correction to Enthalpy=                  0.292100
 Thermal correction to Gibbs Free Energy=         0.235765
 Sum of electronic and zero-point Energies=           -572.506664
 Sum of electronic and thermal Energies=              -572.492972
 Sum of electronic and thermal Enthalpies=            -572.492028
 Sum of electronic and thermal Free Energies=         -572.548363

                     E (Thermal)             CV                S
                      KCal/Mol        Cal/Mol-Kelvin    Cal/Mol-Kelvin
 Total                  182.703             50.417            118.567
 Electronic               0.000              0.000              0.000
 Translational            0.889              2.981             41.506
 Rotational               0.889              2.981             31.186
 Vibrational            180.925             44.455             45.875
 Vibration     1          0.593              1.985              6.534
 Vibration     2          0.594              1.981              5.204
 Vibration     3          0.599              1.965              4.000
 Vibration     4          0.602              1.955              3.628
 Vibration     5          0.606              1.942              3.284
 Vibration     6          0.609              1.934              3.124
 Vibration     7          0.629              1.869              2.344
 Vibration     8          0.632              1.857              2.249
 Vibration     9          0.645              1.819              2.003
 Vibration    10          0.665              1.755              1.699
 Vibration    11          0.669              1.744              1.655
 Vibration    12          0.706              1.634              1.307
 Vibration    13          0.728              1.573              1.161
 Vibration    14          0.743              1.530              1.073
 Vibration    15          0.764              1.474              0.970
 Vibration    16          0.815              1.345              0.774
 Vibration    17          0.913              1.124              0.529
 Vibration    18          0.927              1.094              0.503
 Vibration    19          0.981              0.988              0.415

                           ! Non-Optimized Parameters !

 1\1\GINC-NODE101\Freq\RB3LYP\6-31G(d)\C9H18N4\VSC10255\09-Dec-2020\0\\
 #N Geom=AllCheck Guess=TCheck SCRF=Check GenChk RB3LYP/6-31G(d) Freq\\
 CID_150718283_JID_3513_neutraal\\0,1\C,0.9068947016,-0.0818522751,-0.0
 255764398\C,0.4961220459,1.3910050525,0.0561802936\C,0.872444711,2.230
 8185125,-1.1804250171\C,0.4007837897,1.5807472895,-2.4953499764\C,-1.1
 165276928,1.4167472067,-2.6503463598\N,-1.8178209872,2.6692852599,-3.0
 192162835\N,-2.3229664178,3.3132450097,-2.0987563649\N,-2.8512486753,3
 .9934759146,-1.3489385979\N,0.3375384968,3.586431572,-1.0655592643\C,0

 Normal termination of Gaussian 16 at Wed Dec  9 23:44:44 2020.

 ----------------------------------------------------------------------
 # B3LYP/6-311++G(d,p) empiricaldispersion=gd3bj scf=xqc pop=npa geom=c
 heck
 ----------------------------------------------------------------------

 ---------------------------------------
 CID_150718283_JID_3513_Energie_neutraal
 ---------------------------------------
 Structure from the checkpoint file:  "JID_3513.chk"
 Charge =  0 Multiplicity = 1

 SCF Done:  E(RB3LYP) =  -572.940327843     A.U. after   14 cycles
 Normal termination of Gaussian 16 at Wed Dec  9 23:49:12 2020.

 ----------------------------------------------------------------------
 # B3LYP/6-311++G(d,p) empiricaldispersion=gd3bj scf=xqc pop=npa geom=c
 heck
 ----------------------------------------------------------------------

 -------------------------------------
 CID_150718283_JID_3513_Energie_kation
 -------------------------------------
 Structure from the checkpoint file:  "JID_3513.chk"
 Charge =  1 Multiplicity = 2

 SCF Done:  E(UB3LYP) =  -572.646825632     A.U. after   24 cycles
 Normal termination of Gaussian 16 at Wed Dec  9 23:59:59 2020.
 Gaussian 16:  ES64L-G16RevA.03 25-Dec-2016

 ------------------------------------
 CID_150718283_JID_3513_Energie_anion
 ------------------------------------
 Structure from the checkpoint file:  "JID_3513.chk"
 Charge = -1 Multiplicity = 2

                         Standard orientation:
 ---------------------------------------------------------------------
 Center     Atomic      Atomic             Coordinates (Angstroms)
 Number     Number       Type             X           Y           Z
 ---------------------------------------------------------------------
      1          6           0        3.240150   -1.406794   -0.525533
      2          6           0        1.735336   -1.243356   -0.756945
      3          6           0        0.935413   -0.832178    0.494915
      4          6           0        1.539903    0.398412    1.197998
      5          6           0        1.561876    1.692170    0.374068
      6          7           0        0.249757    2.377877    0.304244
      7          7           0       -0.439347    2.155552   -0.692155
      8          7           0       -1.166563    2.054412   -1.566770
      9          7           0       -0.464270   -0.583731    0.154084
     10          6           0       -1.338533   -0.358055    1.312728
     11          6           0       -2.772905   -0.472568    0.755070
     12          6           0       -2.603531   -1.173950   -0.615917
     13          6           0       -1.139245   -1.625588   -0.623163
     14          1           0        3.739668   -0.450781   -0.336424
     15          1           0        3.716114   -1.854868   -1.404123
     16          1           0        3.440944   -2.062073    0.330959
     17          1           0        1.552466   -0.514636   -1.557045
     18          1           0        1.339388   -2.197106   -1.120241
     19          1           0        1.007144   -1.675839    1.216445
     20          1           0        1.012106    0.593872    2.136488
     21          1           0        2.572456    0.163421    1.479238
     22          1           0        2.227412    2.411035    0.860098
     23          1           0        1.952435    1.512919   -0.634639
     24          1           0       -1.142434    0.619483    1.758239
     25          1           0       -1.163656   -1.126024    2.092027
     26          1           0       -3.409092   -1.045528    1.436221
     27          1           0       -3.229095    0.513759    0.634743
     28          1           0       -3.292765   -2.011585   -0.757412
     29          1           0       -2.766606   -0.459240   -1.426940
     30          1           0       -1.032621   -2.622713   -0.148205
     31          1           0       -0.731686   -1.691420   -1.634571
 ---------------------------------------------------------------------

 SCF Done:  E(UB3LYP) =  -572.927113737     A.U. after   31 cycles

 The electronic state is 2-A.
 Alpha  occ. eigenvalues --  -14.35017 -14.24895 -14.23504 -14.19671 -10.10147
 Alpha  occ. eigenvalues --  -10.09457 -10.08802 -10.08464 -10.06759 -10.06648
 Alpha  occ. eigenvalues --  -10.06127 -10.06102 -10.05280  -1.01327  -0.85602
 Alpha  occ. eigenvalues --   -0.83145  -0.71178  -0.66075  -0.65249  -0.62246
 Alpha  occ. eigenvalues --   -0.58197  -0.53452  -0.49592  -0.47524  -0.45309
 Alpha  occ. eigenvalues --   -0.42084  -0.40675  -0.39732  -0.38418  -0.37689
 Alpha  occ. eigenvalues --   -0.36304  -0.33813  -0.33190  -0.32008  -0.31890
 Alpha  occ. eigenvalues --   -0.30096  -0.29663  -0.28161  -0.27479  -0.27045
 Alpha  occ. eigenvalues --   -0.26328  -0.24319  -0.23891  -0.23859  -0.22492
 Alpha  occ. eigenvalues --   -0.21941  -0.21153  -0.18246  -0.13385  -0.11569
 Alpha  occ. eigenvalues --    0.04685
 Alpha virt. eigenvalues --    0.06861   0.07021   0.08041   0.08622   0.09079
 Alpha virt. eigenvalues --    0.09632   0.09823   0.10752   0.11014   0.11782
 Alpha virt. eigenvalues --    0.12121   0.12532   0.12682   0.13194   0.13597

  Beta  occ. eigenvalues --  -14.34881 -14.24704 -14.23546 -14.19656 -10.10082
  Beta  occ. eigenvalues --  -10.09450 -10.08794 -10.08453 -10.06749 -10.06643
  Beta  occ. eigenvalues --  -10.06107 -10.06089 -10.05233  -1.01058  -0.85471
  Beta  occ. eigenvalues --   -0.83119  -0.71143  -0.66011  -0.65202  -0.62218
  Beta  occ. eigenvalues --   -0.58107  -0.53358  -0.49539  -0.47487  -0.45253
  Beta  occ. eigenvalues --   -0.42008  -0.40598  -0.39433  -0.38227  -0.37564
  Beta  occ. eigenvalues --   -0.36167  -0.33755  -0.32834  -0.31942  -0.31828
  Beta  occ. eigenvalues --   -0.30046  -0.29565  -0.28084  -0.27441  -0.26966
  Beta  occ. eigenvalues --   -0.26280  -0.24294  -0.23856  -0.23821  -0.22470
  Beta  occ. eigenvalues --   -0.21910  -0.21100  -0.17982  -0.13320  -0.11483
  Beta virt. eigenvalues --    0.06864   0.07696   0.08027   0.08558   0.09420
  Beta virt. eigenvalues --    0.09595   0.09968   0.10118   0.11148   0.11389
  Beta virt. eigenvalues --    0.12178   0.12415   0.12848   0.12927   0.13592

 Mulliken charges and spin densities:
               1          2
     1  C    1.535880  -2.332501
     2  C   -1.862394   1.862014
     3  C    0.425441  -0.816633
     4  C   -0.486587   0.414112
     5  C    1.225206  -1.882313
     6  N   -0.456950   0.074758
     7  N    0.572873   0.081357
     8  N   -0.347513   0.128177
     9  N    0.351174   0.071917
    10  C   -0.100805  -0.201703
    11  C    0.313987  -0.702506
    12  C   -0.374220  -0.101100
    13  C    0.112437  -0.230154
    14  H   -0.204834   0.366386
    15  H   -0.524150   0.661415
    16  H   -0.428732   0.581833
    17  H    0.171531  -0.008815
    18  H    0.041726   0.117573
    19  H    0.003192   0.130567
    20  H   -0.174237   0.371974
    21  H   -0.283837   0.451875
    22  H   -0.526034   0.735395
    23  H   -0.038902   0.207376
    24  H    0.072913   0.038521
    25  H   -0.106878   0.232214
    26  H    0.004595   0.115476
    27  H    0.011010   0.142307
    28  H   -0.016431   0.157197
    29  H    0.181746  -0.022867
    30  H   -0.062490   0.178483
    31  H   -0.028716   0.177664
 Sum of Mulliken charges =  -1.00000   1.00000

 Dipole moment (field-independent basis, Debye):
    X=             -5.8529    Y=             -0.3353    Z=             -0.7111  Tot=              5.9054
 Quadrupole moment (field-independent basis, Debye-Ang):
   XX=           -144.7735   YY=           -129.1458   ZZ=           -113.5476
   XY=              5.0416   XZ=             -2.0805   YZ=             -2.1077

 Summary of Natural Population Analysis:

                                       Natural Population
                Natural  -----------------------------------------------
    Atom  No    Charge         Core      Valence    Rydberg      Total
 -----------------------------------------------------------------------
      C    1   -0.28643      0.99966     2.28149    0.00528     3.28643
      C    2   -0.19619      0.99962     2.18729    0.00929     3.19619
      C    3    0.00367      0.99958     1.98353    0.01322     2.99633
      C    4   -0.20122      0.99959     2.19114    0.01049     3.20122
      C    5   -0.09191      0.99957     2.07977    0.01257     3.09191
      N    6   -0.19699      0.99970     2.68321    0.01408     3.69699
      N    7    0.13529      0.99969     2.34935    0.01567     3.36471
      N    8   -0.04150      0.99981     2.52824    0.01345     3.54150
      N    9   -0.29300      0.99970     2.77899    0.01431     3.79300
      C   10   -0.08750      0.99963     2.07715    0.01072     3.08750
      C   11   -0.19363      0.99964     2.18715    0.00684     3.19363
      C   12   -0.19455      0.99963     2.18770    0.00722     3.19455
      C   13   -0.08387      0.99963     2.07342    0.01082     3.08387
      H   14    0.09837      0.00000     0.40005    0.00158     0.40163
      H   15    0.10090      0.00000     0.39790    0.00120     0.39910
      H   16    0.09810      0.00000     0.40040    0.00149     0.40190
      H   17    0.09668      0.00000     0.40178    0.00154     0.40332
      H   18    0.09911      0.00000     0.39949    0.00140     0.40089
      H   19    0.08032      0.00000     0.41737    0.00231     0.41968
      H   20    0.10398      0.00000     0.39447    0.00154     0.39602
      H   21    0.10652      0.00000     0.39214    0.00134     0.39348
      H   22    0.10086      0.00000     0.39695    0.00218     0.39914
      H   23    0.09141      0.00000     0.40689    0.00170     0.40859
      H   24    0.10322      0.00000     0.39510    0.00168     0.39678
      H   25    0.07894      0.00000     0.41959    0.00147     0.42106
      H   26    0.09485      0.00000     0.40404    0.00111     0.40515
      H   27    0.09988      0.00000     0.39898    0.00114     0.40012
      H   28    0.09499      0.00000     0.40399    0.00102     0.40501
      H   29    0.10321      0.00000     0.39543    0.00137     0.39679
      H   30    0.07821      0.00000     0.42041    0.00138     0.42179
      H   31    0.09828      0.00000     0.40046    0.00126     0.40172
 =======================================================================
   * Total *   -0.00000     12.99544    36.83386    0.17069    50.00000

 Normal termination of Gaussian 16 at Thu Dec 10 00:13:59 2020.
