 Gaussian 16, Revision A.03,

 -----------------------------------------------------------
 # opt freq B3LYP/6-31G(d) empiricaldispersion=gd3bj scf=xqc
 -----------------------------------------------------------

 -------------------------------
 CID_101683367_JID_5848_neutraal
 -------------------------------
 Symbolic Z-matrix:
 Charge =  0 Multiplicity = 1

 SCF Done:  E(RB3LYP) =  -670.318379568     A.U. after   17 cycles
 SCF Done:  E(RB3LYP) =  -670.331222563     A.U. after   14 cycles
 SCF Done:  E(RB3LYP) =  -670.331951589     A.U. after   13 cycles
 SCF Done:  E(RB3LYP) =  -670.331977507     A.U. after   13 cycles
 SCF Done:  E(RB3LYP) =  -670.332340611     A.U. after   12 cycles
 SCF Done:  E(RB3LYP) =  -670.332382340     A.U. after   11 cycles
 SCF Done:  E(RB3LYP) =  -670.332396430     A.U. after    9 cycles
 SCF Done:  E(RB3LYP) =  -670.332397708     A.U. after    8 cycles
 Optimization completed.
    -- Stationary point found.
 Normal termination of Gaussian 16 at Thu Dec 10 17:10:21 2020.

 --------------------------------------------------------------------
 #N Geom=AllCheck Guess=TCheck SCRF=Check GenChk RB3LYP/6-31G(d) Freq
 --------------------------------------------------------------------

 Structure from the checkpoint file:  "JID_5848.chk"
 -------------------------------
 CID_101683367_JID_5848_neutraal
 -------------------------------
 Charge =  0 Multiplicity = 1

 SCF Done:  E(RB3LYP) =  -670.332397708     A.U. after    1 cycles

  Exact polarizability: 265.837 -12.468 144.147   1.373   0.418  63.583
 Approx polarizability: 516.045 -58.472 236.137   9.669   0.929  98.641

                      1                      2                      3
                      A                      A                      A
 Frequencies --     44.0650                64.5615                74.3602
 Red. masses --      2.9753                 3.5824                 2.0384
 Frc consts  --      0.0034                 0.0088                 0.0066
 IR Inten    --      7.6443                 1.1039                 0.7722

                      4                      5                      6
                      A                      A                      A
 Frequencies --     97.5911               146.8569               160.6153
 Red. masses --      1.4142                 2.5341                 1.7834
 Frc consts  --      0.0079                 0.0322                 0.0271
 IR Inten    --      0.0660                 0.5291                 1.9437

                      7                      8                      9
                      A                      A                      A
 Frequencies --    178.9004               191.4690               212.7906
 Red. masses --      1.6251                 1.9786                 2.6271
 Frc consts  --      0.0306                 0.0427                 0.0701
 IR Inten    --      0.3790                 0.5714                 1.5630

                     10                     11                     12
                      A                      A                      A
 Frequencies --    275.6241               309.5307               341.6301
 Red. masses --      2.7150                 3.9105                 5.6096
 Frc consts  --      0.1215                 0.2207                 0.3857
 IR Inten    --      4.3659                 6.5968                 1.8397

                     13                     14                     15
                      A                      A                      A
 Frequencies --    363.9308               378.6262               397.8924
 Red. masses --      4.9161                 6.5082                 2.9143
 Frc consts  --      0.3836                 0.5497                 0.2718
 IR Inten    --      1.6750                 9.8090                 6.3453

                     16                     17                     18
                      A                      A                      A
 Frequencies --    409.4389               453.1503               491.3115
 Red. masses --      4.4694                 3.7500                 3.5300
 Frc consts  --      0.4414                 0.4537                 0.5020
 IR Inten    --      3.0765                 3.4305                 0.2057

                     19                     20                     21
                      A                      A                      A
 Frequencies --    540.7704               547.3862               555.3330
 Red. masses --      4.8119                 3.8140                 4.8376
 Frc consts  --      0.8291                 0.6733                 0.8790
 IR Inten    --      0.0545                 2.8589                 0.2026

                     22                     23                     24
                      A                      A                      A
 Frequencies --    610.6755               677.2430               717.9397
 Red. masses --      5.6372                 5.4990                 4.4197
 Frc consts  --      1.2386                 1.4860                 1.3422
 IR Inten    --      3.4824                17.0982                 1.1526

                     25                     26                     27
                      A                      A                      A
 Frequencies --    724.5579               739.6456               763.0981
 Red. masses --      5.0895                 3.8031                 4.8058
 Frc consts  --      1.5743                 1.2258                 1.6488
 IR Inten    --      2.3961                10.6608                 9.1122

                     28                     29                     30
                      A                      A                      A
 Frequencies --    790.7899               824.9760               847.0287
 Red. masses --      1.7076                 4.8326                 1.4162
 Frc consts  --      0.6291                 1.9378                 0.5986
 IR Inten    --     10.2153                10.9856                 0.5378

                     31                     32                     33
                      A                      A                      A
 Frequencies --    862.1383               910.0452               929.2543
 Red. masses --      1.4479                 2.3627                 1.2693
 Frc consts  --      0.6341                 1.1529                 0.6458
 IR Inten    --     56.3901                 1.2152                 3.2960

                     34                     35                     36
                      A                      A                      A
 Frequencies --   1025.8772              1064.0074              1072.3126
 Red. masses --      4.6242                 1.4858                 2.2014
 Frc consts  --      2.8673                 0.9910                 1.4914
 IR Inten    --     21.7384                 2.5814                 5.8046

                     37                     38                     39
                      A                      A                      A
 Frequencies --   1083.4318              1150.5987              1155.5529
 Red. masses --      1.8817                 1.3550                 1.9333
 Frc consts  --      1.3014                 1.0569                 1.5210
 IR Inten    --      1.8997                14.8696                15.9405

                     40                     41                     42
                      A                      A                      A
 Frequencies --   1176.1425              1190.4463              1223.5569
 Red. masses --      1.2500                 1.7365                 1.4345
 Frc consts  --      1.0188                 1.4499                 1.2653
 IR Inten    --      0.9021               158.2955                 2.3920

                     43                     44                     45
                      A                      A                      A
 Frequencies --   1225.0559              1254.6248              1266.4770
 Red. masses --      2.0476                 2.3790                 1.7290
 Frc consts  --      1.8105                 2.2064                 1.6339
 IR Inten    --      3.9685               282.2143               125.6913

                     46                     47                     48
                      A                      A                      A
 Frequencies --   1291.2253              1344.8765              1401.0914
 Red. masses --      2.9496                 5.7077                 2.4536
 Frc consts  --      2.8975                 6.0824                 2.8378
 IR Inten    --     34.8209                74.1372                17.4036

                     49                     50                     51
                      A                      A                      A
 Frequencies --   1404.2623              1442.6262              1456.2855
 Red. masses --      4.1111                 1.4050                 1.4686
 Frc consts  --      4.7764                 1.7228                 1.8350
 IR Inten    --    136.9489                 1.1373                14.5486

                     52                     53                     54
                      A                      A                      A
 Frequencies --   1494.4123              1498.5422              1501.5633
 Red. masses --      1.7699                 1.2445                 1.2238
 Frc consts  --      2.3289                 1.6466                 1.6258
 IR Inten    --     11.2794                43.5820                10.2165

                     55                     56                     57
                      A                      A                      A
 Frequencies --   1510.0370              1510.9126              1514.4481
 Red. masses --      1.3735                 1.1470                 1.3750
 Frc consts  --      1.8453                 1.5427                 1.8580
 IR Inten    --     76.9443                 3.6373                 3.4035

                     58                     59                     60
                      A                      A                      A
 Frequencies --   1521.1388              1531.4187              1551.3991
 Red. masses --      1.0528                 1.0550                 1.1953
 Frc consts  --      1.4353                 1.4578                 1.6950
 IR Inten    --     45.5515                19.8326                 8.7438

                     61                     62                     63
                      A                      A                      A
 Frequencies --   1577.1004              1601.8690              1645.6019
 Red. masses --      3.5711                 5.9485                 6.8634
 Frc consts  --      5.2333                 8.9932                10.9507
 IR Inten    --    198.1373                63.8225               240.6349

                     64                     65                     66
                      A                      A                      A
 Frequencies --   1671.1035              1705.2599              3049.7401
 Red. masses --      6.1238                 7.8069                 1.0474
 Frc consts  --     10.0758                13.3755                 5.7396
 IR Inten    --    551.9405                66.4402                16.0952

                     67                     68                     69
                      A                      A                      A
 Frequencies --   3066.0262              3067.7877              3102.1098
 Red. masses --      1.0387                 1.0321                 1.0968
 Frc consts  --      5.7529                 5.7228                 6.2186
 IR Inten    --     92.4329                79.0459                14.3611

                     70                     71                     72
                      A                      A                      A
 Frequencies --   3131.6699              3139.8198              3174.3363
 Red. masses --      1.1020                 1.1076                 1.1022
 Frc consts  --      6.3680                 6.4332                 6.5436
 IR Inten    --     18.0659                43.1113                 8.2424

                     73                     74                     75
                      A                      A                      A
 Frequencies --   3185.5306              3196.6258              3198.8860
 Red. masses --      1.1037                 1.0901                 1.0935
 Frc consts  --      6.5986                 6.5628                 6.5926
 IR Inten    --     12.2617                10.8193                 0.9797

                     76                     77                     78
                      A                      A                      A
 Frequencies --   3215.3734              3225.6107              3242.9132
 Red. masses --      1.0887                 1.0873                 1.0958
 Frc consts  --      6.6316                 6.6654                 6.7900
 IR Inten    --      4.0512                14.1464                 9.7951

 - Thermochemistry -
 -------------------
 Temperature   298.150 Kelvin.  Pressure   1.00000 Atm.
 Atom     1 has atomic number  6 and mass  12.00000

 Molecular mass:   203.09463 amu.
 Principal axes and moments of inertia in atomic units:
                           1         2         3
     Eigenvalues --  1306.674704859.396196110.95886
           X            0.99999  -0.00205  -0.00356
           Y            0.00205   1.00000  -0.00050
           Z            0.00356   0.00049   0.99999
 This molecule is an asymmetric top.
 Rotational symmetry number  1.
 Warning -- assumption of classical behavior for rotation
           may cause significant error
 Rotational temperatures (Kelvin)      0.06629     0.01782     0.01417
 Rotational constants (GHZ):           1.38117     0.37139     0.29533
 Zero-point vibrational energy     602277.4 (Joules/Mol)
                                  143.94775 (Kcal/Mol)
 Warning -- explicit consideration of  22 degrees of freedom as
           vibrations may cause significant error
 Vibrational temperatures:     63.40    92.89   106.99   140.41   211.29
          (Kelvin)            231.09   257.40   275.48   306.16   396.56
                              445.35   491.53   523.62   544.76   572.48
                              589.09   651.98   706.89   778.05   787.57
                              799.00   878.63   974.40  1032.96  1042.48
                             1064.19  1097.93  1137.77  1186.96  1218.69
                             1240.42  1309.35  1336.99  1476.01  1530.87
                             1542.82  1558.82  1655.45  1662.58  1692.21
                             1712.79  1760.43  1762.58  1805.13  1822.18
                             1857.79  1934.98  2015.86  2020.42  2075.62
                             2095.27  2150.13  2156.07  2160.41  2172.61
                             2173.87  2178.95  2188.58  2203.37  2232.12
                             2269.10  2304.73  2367.65  2404.35  2453.49
                             4387.90  4411.33  4413.86  4463.24  4505.77
                             4517.50  4567.16  4583.27  4599.23  4602.48
                             4626.21  4640.93  4665.83

 Zero-point correction=                           0.229395 (Hartree/Particle)
 Thermal correction to Energy=                    0.243378
 Thermal correction to Enthalpy=                  0.244322
 Thermal correction to Gibbs Free Energy=         0.188451
 Sum of electronic and zero-point Energies=           -670.103002
 Sum of electronic and thermal Energies=              -670.089019
 Sum of electronic and thermal Enthalpies=            -670.088075
 Sum of electronic and thermal Free Energies=         -670.143947

                     E (Thermal)             CV                S
                      KCal/Mol        Cal/Mol-Kelvin    Cal/Mol-Kelvin
 Total                  152.722             52.887            117.592
 Electronic               0.000              0.000              0.000
 Translational            0.889              2.981             41.830
 Rotational               0.889              2.981             32.029
 Vibrational            150.945             46.925             43.733
 Vibration     1          0.595              1.980              5.067
 Vibration     2          0.597              1.971              4.313
 Vibration     3          0.599              1.966              4.034
 Vibration     4          0.603              1.951              3.502
 Vibration     5          0.617              1.906              2.713
 Vibration     6          0.622              1.891              2.543
 Vibration     7          0.629              1.868              2.340
 Vibration     8          0.634              1.852              2.214
 Vibration     9          0.644              1.821              2.020
 Vibration    10          0.677              1.718              1.561
 Vibration    11          0.699              1.656              1.365
 Vibration    12          0.721              1.592              1.205
 Vibration    13          0.737              1.547              1.105
 Vibration    14          0.749              1.516              1.045
 Vibration    15          0.764              1.475              0.970
 Vibration    16          0.774              1.450              0.929
 Vibration    17          0.812              1.354              0.786
 Vibration    18          0.847              1.269              0.680
 Vibration    19          0.896              1.160              0.564
 Vibration    20          0.903              1.145              0.550
 Vibration    21          0.911              1.128              0.533
 Vibration    22          0.970              1.009              0.432

                           ! Non-Optimized Parameters !
 Normal termination of Gaussian 16 at Thu Dec 10 17:19:34 2020.

 ----------------------------------------------------------------------
 # B3LYP/6-311++G(d,p) empiricaldispersion=gd3bj scf=xqc pop=npa geom=c
 heck
 ----------------------------------------------------------------------

 ---------------------------------------
 CID_101683367_JID_5848_Energie_neutraal
 ---------------------------------------
 Structure from the checkpoint file:  "JID_5848.chk"
 Charge =  0 Multiplicity = 1

 SCF Done:  E(RB3LYP) =  -670.514264960     A.U. after   19 cycles
 Normal termination of Gaussian 16 at Thu Dec 10 17:24:28 2020.

 ----------------------------------------------------------------------
 # B3LYP/6-311++G(d,p) empiricaldispersion=gd3bj scf=xqc pop=npa geom=c
 heck
 ----------------------------------------------------------------------

 -------------------------------------
 CID_101683367_JID_5848_Energie_kation
 -------------------------------------
 Structure from the checkpoint file:  "JID_5848.chk"
 Charge =  1 Multiplicity = 2

 SCF Done:  E(UB3LYP) =  -670.263379636     A.U. after   27 cycles
 Normal termination of Gaussian 16 at Thu Dec 10 17:35:37 2020.
 Gaussian 16:  ES64L-G16RevA.03 25-Dec-2016

 ----------------------------------------------------------------------
 # B3LYP/6-311++G(d,p) empiricaldispersion=gd3bj scf=xqc pop=npa geom=c
 heck
 ----------------------------------------------------------------------

 ------------------------------------
 CID_101683367_JID_5848_Energie_anion
 ------------------------------------
 Structure from the checkpoint file:  "JID_5848.chk"
 Charge = -1 Multiplicity = 2

                         Standard orientation:
 ---------------------------------------------------------------------
 Center     Atomic      Atomic             Coordinates (Angstroms)
 Number     Number       Type             X           Y           Z
 ---------------------------------------------------------------------
      1          6           0        2.069923   -2.263641   -0.073254
      2          6           0        1.791254   -0.786670   -0.022302
      3          6           0        0.511385   -0.244798   -0.029893
      4          6           0       -0.677323   -1.043596   -0.057248
      5          6           0       -1.928857   -0.495170   -0.075709
      6          6           0       -2.139169    0.977798   -0.089373
      7          8           0       -3.272070    1.483707   -0.170919
      8          6           0       -0.929209    1.754116   -0.012451
      9          6           0        0.331520    1.203297    0.007088
     10          6           0        1.523781    1.993038    0.062558
     11          6           0        2.746255    1.410813    0.082521
     12          7           0        2.896139    0.039544    0.044379
     13          6           0        4.250134   -0.511959    0.041763
     14          8           0       -2.959420   -1.371634   -0.151121
     15          6           0       -4.269015   -1.020797    0.317939
     16          1           0        1.161191   -2.827096   -0.269845
     17          1           0        2.489201   -2.628868    0.873054
     18          1           0        2.784955   -2.511511   -0.865247
     19          1           0       -0.625595   -2.125686   -0.057186
     20          1           0       -1.054813    2.833044   -0.002285
     21          1           0        1.450056    3.074734    0.094644
     22          1           0        3.666596    1.978999    0.128719
     23          1           0        4.372999   -1.254741    0.833889
     24          1           0        4.489706   -0.977554   -0.920091
     25          1           0        4.955954    0.299589    0.218897
     26          1           0       -4.223934   -0.545506    1.301952
     27          1           0       -4.773889   -0.348266   -0.373756
     28          1           0       -4.797548   -1.975121    0.393088
 ---------------------------------------------------------------------

 SCF Done:  E(UB3LYP) =  -670.520575946     A.U. after   33 cycles
 SCF Done:  E(UB3LYP) =  -670.520575946     a.u. after    1 cycles

 The electronic state is 2-A.
 Alpha  occ. eigenvalues --  -19.02314 -18.92185 -14.25804 -10.10966 -10.10240
 Alpha  occ. eigenvalues --  -10.09933 -10.09420 -10.09166 -10.08575 -10.06790
 Alpha  occ. eigenvalues --  -10.05825 -10.05752 -10.05707 -10.03689 -10.02054
 Alpha  occ. eigenvalues --   -0.93808  -0.87583  -0.85577  -0.72778  -0.69071
 Alpha  occ. eigenvalues --   -0.66004  -0.62867  -0.60108  -0.58577  -0.56695
 Alpha  occ. eigenvalues --   -0.51297  -0.48848  -0.46673  -0.42140  -0.41097
 Alpha  occ. eigenvalues --   -0.39434  -0.37267  -0.35804  -0.35256  -0.34236
 Alpha  occ. eigenvalues --   -0.32626  -0.31317  -0.31261  -0.31111  -0.30683
 Alpha  occ. eigenvalues --   -0.29488  -0.28223  -0.27731  -0.26558  -0.25208
 Alpha  occ. eigenvalues --   -0.24292  -0.22981  -0.21692  -0.20017  -0.19122
 Alpha  occ. eigenvalues --   -0.17000  -0.09804  -0.08951  -0.06686   0.03610
 Alpha virt. eigenvalues --    0.05716   0.07525   0.08551   0.08624   0.09149
 Alpha virt. eigenvalues --    0.09869   0.10417   0.11872   0.11988   0.12226
 Alpha virt. eigenvalues --    0.12658   0.13013   0.13679   0.13917   0.14519

  Beta  occ. eigenvalues --  -19.02309 -18.91986 -14.25642 -10.10926 -10.10255
  Beta  occ. eigenvalues --  -10.09933 -10.09126 -10.08973 -10.08476 -10.06804
  Beta  occ. eigenvalues --  -10.05906 -10.05700 -10.05588 -10.03594 -10.02118
  Beta  occ. eigenvalues --   -0.93777  -0.87221  -0.85235  -0.72586  -0.68790
  Beta  occ. eigenvalues --   -0.65732  -0.62782  -0.60014  -0.58462  -0.56582
  Beta  occ. eigenvalues --   -0.51197  -0.48507  -0.46511  -0.42035  -0.40967
  Beta  occ. eigenvalues --   -0.39305  -0.36776  -0.35660  -0.35178  -0.34166
  Beta  occ. eigenvalues --   -0.32503  -0.31235  -0.31067  -0.30819  -0.30637
  Beta  occ. eigenvalues --   -0.29369  -0.28155  -0.27326  -0.26436  -0.24743
  Beta  occ. eigenvalues --   -0.24128  -0.22820  -0.21546  -0.19776  -0.18437
  Beta  occ. eigenvalues --   -0.16255  -0.09350  -0.08672  -0.05835
  Beta virt. eigenvalues --    0.06455   0.07886   0.08374   0.08627   0.09156
  Beta virt. eigenvalues --    0.09323   0.10325   0.10590   0.11990   0.12036
  Beta virt. eigenvalues --    0.12326   0.12831   0.13226   0.13875   0.14079

 Mulliken charges and spin densities:
               1          2
     1  C    0.172826  -0.871792
     2  C   -0.156688   0.535325
     3  C    0.864105   0.029408
     4  C   -1.256905  -0.120726
     5  C    0.188755   0.079302
     6  C   -0.053320   0.091028
     7  O   -0.434610   0.068981
     8  C   -0.821218  -0.191647
     9  C    0.870053   0.283209
    10  C   -0.353315  -0.242906
    11  C   -0.167132   0.183669
    12  N   -0.015499   0.260858
    13  C    0.921229  -1.228635
    14  O   -0.201681   0.000137
    15  C   -0.278330  -0.002332
    16  H    0.094402   0.044601
    17  H   -0.156829   0.335128
    18  H    0.120119   0.012524
    19  H    0.122994  -0.021108
    20  H    0.110203  -0.001256
    21  H    0.118951   0.012569
    22  H   -0.011785   0.153153
    23  H   -0.182443   0.342278
    24  H   -0.436675   0.632461
    25  H   -0.482389   0.615728
    26  H    0.144193   0.000522
    27  H    0.177212  -0.000152
    28  H    0.103776  -0.000327
 Sum of Mulliken charges =  -1.00000   1.00000

 Dipole moment (field-independent basis, Debye):
    X=             -0.5141    Y=             -1.0576    Z=              1.0271  Tot=              1.5613
 Quadrupole moment (field-independent basis, Debye-Ang):
   XX=           -163.0015   YY=           -112.4925   ZZ=           -106.2451
   XY=             17.3292   XZ=             -0.8011   YZ=              2.0697

 Summary of Natural Population Analysis:

                                       Natural Population
                Natural  -----------------------------------------------
    Atom  No    Charge         Core      Valence    Rydberg      Total
 -----------------------------------------------------------------------
      C    1   -0.30793      0.99964     2.30297    0.00532     3.30793
      C    2    0.20971      0.99950     1.77965    0.01114     2.79029
      C    3   -0.07314      0.99947     2.06482    0.00885     3.07314
      C    4   -0.10386      0.99944     2.09481    0.00960     3.10386
      C    5    0.14515      0.99938     1.84157    0.01391     2.85485
      C    6    0.20727      0.99954     1.77192    0.02127     2.79273
      O    7   -0.33237      0.99989     3.32581    0.00668     4.33237
      C    8   -0.17140      0.99950     2.16291    0.00899     3.17140
      C    9    0.00714      0.99949     1.98282    0.01055     2.99286
      C   10   -0.11198      0.99954     2.10314    0.00930     3.11198
      C   11    0.00845      0.99954     1.98053    0.01148     2.99155
      N   12   -0.18524      0.99962     2.67620    0.00942     3.68524
      C   13   -0.17307      0.99964     2.16611    0.00732     3.17307
      O   14   -0.28541      0.99985     3.27453    0.01103     4.28541
      C   15   -0.09517      0.99960     2.08735    0.00822     3.09517
      H   16    0.10760      0.00000     0.39126    0.00115     0.39240
      H   17    0.10995      0.00000     0.38853    0.00152     0.39005
      H   18    0.10550      0.00000     0.39358    0.00092     0.39450
      H   19    0.09402      0.00000     0.40342    0.00256     0.40598
      H   20    0.09444      0.00000     0.40374    0.00181     0.40556
      H   21    0.09960      0.00000     0.39914    0.00126     0.40040
      H   22    0.09430      0.00000     0.40481    0.00090     0.40570
      H   23    0.09881      0.00000     0.40012    0.00108     0.40119
      H   24    0.10234      0.00000     0.39418    0.00347     0.39766
      H   25    0.09937      0.00000     0.39937    0.00126     0.40063
      H   26    0.08412      0.00000     0.41472    0.00116     0.41588
      H   27    0.09628      0.00000     0.40249    0.00123     0.40372
      H   28    0.07551      0.00000     0.42351    0.00098     0.42449
 =======================================================================
   * Total *    0.00001     14.99364    38.83400    0.17236    53.99999

 Normal termination of Gaussian 16 at Thu Dec 10 17:46:45 2020.
