 Gaussian 16, Revision A.03,

 -----------------------------------------------------------
 # opt freq B3LYP/6-31G(d) empiricaldispersion=gd3bj scf=xqc
 -----------------------------------------------------------

 -------------------------------
 CID_145779792_JID_1306_neutraal
 -------------------------------
 Symbolic Z-matrix:
 Charge =  0 Multiplicity = 1

 SCF Done:  E(RB3LYP) =  -511.603801378     A.U. after   14 cycles
 SCF Done:  E(RB3LYP) =  -511.609099305     A.U. after   14 cycles
 SCF Done:  E(RB3LYP) =  -511.605063469     A.U. after   14 cycles
 SCF Done:  E(RB3LYP) =  -511.610299160     A.U. after   12 cycles
 SCF Done:  E(RB3LYP) =  -511.610536694     A.U. after   11 cycles
 SCF Done:  E(RB3LYP) =  -511.611070347     A.U. after   13 cycles
 SCF Done:  E(RB3LYP) =  -511.611234971     A.U. after   12 cycles
 SCF Done:  E(RB3LYP) =  -511.611264556     A.U. after   12 cycles
 SCF Done:  E(RB3LYP) =  -511.611338913     A.U. after   12 cycles
 SCF Done:  E(RB3LYP) =  -511.611330838     A.U. after   12 cycles
 SCF Done:  E(RB3LYP) =  -511.614307755     A.U. after   11 cycles
 SCF Done:  E(RB3LYP) =  -511.614323817     A.U. after   12 cycles
 SCF Done:  E(RB3LYP) =  -511.614332304     A.U. after   12 cycles
 SCF Done:  E(RB3LYP) =  -511.614335174     A.U. after   11 cycles
 SCF Done:  E(RB3LYP) =  -511.614336175     A.U. after   10 cycles
 Optimization completed.
    -- Stationary point found.
 Normal termination of Gaussian 16 at Tue Dec  8 19:44:57 2020.

 --------------------------------------------------------------------
 #N Geom=AllCheck Guess=TCheck SCRF=Check GenChk RB3LYP/6-31G(d) Freq
 --------------------------------------------------------------------

 Structure from the checkpoint file:  "JID_1306.chk"
 -------------------------------
 CID_145779792_JID_1306_neutraal
 -------------------------------
 Charge =  0 Multiplicity = 1

 SCF Done:  E(RB3LYP) =  -511.614336175     A.U. after    1 cycles

  Exact polarizability: 129.834   1.546  89.114  -9.587  -1.402  63.486
 Approx polarizability: 193.252   0.931 144.657 -18.350  -6.540  98.228

                      1                      2                      3
                      A                      A                      A
 Frequencies --     49.2323                73.9008               144.2451
 Red. masses --      5.1786                 6.6220                 2.7090
 Frc consts  --      0.0074                 0.0213                 0.0332
 IR Inten    --      9.0626                 1.7298                 1.2322

                      4                      5                      6
                      A                      A                      A
 Frequencies --    189.1460               236.1326               302.9317
 Red. masses --      2.8770                 3.2517                 2.3024
 Frc consts  --      0.0606                 0.1068                 0.1245
 IR Inten    --      1.6403                13.2500                 0.5608

                      7                      8                      9
                      A                      A                      A
 Frequencies --    365.3636               387.7557               417.1809
 Red. masses --      2.6607                 3.6988                 5.3008
 Frc consts  --      0.2093                 0.3277                 0.5436
 IR Inten    --      2.0565                 6.6796                12.9524

                     10                     11                     12
                      A                      A                      A
 Frequencies --    510.2259               538.2892               586.1595
 Red. masses --      4.5919                 2.2674                 3.8448
 Frc consts  --      0.7043                 0.3871                 0.7783
 IR Inten    --     11.7618               107.8059                33.8494

                     13                     14                     15
                      A                      A                      A
 Frequencies --    621.2201               669.5738               740.1812
 Red. masses --      3.8523                 4.1915                 1.2202
 Frc consts  --      0.8759                 1.1072                 0.3939
 IR Inten    --     16.8245                13.9000                56.7744

                     16                     17                     18
                      A                      A                      A
 Frequencies --    752.8184               808.9188               825.4576
 Red. masses --      3.0331                 1.6540                 3.5159
 Frc consts  --      1.0128                 0.6377                 1.4115
 IR Inten    --      5.0204                 1.3647                 5.3904

                     19                     20                     21
                      A                      A                      A
 Frequencies --    871.0944               932.5847               943.8153
 Red. masses --      3.3711                 2.3686                 2.0406
 Frc consts  --      1.5071                 1.2137                 1.0710
 IR Inten    --     13.5036                 1.5222                 8.2695

                     22                     23                     24
                      A                      A                      A
 Frequencies --    960.5942              1010.3572              1045.3831
 Red. masses --      2.2705                 2.3788                 2.0782
 Frc consts  --      1.2344                 1.4307                 1.3381
 IR Inten    --      4.7723                 3.4169                10.7223

                     25                     26                     27
                      A                      A                      A
 Frequencies --   1081.0295              1120.1818              1133.7455
 Red. masses --      2.7228                 2.6297                 2.1972
 Frc consts  --      1.8747                 1.9441                 1.6640
 IR Inten    --     16.2777                17.3701                23.9568

                     28                     29                     30
                      A                      A                      A
 Frequencies --   1168.6976              1208.4008              1244.9237
 Red. masses --      2.8646                 1.5386                 1.6633
 Frc consts  --      2.3052                 1.3237                 1.5189
 IR Inten    --     60.4599                10.6563                 1.4292

                     31                     32                     33
                      A                      A                      A
 Frequencies --   1264.6833              1283.3843              1297.5431
 Red. masses --      1.3602                 1.6487                 1.8023
 Frc consts  --      1.2818                 1.5999                 1.7878
 IR Inten    --      6.7313                29.2318                20.5025

                     34                     35                     36
                      A                      A                      A
 Frequencies --   1331.0275              1350.0313              1367.7482
 Red. masses --      1.3274                 1.4611                 1.6507
 Frc consts  --      1.3856                 1.5690                 1.8194
 IR Inten    --      2.8013                17.2562                 5.9533

                     37                     38                     39
                      A                      A                      A
 Frequencies --   1397.5456              1420.4251              1440.1480
 Red. masses --      1.3845                 1.2984                 1.5535
 Frc consts  --      1.5932                 1.5435                 1.8983
 IR Inten    --      0.4696                 1.4849                18.3193

                     40                     41                     42
                      A                      A                      A
 Frequencies --   1482.4183              1529.4775              1552.2518
 Red. masses --      2.0739                 1.1245                 1.1890
 Frc consts  --      2.6853                 1.5499                 1.6880
 IR Inten    --     49.3506                 2.5642                27.2731

                     43                     44                     45
                      A                      A                      A
 Frequencies --   1641.7339              1702.0807              1828.2208
 Red. masses --      6.5257                 7.2353                 9.7695
 Frc consts  --     10.3630                12.3499                19.2389
 IR Inten    --    247.5166               118.5887               245.4504

                     46                     47                     48
                      A                      A                      A
 Frequencies --   2880.7017              2929.1916              2989.3462
 Red. masses --      1.0732                 1.0855                 1.0720
 Frc consts  --      5.2472                 5.4873                 5.6439
 IR Inten    --    106.5102                62.0159                55.4397

                     49                     50                     51
                      A                      A                      A
 Frequencies --   3080.9785              3091.4779              3114.2353
 Red. masses --      1.0867                 1.0925                 1.0881
 Frc consts  --      6.0774                 6.1517                 6.2178
 IR Inten    --     28.5081                25.2963                26.7041

                     52                     53                     54
                      A                      A                      A
 Frequencies --   3158.7390              3229.9729              3592.2930
 Red. masses --      1.0897                 1.0919                 1.0770
 Frc consts  --      6.4062                 6.7114                 8.1883
 IR Inten    --     28.6951                15.9283                21.4791

 - Thermochemistry -
 -------------------
 Temperature   298.150 Kelvin.  Pressure   1.00000 Atm.
 Atom     1 has atomic number  6 and mass  12.00000

 Molecular mass:   151.07456 amu.
 Principal axes and moments of inertia in atomic units:
                           1         2         3
     Eigenvalues --   662.703172462.193792740.70122
           X            0.99992   0.01006  -0.00708
           Y           -0.01000   0.99992   0.00777
           Z            0.00716  -0.00770   0.99994
 This molecule is an asymmetric top.
 Rotational symmetry number  1.
 Warning -- assumption of classical behavior for rotation
           may cause significant error
 Rotational temperatures (Kelvin)      0.13070     0.03518     0.03160
 Rotational constants (GHZ):           2.72330     0.73298     0.65850
 Zero-point vibrational energy     424047.4 (Joules/Mol)
                                  101.34977 (Kcal/Mol)
 Warning -- explicit consideration of  12 degrees of freedom as
           vibrations may cause significant error
 Vibrational temperatures:     70.83   106.33   207.54   272.14   339.74
          (Kelvin)            435.85   525.68   557.89   600.23   734.10
                              774.48   843.35   893.80   963.37  1064.96
                             1083.14  1163.85  1187.65  1253.31  1341.78
                             1357.94  1382.08  1453.68  1504.07  1555.36
                             1611.69  1631.21  1681.50  1738.62  1791.17
                             1819.60  1846.50  1866.88  1915.05  1942.39
                             1967.88  2010.76  2043.67  2072.05  2132.87
                             2200.58  2233.34  2362.09  2448.91  2630.40
                             4144.69  4214.45  4301.00  4432.84  4447.95
                             4480.69  4544.72  4647.21  5168.51

 Zero-point correction=                           0.161511 (Hartree/Particle)
 Thermal correction to Energy=                    0.170761
 Thermal correction to Enthalpy=                  0.171705
 Thermal correction to Gibbs Free Energy=         0.126325
 Sum of electronic and zero-point Energies=           -511.452825
 Sum of electronic and thermal Energies=              -511.443576
 Sum of electronic and thermal Enthalpies=            -511.442631
 Sum of electronic and thermal Free Energies=         -511.488011

                     E (Thermal)             CV                S
                      KCal/Mol        Cal/Mol-Kelvin    Cal/Mol-Kelvin
 Total                  107.154             35.093             95.509
 Electronic               0.000              0.000              0.000
 Translational            0.889              2.981             40.948
 Rotational               0.889              2.981             29.882
 Vibrational            105.376             29.132             24.679
 Vibration     1          0.595              1.978              4.848
 Vibration     2          0.599              1.966              4.047
 Vibration     3          0.616              1.909              2.747
 Vibration     4          0.633              1.855              2.236
 Vibration     5          0.655              1.785              1.832
 Vibration     6          0.694              1.668              1.401
 Vibration     7          0.739              1.544              1.099
 Vibration     8          0.756              1.496              1.009
 Vibration     9          0.780              1.433              0.902
 Vibration    10          0.865              1.227              0.633
 Vibration    11          0.893              1.165              0.569
 Vibration    12          0.943              1.061              0.474

 Optimization completed.
    -- Stationary point found.
 Normal termination of Gaussian 16 at Tue Dec  8 19:49:15 2020.

 ----------------------------------------------------------------------
 # B3LYP/6-311++G(d,p) empiricaldispersion=gd3bj scf=xqc pop=npa geom=c
 heck
 ----------------------------------------------------------------------

 ---------------------------------------
 CID_145779792_JID_1306_Energie_neutraal
 ---------------------------------------
 Structure from the checkpoint file:  "JID_1306.chk"
 Charge =  0 Multiplicity = 1

 SCF Done:  E(RB3LYP) =  -511.760390228     A.U. after   15 cycles
 Normal termination of Gaussian 16 at Tue Dec  8 19:51:23 2020.

 ----------------------------------------------------------------------
 # B3LYP/6-311++G(d,p) empiricaldispersion=gd3bj scf=xqc pop=npa geom=c
 heck
 ----------------------------------------------------------------------

 -------------------------------------
 CID_145779792_JID_1306_Energie_kation
 -------------------------------------
 Structure from the checkpoint file:  "JID_1306.chk"
 Charge =  1 Multiplicity = 2

 SCF Done:  E(UB3LYP) =  -511.492868297     A.U. after   21 cycles
 Normal termination of Gaussian 16 at Tue Dec  8 19:55:02 2020.
 Gaussian 16:  ES64L-G16RevA.03 25-Dec-2016

 ----------------------------------------------------------------------
 # B3LYP/6-311++G(d,p) empiricaldispersion=gd3bj scf=xqc pop=npa geom=c
 heck
 ----------------------------------------------------------------------

 ------------------------------------
 CID_145779792_JID_1306_Energie_anion
 ------------------------------------
 Structure from the checkpoint file:  "JID_1306.chk"
 Charge = -1 Multiplicity = 2

                         Standard orientation:
 ---------------------------------------------------------------------
 Center     Atomic      Atomic             Coordinates (Angstroms)
 Number     Number       Type             X           Y           Z
 ---------------------------------------------------------------------
      1          6           0        1.754660    1.341730    0.047026
      2          6           0        2.776439    0.405018   -0.580320
      3          7           0        2.700281   -0.872737   -0.495124
      4          6           0        1.584033   -1.441387    0.124485
      5          6           0        0.478584   -0.680631    0.331067
      6          7           0        0.466704    0.668242   -0.009119
      7          6           0       -0.722235    1.290234    0.551484
      8          6           0       -1.703077    0.099887    0.609668
      9          7           0       -0.770906   -1.012032    0.846248
     10          6           0       -2.439510   -0.084823   -0.710511
     11          8           0       -3.645464   -0.136677   -0.804136
     12          1           0        2.035517    1.582582    1.095583
     13          1           0        1.693719    2.288386   -0.500749
     14          1           0        3.629013    0.843913   -1.097645
     15          1           0        1.603125   -2.508070    0.310595
     16          1           0       -1.082935    2.109526   -0.079721
     17          1           0       -0.538727    1.684054    1.565276
     18          1           0       -2.438144    0.188708    1.413700
     19          1           0       -1.107543   -1.954478    0.689526
     20          1           0       -1.776226   -0.205684   -1.594900
 ---------------------------------------------------------------------

 SCF Done:  E(UB3LYP) =  -511.756194119     A.U. after   33 cycles
 SCF Done:  E(UB3LYP) =  -511.757029108     a.u. after    8 cycles

 The electronic state is 2-A.
 Alpha  occ. eigenvalues --  -18.95083 -14.21855 -14.21833 -14.18791 -10.12158
 Alpha  occ. eigenvalues --  -10.09520 -10.09095 -10.09067 -10.08016 -10.07658
 Alpha  occ. eigenvalues --  -10.05067  -0.89462  -0.88435  -0.80996  -0.77279
 Alpha  occ. eigenvalues --   -0.66068  -0.63208  -0.55665  -0.52706  -0.50015
 Alpha  occ. eigenvalues --   -0.45550  -0.43164  -0.39542  -0.37120  -0.36061
 Alpha  occ. eigenvalues --   -0.34208  -0.33129  -0.31876  -0.29640  -0.29496
 Alpha  occ. eigenvalues --   -0.27850  -0.27482  -0.25918  -0.24371  -0.22889
 Alpha  occ. eigenvalues --   -0.20903  -0.14852  -0.13628  -0.09899  -0.06735
 Alpha  occ. eigenvalues --    0.05354
 Alpha virt. eigenvalues --    0.07444   0.08794   0.09123   0.09800   0.10087
 Alpha virt. eigenvalues --    0.10929   0.11927   0.12530   0.13163   0.13458
 Alpha virt. eigenvalues --    0.15206   0.16088   0.16749   0.17872   0.18430

  Beta  occ. eigenvalues --  -18.94523 -14.21816 -14.21788 -14.18754 -10.12088
  Beta  occ. eigenvalues --  -10.09503 -10.09113 -10.08986 -10.07657 -10.07601
  Beta  occ. eigenvalues --  -10.05083  -0.89146  -0.87656  -0.80905  -0.77194
  Beta  occ. eigenvalues --   -0.65890  -0.63112  -0.55493  -0.52477  -0.49823
  Beta  occ. eigenvalues --   -0.44957  -0.43015  -0.39397  -0.36994  -0.35829
  Beta  occ. eigenvalues --   -0.34060  -0.32961  -0.31762  -0.29328  -0.29242
  Beta  occ. eigenvalues --   -0.27668  -0.27186  -0.25418  -0.24211  -0.21015
  Beta  occ. eigenvalues --   -0.20159  -0.14671  -0.13515  -0.09525  -0.06579
  Beta virt. eigenvalues --    0.08085   0.08856   0.09407   0.09559   0.10686
  Beta virt. eigenvalues --    0.10977   0.11775   0.12585   0.13210   0.13693
  Beta virt. eigenvalues --    0.13811   0.15201   0.15986   0.16838   0.17817

 Mulliken charges and spin densities:
               1          2
     1  C    0.532963  -0.776693
     2  C   -0.410785   0.212880
     3  N   -0.109849   0.020953
     4  C   -0.372663  -0.017127
     5  C    0.119650  -0.211120
     6  N   -0.022944   0.183720
     7  C    0.618539  -1.035311
     8  C   -0.066254   0.321171
     9  N   -0.245099   0.093680
    10  C   -0.222129   0.163108
    11  O   -0.352254   0.154354
    12  H   -0.055829   0.162056
    13  H   -0.257020   0.417917
    14  H    0.047311   0.086951
    15  H    0.056886   0.058121
    16  H   -0.259310   0.445975
    17  H   -0.410496   0.569936
    18  H    0.128171   0.104826
    19  H    0.186186   0.069620
    20  H    0.094924  -0.025016
 Sum of Mulliken charges =  -1.00000   1.00000

 Dipole moment (field-independent basis, Debye):
    X=              2.5992    Y=             -2.3186    Z=              1.4887  Tot=              3.7879
 Quadrupole moment (field-independent basis, Debye-Ang):
   XX=           -118.4278   YY=            -91.2687   ZZ=            -85.3267
   XY=              4.7753   XZ=             -4.8848   YZ=             -4.0572

 Summary of Natural Population Analysis:

                                       Natural Population
                Natural  -----------------------------------------------
    Atom  No    Charge         Core      Valence    Rydberg      Total
 -----------------------------------------------------------------------
      C    1   -0.10979      0.99962     2.09824    0.01192     3.10979
      C    2    0.02999      0.99964     1.95247    0.01791     2.97001
      N    3   -0.21612      0.99969     2.70630    0.01012     3.71612
      C    4   -0.11201      0.99947     2.09691    0.01562     3.11201
      C    5    0.21136      0.99951     1.77481    0.01432     2.78864
      N    6   -0.25098      0.99964     2.73870    0.01264     3.75098
      C    7   -0.07507      0.99961     2.06280    0.01266     3.07507
      C    8   -0.05643      0.99959     2.04196    0.01489     3.05643
      N    9   -0.31053      0.99969     2.80182    0.00903     3.81053
      C   10    0.24824      0.99972     1.72786    0.02418     2.75176
      O   11   -0.23588      0.99988     3.22922    0.00678     4.23588
      H   12    0.08190      0.00000     0.41636    0.00175     0.41810
      H   13    0.10013      0.00000     0.39802    0.00184     0.39987
      H   14    0.07850      0.00000     0.42017    0.00133     0.42150
      H   15    0.09155      0.00000     0.40726    0.00119     0.40845
      H   16    0.10386      0.00000     0.39434    0.00180     0.39614
      H   17    0.08926      0.00000     0.40800    0.00273     0.41074
      H   18    0.10012      0.00000     0.39861    0.00128     0.39988
      H   19    0.19267      0.00000     0.30550    0.00183     0.30733
      H   20    0.03924      0.00000     0.45835    0.00241     0.46076
 =======================================================================
   * Total *    0.00000     10.99606    28.83772    0.16623    40.00000

 Normal termination of Gaussian 16 at Tue Dec  8 20:30:37 2020.
