 Gaussian 16, Revision A.03,

 -----------------------------------------------------------
 # opt freq B3LYP/6-31G(d) empiricaldispersion=gd3bj scf=xqc
 -----------------------------------------------------------

 -------------------------------
 CID_130020035_JID_3005_neutraal
 -------------------------------
 Symbolic Z-matrix:
 Charge =  0 Multiplicity = 1

 SCF Done:  E(RB3LYP) =  -669.563201671     A.U. after   14 cycles
 SCF Done:  E(RB3LYP) =  -669.567335501     A.U. after   12 cycles
 SCF Done:  E(RB3LYP) =  -669.567570473     A.U. after   12 cycles
 SCF Done:  E(RB3LYP) =  -669.568077468     A.U. after   11 cycles
 SCF Done:  E(RB3LYP) =  -669.568342314     A.U. after   11 cycles
 SCF Done:  E(RB3LYP) =  -669.568529037     A.U. after   11 cycles
 SCF Done:  E(RB3LYP) =  -669.568622327     A.U. after   11 cycles
 SCF Done:  E(RB3LYP) =  -669.568690143     A.U. after   10 cycles
 SCF Done:  E(RB3LYP) =  -669.568740731     A.U. after   10 cycles
 SCF Done:  E(RB3LYP) =  -669.568753189     A.U. after    9 cycles
 SCF Done:  E(RB3LYP) =  -669.568762034     A.U. after    9 cycles
 SCF Done:  E(RB3LYP) =  -669.568769608     A.U. after    9 cycles
 SCF Done:  E(RB3LYP) =  -669.568772463     A.U. after    9 cycles
 SCF Done:  E(RB3LYP) =  -669.568773575     A.U. after    8 cycles
 SCF Done:  E(RB3LYP) =  -669.568773860     A.U. after    7 cycles
 Optimization completed.
    -- Stationary point found.
 Normal termination of Gaussian 16 at Wed Dec  9 22:23:30 2020.

 --------------------------------------------------------------------
 #N Geom=AllCheck Guess=TCheck SCRF=Check GenChk RB3LYP/6-31G(d) Freq
 --------------------------------------------------------------------

 Structure from the checkpoint file:  "JID_3005.chk"
 -------------------------------
 CID_130020035_JID_3005_neutraal
 -------------------------------
 Charge =  0 Multiplicity = 1

 SCF Done:  E(RB3LYP) =  -669.568773860     A.U. after    1 cycles

  Exact polarizability: 112.763  -2.299  94.182  -5.212  -1.841  92.515
 Approx polarizability: 148.211  -0.003 130.657 -15.798  -4.995 143.836

                      1                      2                      3
                      A                      A                      A
 Frequencies --     60.0150                72.1940                90.8600
 Red. masses --      7.3874                 3.3784                 5.0746
 Frc consts  --      0.0157                 0.0104                 0.0247
 IR Inten    --      0.5517                 0.1906                 1.1541

                      4                      5                      6
                      A                      A                      A
 Frequencies --    126.4287               180.5115               188.2359
 Red. masses --      3.7690                 2.2013                 1.1711
 Frc consts  --      0.0355                 0.0423                 0.0244
 IR Inten    --      4.0382                 3.2268                 0.4703

                      7                      8                      9
                      A                      A                      A
 Frequencies --    198.6632               233.2769               250.9568
 Red. masses --      1.2713                 3.9520                 4.5231
 Frc consts  --      0.0296                 0.1267                 0.1678
 IR Inten    --      1.0817                 8.8177                 5.3883

                     10                     11                     12
                      A                      A                      A
 Frequencies --    281.1720               299.0162               319.3290
 Red. masses --      4.3693                 2.6157                 1.3886
 Frc consts  --      0.2035                 0.1378                 0.0834
 IR Inten    --      1.9930                21.6814                50.1276

                     13                     14                     15
                      A                      A                      A
 Frequencies --    356.3354               376.3502               433.1596
 Red. masses --      3.5055                 2.0703                 2.0655
 Frc consts  --      0.2622                 0.1728                 0.2283
 IR Inten    --     13.7489                 1.7938                22.4286

                     16                     17                     18
                      A                      A                      A
 Frequencies --    450.2233               484.6714               514.4998
 Red. masses --      3.8070                 3.0957                 3.7539
 Frc consts  --      0.4547                 0.4285                 0.5855
 IR Inten    --     13.4941                44.5790                 1.6335

                     19                     20                     21
                      A                      A                      A
 Frequencies --    540.7988               545.3836               577.0187
 Red. masses --      4.7383                 1.9103                 1.9111
 Frc consts  --      0.8165                 0.3348                 0.3749
 IR Inten    --     23.0580                74.8768                70.5287

                     22                     23                     24
                      A                      A                      A
 Frequencies --    627.1995               696.3302               740.3771
 Red. masses --      5.4056                 3.4971                 1.7541
 Frc consts  --      1.2529                 0.9991                 0.5665
 IR Inten    --      4.3038                 3.2665                93.0631

                     25                     26                     27
                      A                      A                      A
 Frequencies --    777.7253               800.7522               822.3460
 Red. masses --      2.6955                 2.8737                 2.4859
 Frc consts  --      0.9606                 1.0856                 0.9905
 IR Inten    --     10.6657                 1.4639                 6.4715

                     28                     29                     30
                      A                      A                      A
 Frequencies --    886.1616               903.9851               952.6974
 Red. masses --      2.4032                 2.7246                 2.1871
 Frc consts  --      1.1119                 1.3118                 1.1696
 IR Inten    --     20.8436                17.5485                10.5789

                     31                     32                     33
                      A                      A                      A
 Frequencies --    997.8259              1010.2828              1051.4516
 Red. masses --      2.3077                 2.2287                 1.8903
 Frc consts  --      1.3537                 1.3403                 1.2313
 IR Inten    --     35.3524                 5.1631                21.4815

                     34                     35                     36
                      A                      A                      A
 Frequencies --   1070.3321              1076.4787              1083.8368
 Red. masses --      1.7308                 1.9284                 2.3971
 Frc consts  --      1.1683                 1.3166                 1.6590
 IR Inten    --      9.4626                 6.5631               103.9241

                     37                     38                     39
                      A                      A                      A
 Frequencies --   1098.7033              1115.8119              1143.8282
 Red. masses --      1.8428                 3.3574                 2.7767
 Frc consts  --      1.3107                 2.4628                 2.1404
 IR Inten    --     42.8599                 9.0915                72.6201

                     40                     41                     42
                      A                      A                      A
 Frequencies --   1171.2982              1183.9524              1241.4009
 Red. masses --      2.1696                 2.1523                 1.4252
 Frc consts  --      1.7537                 1.7775                 1.2940
 IR Inten    --     35.9239                70.2984                58.5412

                     43                     44                     45
                      A                      A                      A
 Frequencies --   1279.0051              1298.6876              1322.8428
 Red. masses --      1.6128                 1.3380                 1.3268
 Frc consts  --      1.5544                 1.3296                 1.3680
 IR Inten    --      6.3032                63.1524                40.1083

                     46                     47                     48
                      A                      A                      A
 Frequencies --   1353.1257              1365.1467              1372.2761
 Red. masses --      1.3783                 1.9152                 1.2585
 Frc consts  --      1.4869                 2.1030                 1.3963
 IR Inten    --      5.0806               123.9189                30.2384

                     49                     50                     51
                      A                      A                      A
 Frequencies --   1387.2365              1401.8890              1406.6045
 Red. masses --      1.4211                 1.3048                 1.3589
 Frc consts  --      1.6113                 1.5108                 1.5841
 IR Inten    --     16.1853                33.9811                 0.1992

                     52                     53                     54
                      A                      A                      A
 Frequencies --   1413.6923              1426.6671              1438.2384
 Red. masses --      1.2568                 1.6530                 1.5420
 Frc consts  --      1.4799                 1.9823                 1.8793
 IR Inten    --     20.8613               101.1544                19.6284

                     55                     56                     57
                      A                      A                      A
 Frequencies --   1445.0444              1466.5923              1501.6862
 Red. masses --      1.2761                 1.4893                 1.1061
 Frc consts  --      1.5700                 1.8874                 1.4697
 IR Inten    --     11.7011                40.7358                 6.1852

                     58                     59                     60
                      A                      A                      A
 Frequencies --   1506.9164              1510.4701              1518.2626
 Red. masses --      1.1867                 1.0658                 1.0754
 Frc consts  --      1.5877                 1.4327                 1.4606
 IR Inten    --     12.5231                 6.7168                13.4719

                     61                     62                     63
                      A                      A                      A
 Frequencies --   1523.9458              1539.1108              1796.3943
 Red. masses --      1.2153                 1.0790                 7.8454
 Frc consts  --      1.6629                 1.5060                14.9165
 IR Inten    --     35.2580                 8.3399               369.1611

                     64                     65                     66
                      A                      A                      A
 Frequencies --   2997.0335              3035.9786              3051.7787
 Red. masses --      1.0853                 1.0849                 1.0696
 Frc consts  --      5.7437                 5.8915                 5.8689
 IR Inten    --     84.7777                40.3733                15.8071

                     67                     68                     69
                      A                      A                      A
 Frequencies --   3063.0856              3064.3536              3073.7707
 Red. masses --      1.0394                 1.0508                 1.0742
 Frc consts  --      5.7457                 5.8138                 5.9798
 IR Inten    --      6.2685                18.1436                50.2478

                     70                     71                     72
                      A                      A                      A
 Frequencies --   3110.3899              3115.5200              3130.2652
 Red. masses --      1.0996                 1.0850                 1.0994
 Frc consts  --      6.2679                 6.2048                 6.3467
 IR Inten    --     18.0473                21.3491                 7.4425

                     73                     74                     75
                      A                      A                      A
 Frequencies --   3132.2997              3177.6709              3184.5060
 Red. masses --      1.1004                 1.1014                 1.0965
 Frc consts  --      6.3609                 6.5523                 6.5518
 IR Inten    --     23.2670                 9.8999                23.9286

                     76                     77                     78
                      A                      A                      A
 Frequencies --   3597.6179              3673.3385              3743.5960
 Red. masses --      1.0744                 1.0648                 1.0664
 Frc consts  --      8.1934                 8.4653                 8.8056
 IR Inten    --     36.0269                38.7215                26.7893

 - Thermochemistry -
 -------------------
 Temperature   298.150 Kelvin.  Pressure   1.00000 Atm.
 Atom     1 has atomic number  6 and mass  12.00000

 Molecular mass:   189.10011 amu.
 Principal axes and moments of inertia in atomic units:
                           1         2         3
     Eigenvalues --  1466.754312983.928543278.77512
           X            0.99925  -0.03218   0.02157
           Y            0.03216   0.99948   0.00105
           Z           -0.02159  -0.00036   0.99977
 This molecule is an asymmetric top.
 Rotational symmetry number  1.
 Warning -- assumption of classical behavior for rotation
           may cause significant error
 Rotational temperatures (Kelvin)      0.05905     0.02903     0.02642
 Rotational constants (GHZ):           1.23043     0.60482     0.55043
 Zero-point vibrational energy     630772.4 (Joules/Mol)
                                  150.75823 (Kcal/Mol)
 Warning -- explicit consideration of  21 degrees of freedom as
           vibrations may cause significant error
 Vibrational temperatures:     86.35   103.87   130.73   181.90   259.72
          (Kelvin)            270.83   285.83   335.63   361.07   404.54
                              430.22   459.44   512.69   541.48   623.22
                              647.77   697.33   740.25   778.09   784.69
                              830.20   902.40  1001.86  1065.24  1118.97
                             1152.10  1183.17  1274.99  1300.63  1370.72
                             1435.65  1453.57  1512.80  1539.97  1548.81
                             1559.40  1580.79  1605.40  1645.71  1685.24
                             1703.44  1786.10  1840.20  1868.52  1903.28
                             1946.85  1964.14  1974.40  1995.92  2017.01
                             2023.79  2033.99  2052.66  2069.30  2079.10
                             2110.10  2160.59  2168.12  2173.23  2184.44
                             2192.62  2214.44  2584.61  4312.06  4368.10
                             4390.83  4407.10  4408.92  4422.47  4475.16
                             4482.54  4503.75  4506.68  4571.96  4581.79
                             5176.17  5285.11  5386.20

 Zero-point correction=                           0.240249 (Hartree/Particle)
 Thermal correction to Energy=                    0.253549
 Thermal correction to Enthalpy=                  0.254493
 Thermal correction to Gibbs Free Energy=         0.201148
 Sum of electronic and zero-point Energies=           -669.328525
 Sum of electronic and thermal Energies=              -669.315225
 Sum of electronic and thermal Enthalpies=            -669.314281
 Sum of electronic and thermal Free Energies=         -669.367626

                     E (Thermal)             CV                S
                      KCal/Mol        Cal/Mol-Kelvin    Cal/Mol-Kelvin
 Total                  159.104             51.040            112.273
 Electronic               0.000              0.000              0.000
 Translational            0.889              2.981             41.617
 Rotational               0.889              2.981             31.040
 Vibrational            157.327             45.078             39.616
 Vibration     1          0.597              1.973              4.457
 Vibration     2          0.598              1.967              4.093
 Vibration     3          0.602              1.956              3.641
 Vibration     4          0.611              1.927              3.000
 Vibration     5          0.629              1.866              2.323
 Vibration     6          0.633              1.856              2.245
 Vibration     7          0.637              1.842              2.145
 Vibration     8          0.654              1.790              1.854
 Vibration     9          0.663              1.761              1.724
 Vibration    10          0.681              1.708              1.527
 Vibration    11          0.692              1.676              1.422
 Vibration    12          0.705              1.637              1.314
 Vibration    13          0.732              1.562              1.138
 Vibration    14          0.747              1.521              1.054
 Vibration    15          0.794              1.398              0.848
 Vibration    16          0.809              1.360              0.795
 Vibration    17          0.841              1.284              0.698
 Vibration    18          0.870              1.218              0.623
 Vibration    19          0.896              1.160              0.564
 Vibration    20          0.901              1.150              0.554
 Vibration    21          0.933              1.081              0.491

                           ! Non-Optimized Parameters !
 Normal termination of Gaussian 16 at Wed Dec  9 22:31:17 2020.

 ----------------------------------------------------------------------
 # B3LYP/6-311++G(d,p) empiricaldispersion=gd3bj scf=xqc pop=npa geom=c
 heck
 ----------------------------------------------------------------------

 ---------------------------------------
 CID_130020035_JID_3005_Energie_neutraal
 ---------------------------------------
 Structure from the checkpoint file:  "JID_3005.chk"
 Charge =  0 Multiplicity = 1

 SCF Done:  E(RB3LYP) =  -669.785873433     A.U. after   14 cycles
 Normal termination of Gaussian 16 at Wed Dec  9 22:33:56 2020.

 ----------------------------------------------------------------------
 # B3LYP/6-311++G(d,p) empiricaldispersion=gd3bj scf=xqc pop=npa geom=c
 heck
 ----------------------------------------------------------------------

 -------------------------------------
 CID_130020035_JID_3005_Energie_kation
 -------------------------------------
 Structure from the checkpoint file:  "JID_3005.chk"
 Charge =  1 Multiplicity = 2

 SCF Done:  E(UB3LYP) =  -669.463746322     A.U. after   27 cycles
 Normal termination of Gaussian 16 at Wed Dec  9 22:40:57 2020.
 Gaussian 16:  ES64L-G16RevA.03 25-Dec-2016

 ----------------------------------------------------------------------
 # B3LYP/6-311++G(d,p) empiricaldispersion=gd3bj scf=xqc pop=npa geom=c
 heck
 ----------------------------------------------------------------------

 ------------------------------------
 CID_130020035_JID_3005_Energie_anion
 ------------------------------------
 Structure from the checkpoint file:  "JID_3005.chk"
 Charge = -1 Multiplicity = 2

                         Standard orientation:
 ---------------------------------------------------------------------
 Center     Atomic      Atomic             Coordinates (Angstroms)
 Number     Number       Type             X           Y           Z
 ---------------------------------------------------------------------
      1          6           0        2.169223   -1.814827    0.693099
      2          6           0        2.196177   -0.844237   -0.489343
      3          6           0        0.990078   -0.906599   -1.444263
      4          6           0       -0.237902   -0.097103   -0.991958
      5          6           0        0.234678    1.320888   -0.625106
      6          6           0        1.397373    1.282935    0.382561
      7          8           0        2.465945    0.512860   -0.072549
      8          8           0        0.929491    0.816409    1.638632
      9          8           0       -0.871725    2.029012   -0.062845
     10          7           0       -0.975904   -0.749659    0.078958
     11          6           0       -2.331892   -0.646280    0.311780
     12          8           0       -2.793606   -0.932423    1.407924
     13          6           0       -3.210701   -0.211997   -0.848259
     14          1           0        3.087114   -1.693911    1.275864
     15          1           0        2.124961   -2.845798    0.323555
     16          1           0        1.331160   -1.648630    1.368913
     17          1           0        3.085122   -1.088578   -1.080399
     18          1           0        1.309522   -0.501264   -2.412117
     19          1           0        0.695032   -1.948117   -1.607114
     20          1           0       -0.919021   -0.011608   -1.841215
     21          1           0        0.591596    1.811296   -1.541514
     22          1           0        1.821825    2.293099    0.497279
     23          1           0        0.040221    1.202006    1.747211
     24          1           0       -0.657734    2.975276   -0.060756
     25          1           0       -0.460468   -0.896088    0.938352
     26          1           0       -3.030416    0.841234   -1.085434
     27          1           0       -3.020405   -0.804194   -1.750402
     28          1           0       -4.250234   -0.340648   -0.545296
 ---------------------------------------------------------------------

 SCF Done:  E(UB3LYP) =  -669.782532549     A.U. after   30 cycles

 The electronic state is 2-A.
 Alpha  occ. eigenvalues --  -19.03270 -19.03140 -19.02542 -18.98569 -14.22692
 Alpha  occ. eigenvalues --  -10.17211 -10.16700 -10.13250 -10.12286 -10.11797
 Alpha  occ. eigenvalues --  -10.07800 -10.06999 -10.06775  -0.97460  -0.93747
 Alpha  occ. eigenvalues --   -0.93119  -0.90606  -0.82219  -0.70069  -0.67433
 Alpha  occ. eigenvalues --   -0.63640  -0.60296  -0.55481  -0.53909  -0.48362
 Alpha  occ. eigenvalues --   -0.46270  -0.43400  -0.42635  -0.41029  -0.38702
 Alpha  occ. eigenvalues --   -0.37526  -0.36949  -0.34890  -0.34165  -0.33393
 Alpha  occ. eigenvalues --   -0.31704  -0.30658  -0.30223  -0.29812  -0.28984
 Alpha  occ. eigenvalues --   -0.27825  -0.27281  -0.26258  -0.25720  -0.24381
 Alpha  occ. eigenvalues --   -0.21628  -0.21000  -0.19391  -0.16772  -0.15559
 Alpha  occ. eigenvalues --   -0.14563   0.04044
 Alpha virt. eigenvalues --    0.06548   0.07590   0.08381   0.09754   0.10009
 Alpha virt. eigenvalues --    0.10056   0.10932   0.11270   0.11649   0.12659
 Alpha virt. eigenvalues --    0.12888   0.13583   0.14057   0.14873   0.15147

  Beta  occ. eigenvalues --  -19.03270 -19.03073 -19.02530 -18.98568 -14.22686
  Beta  occ. eigenvalues --  -10.17209 -10.16676 -10.13243 -10.12252 -10.11785
  Beta  occ. eigenvalues --  -10.07776 -10.06974 -10.06768  -0.97430  -0.93724
  Beta  occ. eigenvalues --   -0.93018  -0.90569  -0.82198  -0.70032  -0.67367
  Beta  occ. eigenvalues --   -0.63604  -0.60246  -0.55416  -0.53860  -0.48328
  Beta  occ. eigenvalues --   -0.46237  -0.43312  -0.42518  -0.40967  -0.38670
  Beta  occ. eigenvalues --   -0.37485  -0.36922  -0.34846  -0.34137  -0.33364
  Beta  occ. eigenvalues --   -0.31688  -0.30621  -0.30206  -0.29785  -0.28947
  Beta  occ. eigenvalues --   -0.27789  -0.27229  -0.26235  -0.25682  -0.24334
  Beta  occ. eigenvalues --   -0.21578  -0.20957  -0.19368  -0.16748  -0.15545
  Beta  occ. eigenvalues --   -0.14539
  Beta virt. eigenvalues --    0.06656   0.07767   0.08288   0.08899   0.09937
  Beta virt. eigenvalues --    0.10430   0.10629   0.11369   0.11674   0.11922
  Beta virt. eigenvalues --    0.12899   0.13135   0.13884   0.14262   0.15220

 Mulliken charges and spin densities:
               1          2
     1  C   -0.003583  -0.536840
     2  C   -0.508439   0.650921
     3  C    0.414256  -1.246742
     4  C   -1.314442   1.283642
     5  C    1.675432  -2.038845
     6  C    0.533846  -0.843316
     7  O   -0.086317   0.014074
     8  O   -0.184463  -0.016273
     9  O   -0.221752  -0.010698
    10  N    0.124988  -0.114346
    11  C   -0.054443   0.115451
    12  O   -0.318337  -0.000139
    13  C    0.300488  -0.747469
    14  H    0.092601   0.061249
    15  H    0.084470   0.033554
    16  H    0.127784   0.027464
    17  H   -0.197389   0.418570
    18  H   -0.316051   0.505615
    19  H    0.031150   0.153050
    20  H   -0.323773   0.538075
    21  H   -0.589947   0.840963
    22  H   -0.538185   0.776273
    23  H    0.299144  -0.031384
    24  H   -0.327718   0.622487
    25  H    0.289575   0.033105
    26  H   -0.067006   0.264576
    27  H   -0.119194   0.266666
    28  H    0.197304  -0.019684
 Sum of Mulliken charges =  -1.00000   1.00000

 Dipole moment (field-independent basis, Debye):
    X=              0.5178    Y=             -5.4330    Z=              1.9339  Tot=              5.7901
 Quadrupole moment (field-independent basis, Debye-Ang):
   XX=           -123.5102   YY=           -124.3843   ZZ=           -119.5342
   XY=             -5.4067   XZ=              7.5902   YZ=              6.8216

 Summary of Natural Population Analysis:

                                       Natural Population
                Natural  -----------------------------------------------
    Atom  No    Charge         Core      Valence    Rydberg      Total
 -----------------------------------------------------------------------
      C    1   -0.29432      0.99963     2.28993    0.00476     3.29432
      C    2    0.06410      0.99954     1.92130    0.01506     2.93590
      C    3   -0.20362      0.99958     2.19395    0.01009     3.20362
      C    4   -0.02319      0.99955     2.00623    0.01741     3.02319
      C    5    0.03841      0.99949     1.94582    0.01627     2.96159
      C    6    0.20995      0.99956     1.76871    0.02178     2.79005
      O    7   -0.29941      0.99988     3.29022    0.00932     4.29941
      O    8   -0.38450      0.99989     3.37835    0.00626     4.38450
      O    9   -0.38074      0.99989     3.37352    0.00733     4.38074
      N   10   -0.33061      0.99965     2.82068    0.01027     3.83061
      C   11    0.35119      0.99970     1.62647    0.02265     2.64881
      O   12   -0.32688      0.99988     3.32124    0.00576     4.32688
      C   13   -0.33808      0.99962     2.33387    0.00459     3.33808
      H   14    0.10263      0.00000     0.39647    0.00090     0.39737
      H   15    0.09642      0.00000     0.40279    0.00079     0.40358
      H   16    0.10170      0.00000     0.39709    0.00121     0.39830
      H   17    0.09206      0.00000     0.40666    0.00129     0.40794
      H   18    0.10965      0.00000     0.38846    0.00189     0.39035
      H   19    0.10565      0.00000     0.39320    0.00115     0.39435
      H   20    0.11003      0.00000     0.38715    0.00282     0.38997
      H   21    0.09977      0.00000     0.39220    0.00803     0.40023
      H   22    0.07958      0.00000     0.41836    0.00206     0.42042
      H   23    0.24049      0.00000     0.25624    0.00327     0.25951
      H   24    0.24559      0.00000     0.23607    0.01834     0.25441
      H   25    0.19795      0.00000     0.29904    0.00301     0.30205
      H   26    0.12128      0.00000     0.37745    0.00128     0.37872
      H   27    0.10585      0.00000     0.39321    0.00094     0.39415
      H   28    0.10906      0.00000     0.39018    0.00076     0.39094
 =======================================================================
   * Total *   -0.00000     12.99586    37.80487    0.19927    51.00000

 Normal termination of Gaussian 16 at Wed Dec  9 22:48:46 2020.
