 Gaussian 16, Revision A.03,

 -----------------------------------------------------------
 # opt freq B3LYP/6-31G(d) empiricaldispersion=gd3bj scf=xqc
 -----------------------------------------------------------

 -------------------------------
 CID_102780114_JID_5003_neutraal
 -------------------------------
 Symbolic Z-matrix:
 Charge =  0 Multiplicity = 1

 SCF Done:  E(RB3LYP) =  -720.850146761     A.U. after   14 cycles
 SCF Done:  E(RB3LYP) =  -720.856002616     A.U. after   13 cycles
 SCF Done:  E(RB3LYP) =  -720.850414573     A.U. after   14 cycles
 SCF Done:  E(RB3LYP) =  -720.858868510     A.U. after   13 cycles
 SCF Done:  E(RB3LYP) =  -720.860709427     A.U. after   13 cycles
 SCF Done:  E(RB3LYP) =  -720.861404724     A.U. after   12 cycles
 SCF Done:  E(RB3LYP) =  -720.861758578     A.U. after   13 cycles
 SCF Done:  E(RB3LYP) =  -720.862415828     A.U. after   12 cycles
 SCF Done:  E(RB3LYP) =  -720.862921492     A.U. after   13 cycles
 SCF Done:  E(RB3LYP) =  -720.863363931     A.U. after   11 cycles
 SCF Done:  E(RB3LYP) =  -720.863958897     A.U. after    8 cycles
 SCF Done:  E(RB3LYP) =  -720.863959358     A.U. after    8 cycles
 SCF Done:  E(RB3LYP) =  -720.863959512     A.U. after    7 cycles
 SCF Done:  E(RB3LYP) =  -720.863959579     A.U. after    7 cycles
 SCF Done:  E(RB3LYP) =  -720.863959624     A.U. after    7 cycles
 Optimization completed.
    -- Stationary point found.
 Normal termination of Gaussian 16 at Thu Dec 10 14:54:43 2020.

 --------------------------------------------------------------------
 #N Geom=AllCheck Guess=TCheck SCRF=Check GenChk RB3LYP/6-31G(d) Freq
 --------------------------------------------------------------------

 Structure from the checkpoint file:  "JID_5003.chk"
 -------------------------------
 CID_102780114_JID_5003_neutraal
 -------------------------------
 Charge =  0 Multiplicity = 1

 SCF Done:  E(RB3LYP) =  -720.863959624     A.U. after    1 cycles

  Exact polarizability: 150.419   8.979 115.088   3.440  -3.630  93.379
 Approx polarizability: 208.229  18.767 176.061   5.895 -16.725 144.610

                      1                      2                      3
                      A                      A                      A
 Frequencies --     36.4904                50.3583                66.1856
 Red. masses --      3.7216                 4.4672                 6.6395
 Frc consts  --      0.0029                 0.0067                 0.0171
 IR Inten    --      0.4652                 0.5488                 0.7007

                      4                      5                      6
                      A                      A                      A
 Frequencies --     93.9230               132.7743               145.3252
 Red. masses --      3.8542                 1.9725                 1.7226
 Frc consts  --      0.0200                 0.0205                 0.0214
 IR Inten    --      0.7604                 0.6433                 0.2175

                      7                      8                      9
                      A                      A                      A
 Frequencies --    157.8424               179.7731               230.8151
 Red. masses --      3.3572                 3.4822                 2.8440
 Frc consts  --      0.0493                 0.0663                 0.0893
 IR Inten    --      0.4782                 1.1375                 3.4356

                     10                     11                     12
                      A                      A                      A
 Frequencies --    270.8780               277.2739               295.8676
 Red. masses --      1.0718                 3.3297                 3.3082
 Frc consts  --      0.0463                 0.1508                 0.1706
 IR Inten    --      0.2945                 4.5802                 1.6013

                     13                     14                     15
                      A                      A                      A
 Frequencies --    338.8006               371.6181               393.6281
 Red. masses --      2.5301                 6.1996                 3.4674
 Frc consts  --      0.1711                 0.5044                 0.3165
 IR Inten    --      2.1520                 5.2398                 1.8514

                     16                     17                     18
                      A                      A                      A
 Frequencies --    449.1125               462.4599               492.6216
 Red. masses --      2.2899                 2.1019                 7.2584
 Frc consts  --      0.2721                 0.2649                 1.0378
 IR Inten    --     29.0436                23.8508                 7.7492

                     19                     20                     21
                      A                      A                      A
 Frequencies --    551.8831               586.5982               609.6954
 Red. masses --      2.5346                 2.1789                 2.9442
 Frc consts  --      0.4548                 0.4417                 0.6448
 IR Inten    --     60.2402                51.5961                16.0978

                     22                     23                     24
                      A                      A                      A
 Frequencies --    654.5188               678.3935               694.7194
 Red. masses --      6.4865                 4.8859                 4.8567
 Frc consts  --      1.6372                 1.3248                 1.3811
 IR Inten    --      1.7173                 5.2763                12.8962

                     25                     26                     27
                      A                      A                      A
 Frequencies --    726.0260               795.2270               863.2675
 Red. masses --      6.3723                 2.6268                 4.3731
 Frc consts  --      1.9790                 0.9787                 1.9201
 IR Inten    --     20.4942                 8.7678                11.3836

                     28                     29                     30
                      A                      A                      A
 Frequencies --    865.8999               885.0137               914.5282
 Red. masses --      2.3138                 2.1582                 2.6824
 Frc consts  --      1.0221                 0.9960                 1.3218
 IR Inten    --     44.1306                 7.1329                 4.5304

                     31                     32                     33
                      A                      A                      A
 Frequencies --    923.7220               953.2882               973.2565
 Red. masses --     11.4776                 2.4612                 1.7504
 Frc consts  --      5.7701                 1.3178                 0.9769
 IR Inten    --     23.9811                 1.9114                 4.5158

                     34                     35                     36
                      A                      A                      A
 Frequencies --   1004.1872              1007.4791              1047.4596
 Red. masses --      2.9584                 1.4792                 1.8811
 Frc consts  --      1.7577                 0.8846                 1.2160
 IR Inten    --      2.9356                 0.6291                 8.2037

                     37                     38                     39
                      A                      A                      A
 Frequencies --   1052.1530              1076.1145              1083.8337
 Red. masses --      2.2586                 4.5555                 1.5804
 Frc consts  --      1.4732                 3.1082                 1.0938
 IR Inten    --      6.5047                 6.6514                 5.5399

                     40                     41                     42
                      A                      A                      A
 Frequencies --   1093.2078              1137.6297              1150.6726
 Red. masses --      2.9476                 1.9512                 2.0890
 Frc consts  --      2.0755                 1.4878                 1.6297
 IR Inten    --      2.9863                16.7112                 7.6035

                     43                     44                     45
                      A                      A                      A
 Frequencies --   1182.7443              1227.7110              1240.8602
 Red. masses --      2.4290                 1.3764                 1.3024
 Frc consts  --      2.0020                 1.2223                 1.1815
 IR Inten    --     13.1519                 7.7652                 4.8709

                     46                     47                     48
                      A                      A                      A
 Frequencies --   1288.5402              1321.1512              1337.5000
 Red. masses --      1.4465                 2.3183                 1.6435
 Frc consts  --      1.4151                 2.3841                 1.7323
 IR Inten    --     71.3854               176.8052                65.0645

                     49                     50                     51
                      A                      A                      A
 Frequencies --   1346.2481              1358.8466              1369.4254
 Red. masses --      4.9011                 1.3318                 1.2777
 Frc consts  --      5.2336                 1.4489                 1.4117
 IR Inten    --     15.6048                23.2115                20.9322

                     52                     53                     54
                      A                      A                      A
 Frequencies --   1393.2759              1398.5287              1403.4773
 Red. masses --      1.3386                 2.0260                 1.8016
 Frc consts  --      1.5311                 2.3347                 2.0908
 IR Inten    --      1.5911                79.3705                20.2201

                     55                     56                     57
                      A                      A                      A
 Frequencies --   1432.2223              1444.6051              1452.4747
 Red. masses --      1.6071                 1.2468                 1.8687
 Frc consts  --      1.9423                 1.5330                 2.3227
 IR Inten    --     23.4549                 4.3925                95.3150

                     58                     59                     60
                      A                      A                      A
 Frequencies --   1462.8137              1501.2794              1504.3389
 Red. masses --      1.3795                 1.2163                 1.0450
 Frc consts  --      1.7392                 1.6152                 1.3933
 IR Inten    --      8.6766                23.6163                 7.9083

                     61                     62                     63
                      A                      A                      A
 Frequencies --   1523.3800              1533.4579              1537.7740
 Red. masses --      1.0862                 1.0484                 1.0527
 Frc consts  --      1.4852                 1.4525                 1.4666
 IR Inten    --      7.2402                 5.6028                 3.3428

                     64                     65                     66
                      A                      A                      A
 Frequencies --   1550.5476              1589.5859              1657.1401
 Red. masses --      1.1032                 4.7556                 7.7406
 Frc consts  --      1.5626                 7.0799                12.5239
 IR Inten    --      0.2259                19.7812               396.1646

                     67                     68                     69
                      A                      A                      A
 Frequencies --   1802.9401              2967.9292              3013.7070
 Red. masses --      9.4717                 1.0737                 1.0845
 Frc consts  --     18.1401                 5.5726                 5.8032
 IR Inten    --    295.5061                98.5602                29.2948

                     70                     71                     72
                      A                      A                      A
 Frequencies --   3057.4142              3059.7610              3068.0190
 Red. masses --      1.0357                 1.0852                 1.0365
 Frc consts  --      5.7039                 5.9859                 5.7482
 IR Inten    --     20.1381                33.4351                10.0953

                     73                     74                     75
                      A                      A                      A
 Frequencies --   3090.3907              3097.4457              3123.8908
 Red. masses --      1.0699                 1.0838                 1.1020
 Frc consts  --      6.0206                 6.1266                 6.3361
 IR Inten    --     22.1942                33.1935                27.1069

                     76                     77                     78
                      A                      A                      A
 Frequencies --   3127.8694              3135.7769              3148.7499
 Red. masses --      1.1014                 1.1033                 1.1021
 Frc consts  --      6.3488                 6.3918                 6.4379
 IR Inten    --      7.7162                13.3392                23.8670

                     79                     80                     81
                      A                      A                      A
 Frequencies --   3164.0993              3535.2598              3595.4153
 Red. masses --      1.1026                 1.0755                 1.0758
 Frc consts  --      6.5038                 7.9193                 8.1934
 IR Inten    --      6.2033                 1.8786                63.7918

 - Thermochemistry -
 -------------------
 Temperature   298.150 Kelvin.  Pressure   1.00000 Atm.
 Atom     1 has atomic number  6 and mass  12.00000

 Molecular mass:   210.11168 amu.
 Principal axes and moments of inertia in atomic units:
                           1         2         3
     Eigenvalues --  1803.077143780.387294503.45017
           X            0.99972  -0.01800   0.01547
           Y            0.01769   0.99965   0.01980
           Z           -0.01582  -0.01952   0.99968
 This molecule is an asymmetric top.
 Rotational symmetry number  1.
 Warning -- assumption of classical behavior for rotation
           may cause significant error
 Rotational temperatures (Kelvin)      0.04804     0.02291     0.01923
 Rotational constants (GHZ):           1.00092     0.47740     0.40075
 Zero-point vibrational energy     632950.9 (Joules/Mol)
                                  151.27888 (Kcal/Mol)
 Warning -- explicit consideration of  21 degrees of freedom as
           vibrations may cause significant error
 Vibrational temperatures:     52.50    72.45    95.23   135.13   191.03
          (Kelvin)            209.09   227.10   258.65   332.09   389.73
                              398.94   425.69   487.46   534.68   566.34
                              646.17   665.38   708.77   794.04   843.98
                              877.22   941.71   976.06   999.55  1044.59
                             1144.15  1242.05  1245.84  1273.34  1315.80
                             1329.03  1371.57  1400.30  1444.80  1449.54
                             1507.06  1513.81  1548.29  1559.39  1572.88
                             1636.80  1655.56  1701.71  1766.40  1785.32
                             1853.92  1900.84  1924.36  1936.95  1955.08
                             1970.30  2004.61  2012.17  2019.29  2060.65
                             2078.46  2089.79  2104.66  2160.01  2164.41
                             2191.80  2206.30  2212.51  2230.89  2287.06
                             2384.26  2594.03  4270.19  4336.05  4398.94
                             4402.31  4414.20  4446.38  4456.53  4494.58
                             4500.31  4511.68  4530.35  4552.43  5086.45
                             5173.00

 Zero-point correction=                           0.241078 (Hartree/Particle)
 Thermal correction to Energy=                    0.255194
 Thermal correction to Enthalpy=                  0.256138
 Thermal correction to Gibbs Free Energy=         0.199454
 Sum of electronic and zero-point Energies=           -720.622881
 Sum of electronic and thermal Energies=              -720.608766
 Sum of electronic and thermal Enthalpies=            -720.607821
 Sum of electronic and thermal Free Energies=         -720.664506

                     E (Thermal)             CV                S
                      KCal/Mol        Cal/Mol-Kelvin    Cal/Mol-Kelvin
 Total                  160.137             52.961            119.302
 Electronic               0.000              0.000              0.000
 Translational            0.889              2.981             41.931
 Rotational               0.889              2.981             31.796
 Vibrational            158.359             46.999             45.575
 Vibration     1          0.594              1.982              5.441
 Vibration     2          0.595              1.977              4.803
 Vibration     3          0.598              1.970              4.264
 Vibration     4          0.603              1.954              3.577
 Vibration     5          0.613              1.921              2.905
 Vibration     6          0.617              1.908              2.733
 Vibration     7          0.621              1.894              2.575
 Vibration     8          0.629              1.867              2.331
 Vibration     9          0.653              1.794              1.873
 Vibration    10          0.675              1.727              1.591
 Vibration    11          0.678              1.715              1.550
 Vibration    12          0.690              1.681              1.440
 Vibration    13          0.719              1.598              1.218
 Vibration    14          0.743              1.530              1.073
 Vibration    15          0.761              1.484              0.986
 Vibration    16          0.808              1.363              0.798
 Vibration    17          0.820              1.333              0.759
 Vibration    18          0.848              1.266              0.677
 Vibration    19          0.907              1.136              0.540
 Vibration    20          0.944              1.060              0.473
 Vibration    21          0.969              1.011              0.433

                           ! Non-Optimized Parameters !
 Normal termination of Gaussian 16 at Thu Dec 10 15:04:31 2020.

 ----------------------------------------------------------------------
 # B3LYP/6-311++G(d,p) empiricaldispersion=gd3bj scf=xqc pop=npa geom=c
 heck
 ----------------------------------------------------------------------

 ---------------------------------------
 CID_102780114_JID_5003_Energie_neutraal
 ---------------------------------------
 Structure from the checkpoint file:  "JID_5003.chk"
 Charge =  0 Multiplicity = 1

 SCF Done:  E(RB3LYP) =  -721.069389529     A.U. after   15 cycles
 Normal termination of Gaussian 16 at Thu Dec 10 15:08:32 2020.

 ----------------------------------------------------------------------
 # B3LYP/6-311++G(d,p) empiricaldispersion=gd3bj scf=xqc pop=npa geom=c
 heck
 ----------------------------------------------------------------------

 -------------------------------------
 CID_102780114_JID_5003_Energie_kation
 -------------------------------------
 Structure from the checkpoint file:  "JID_5003.chk"
 Charge =  1 Multiplicity = 2

 SCF Done:  E(UB3LYP) =  -720.757336835     A.U. after   24 cycles
 Normal termination of Gaussian 16 at Thu Dec 10 15:19:53 2020.
 Gaussian 16:  ES64L-G16RevA.03 25-Dec-2016

 ----------------------------------------------------------------------
 # B3LYP/6-311++G(d,p) empiricaldispersion=gd3bj scf=xqc pop=npa geom=c
 heck
 ----------------------------------------------------------------------

 ------------------------------------
 CID_102780114_JID_5003_Energie_anion
 ------------------------------------
 Structure from the checkpoint file:  "JID_5003.chk"
 Charge = -1 Multiplicity = 2

                         Standard orientation:
 ---------------------------------------------------------------------
 Center     Atomic      Atomic             Coordinates (Angstroms)
 Number     Number       Type             X           Y           Z
 ---------------------------------------------------------------------
      1          6           0        2.474727   -0.238520    1.692752
      2          6           0        2.333005   -0.860073    0.303736
      3          6           0        1.394987   -2.086725    0.260037
      4          6           0        0.808470   -2.058887   -1.151557
      5          7           0        0.632343   -0.622592   -1.397425
      6          6           0        1.763924    0.092922   -0.811884
      7          6           0        1.390329    1.495380   -0.337555
      8          8           0        2.210431    2.393581   -0.286167
      9          7           0        0.056614    1.771218   -0.029670
     10          6           0       -1.014375    0.916455    0.116688
     11          7           0       -2.201083    1.048361   -0.405602
     12          6           0       -2.880190   -0.014014    0.154584
     13          7           0       -2.172989   -0.749231    0.979547
     14          8           0       -0.918289   -0.094549    0.995747
     15          6           0       -4.304226   -0.323798   -0.156919
     16          1           0        2.900879   -0.968801    2.389323
     17          1           0        1.499861    0.068189    2.085640
     18          1           0        3.129963    0.637824    1.673574
     19          1           0        3.327807   -1.169117   -0.036066
     20          1           0        1.931468   -3.016578    0.471333
     21          1           0        0.595518   -1.977002    0.995560
     22          1           0       -0.154018   -2.575234   -1.224916
     23          1           0        1.504992   -2.529452   -1.867472
     24          1           0        0.501967   -0.400514   -2.379891
     25          1           0        2.570716    0.292140   -1.531302
     26          1           0       -0.151734    2.761436    0.022645
     27          1           0       -4.943544    0.521135    0.119575
     28          1           0       -4.428390   -0.494398   -1.231260
     29          1           0       -4.626724   -1.212621    0.389383
 ---------------------------------------------------------------------

 SCF Done:  E(UB3LYP) =  -721.059915811     A.U. after   33 cycles
 SCF Done:  E(UB3LYP) =  -721.059915811     a.u. after    1 cycles

 The electronic state is 2-A.
 Alpha  occ. eigenvalues --  -19.09401 -18.98485 -14.24791 -14.24759 -14.20139
 Alpha  occ. eigenvalues --  -14.19132 -10.18862 -10.16191 -10.13266 -10.09773
 Alpha  occ. eigenvalues --  -10.08370 -10.08264 -10.07355 -10.05545 -10.05391
 Alpha  occ. eigenvalues --   -1.04887  -0.93951  -0.84544  -0.82591  -0.81277
 Alpha  occ. eigenvalues --   -0.74139  -0.68064  -0.64030  -0.63796  -0.57945
 Alpha  occ. eigenvalues --   -0.55008  -0.51782  -0.49563  -0.47989  -0.45026
 Alpha  occ. eigenvalues --   -0.43348  -0.41848  -0.38196  -0.37690  -0.36448
 Alpha  occ. eigenvalues --   -0.33615  -0.33515  -0.32472  -0.32276  -0.31741
 Alpha  occ. eigenvalues --   -0.30930  -0.29736  -0.28928  -0.28609  -0.26782
 Alpha  occ. eigenvalues --   -0.26193  -0.23905  -0.23022  -0.22518  -0.21675
 Alpha  occ. eigenvalues --   -0.21090  -0.20312  -0.18817  -0.15983  -0.15494
 Alpha  occ. eigenvalues --   -0.11892   0.04672
 Alpha virt. eigenvalues --    0.06646   0.06820   0.08177   0.08586   0.09136
 Alpha virt. eigenvalues --    0.09652   0.10569   0.10899   0.11178   0.11518
 Alpha virt. eigenvalues --    0.12132   0.12427   0.12983   0.13812   0.14646

  Beta  occ. eigenvalues --  -19.09281 -18.98374 -14.24827 -14.24660 -14.20134
  Beta  occ. eigenvalues --  -14.19108 -10.18668 -10.16027 -10.13252 -10.09777
  Beta  occ. eigenvalues --  -10.08354 -10.08238 -10.07322 -10.05537 -10.05385
  Beta  occ. eigenvalues --   -1.04688  -0.93727  -0.84390  -0.82502  -0.81230
  Beta  occ. eigenvalues --   -0.74003  -0.68018  -0.63969  -0.63710  -0.57856
  Beta  occ. eigenvalues --   -0.54750  -0.51656  -0.49464  -0.47869  -0.44904
  Beta  occ. eigenvalues --   -0.43206  -0.41767  -0.37772  -0.37602  -0.36362
  Beta  occ. eigenvalues --   -0.33479  -0.33327  -0.32376  -0.32117  -0.31661
  Beta  occ. eigenvalues --   -0.30882  -0.29655  -0.28825  -0.28328  -0.26740
  Beta  occ. eigenvalues --   -0.26136  -0.23744  -0.22944  -0.22427  -0.21501
  Beta  occ. eigenvalues --   -0.20814  -0.19953  -0.18643  -0.15884  -0.15204
  Beta  occ. eigenvalues --   -0.11741
  Beta virt. eigenvalues --    0.06812   0.07489   0.08357   0.08605   0.09129
  Beta virt. eigenvalues --    0.09669   0.09998   0.10716   0.11347   0.11573
  Beta virt. eigenvalues --    0.12081   0.12484   0.12650   0.13060   0.14105

 Mulliken charges and spin densities:
               1          2
     1  C   -0.420553  -0.191191
     2  C    0.274928  -0.098307
     3  C   -0.525500   0.024222
     4  C    0.905964  -1.171282
     5  N   -0.368204   0.195699
     6  C    1.096537  -0.899822
     7  C   -0.774714   0.400752
     8  O   -0.308675   0.054319
     9  N   -0.361247   0.060929
    10  C   -0.522966   0.122154
    11  N   -0.155589   0.069453
    12  C    0.024137   0.426537
    13  N   -0.353531   0.127899
    14  O    0.269892  -0.006053
    15  C    0.851054  -1.315329
    16  H   -0.006426   0.143754
    17  H    0.105228   0.059714
    18  H    0.191437  -0.038989
    19  H   -0.212396   0.406345
    20  H   -0.061459   0.214254
    21  H    0.134437   0.009411
    22  H    0.006143   0.150129
    23  H   -0.549678   0.692561
    24  H    0.044970   0.229572
    25  H   -0.257467   0.494800
    26  H    0.045138   0.289836
    27  H   -0.059840   0.215935
    28  H   -0.041269   0.211730
    29  H    0.029646   0.120969
 Sum of Mulliken charges =  -1.00000   1.00000

 Dipole moment (field-independent basis, Debye):
    X=             -2.7419    Y=              0.5177    Z=              3.0878  Tot=              4.1618
 Quadrupole moment (field-independent basis, Debye-Ang):
   XX=           -144.6016   YY=           -129.4707   ZZ=           -117.4746
   XY=             -0.5427   XZ=              6.4090   YZ=             -1.7576

 Summary of Natural Population Analysis:

                                       Natural Population
                Natural  -----------------------------------------------
    Atom  No    Charge         Core      Valence    Rydberg      Total
 -----------------------------------------------------------------------
      C    1   -0.28944      0.99964     2.28512    0.00468     3.28944
      C    2   -0.10381      0.99959     2.09285    0.01136     3.10381
      C    3   -0.19549      0.99961     2.18691    0.00897     3.19549
      C    4   -0.08340      0.99963     2.07257    0.01120     3.08340
      N    5   -0.34232      0.99973     2.82982    0.01276     3.84232
      C    6   -0.04668      0.99955     2.03322    0.01392     3.04668
      C    7    0.37183      0.99964     1.60439    0.02413     2.62817
      O    8   -0.30385      0.99987     3.29833    0.00565     4.30385
      N    9   -0.33435      0.99962     2.82547    0.00927     3.83435
      C   10    0.39847      0.99961     1.58086    0.02106     2.60153
      N   11   -0.28723      0.99965     2.77764    0.00994     3.78723
      C   12    0.17665      0.99967     1.80661    0.01707     2.82335
      N   13   -0.09205      0.99966     2.58019    0.01220     3.59205
      O   14   -0.16926      0.99985     3.16077    0.00864     4.16926
      C   15   -0.30203      0.99962     2.29763    0.00478     3.30203
      H   16    0.09698      0.00000     0.40229    0.00073     0.40302
      H   17    0.10283      0.00000     0.39585    0.00132     0.39717
      H   18    0.10462      0.00000     0.39454    0.00085     0.39538
      H   19    0.09925      0.00000     0.39897    0.00178     0.40075
      H   20    0.09907      0.00000     0.40008    0.00085     0.40093
      H   21    0.10605      0.00000     0.39219    0.00176     0.39395
      H   22    0.09571      0.00000     0.40315    0.00114     0.40429
      H   23    0.08137      0.00000     0.41635    0.00228     0.41863
      H   24    0.18094      0.00000     0.31639    0.00267     0.31906
      H   25    0.10468      0.00000     0.39304    0.00228     0.39532
      H   26    0.20722      0.00000     0.28932    0.00346     0.29278
      H   27    0.10646      0.00000     0.39223    0.00131     0.39354
      H   28    0.10950      0.00000     0.38895    0.00155     0.39050
      H   29    0.10829      0.00000     0.39045    0.00126     0.39171
 =======================================================================
   * Total *    0.00000     14.99494    40.80618    0.19888    56.00000

 Normal termination of Gaussian 16 at Thu Dec 10 15:34:55 2020.
