 Gaussian 16, Revision A.03,

 -----------------------------------------------------------
 # opt freq B3LYP/6-31G(d) empiricaldispersion=gd3bj scf=xqc
 -----------------------------------------------------------

 -------------------------------
 CID_152318488_JID_7727_neutraal
 -------------------------------
 Symbolic Z-matrix:
 Charge =  0 Multiplicity = 1

 SCF Done:  E(RB3LYP) =  -1162.22715822     A.U. after   15 cycles
 SCF Done:  E(RB3LYP) =  -1162.24214531     A.U. after   13 cycles
 SCF Done:  E(RB3LYP) =  -1162.24373595     A.U. after   11 cycles
 SCF Done:  E(RB3LYP) =  -1162.24400067     A.U. after   11 cycles
 SCF Done:  E(RB3LYP) =  -1162.24409928     A.U. after   11 cycles
 SCF Done:  E(RB3LYP) =  -1162.24417086     A.U. after   10 cycles
 SCF Done:  E(RB3LYP) =  -1162.24426126     A.U. after   10 cycles
 SCF Done:  E(RB3LYP) =  -1162.24429501     A.U. after   10 cycles
 SCF Done:  E(RB3LYP) =  -1162.24431060     A.U. after   10 cycles
 SCF Done:  E(RB3LYP) =  -1162.24431445     A.U. after    8 cycles
 SCF Done:  E(RB3LYP) =  -1162.24431572     A.U. after    8 cycles
 SCF Done:  E(RB3LYP) =  -1162.24431648     A.U. after    8 cycles
 SCF Done:  E(RB3LYP) =  -1162.24431673     A.U. after    8 cycles
 Optimization completed.
    -- Stationary point found.
 Normal termination of Gaussian 16 at Sun Dec 13 20:08:58 2020.

 --------------------------------------------------------------------
 #N Geom=AllCheck Guess=TCheck SCRF=Check GenChk RB3LYP/6-31G(d) Freq
 --------------------------------------------------------------------

 Structure from the checkpoint file:  "JID_7727.chk"
 -------------------------------
 CID_152318488_JID_7727_neutraal
 -------------------------------
 Charge =  0 Multiplicity = 1

 SCF Done:  E(RB3LYP) =  -1162.24431673     A.U. after    1 cycles

  Exact polarizability: 247.075  14.161 162.872  -0.524   2.637  99.886
 Approx polarizability: 320.533  30.948 272.958  -0.214   7.262 146.894

                      1                      2                      3
                      A                      A                      A
 Frequencies --     35.5852                44.7155                55.8433
 Red. masses --      3.7672                 3.6372                 2.9795
 Frc consts  --      0.0028                 0.0043                 0.0055
 IR Inten    --      0.8584                 1.7766                 0.5434

                      4                      5                      6
                      A                      A                      A
 Frequencies --     80.8753                85.6589               112.7008
 Red. masses --      3.7810                 3.8608                 3.2211
 Frc consts  --      0.0146                 0.0167                 0.0241
 IR Inten    --      1.5571                 0.5926                 0.4729

                      7                      8                      9
                      A                      A                      A
 Frequencies --    134.9011               152.1425               170.2538
 Red. masses --      3.1509                 2.4957                 2.3569
 Frc consts  --      0.0338                 0.0340                 0.0403
 IR Inten    --      4.1203                 2.7103                 1.2332

                     10                     11                     12
                      A                      A                      A
 Frequencies --    194.3713               211.8888               240.7483
 Red. masses --      3.8112                 1.5325                 1.1672
 Frc consts  --      0.0848                 0.0405                 0.0399
 IR Inten    --      8.4541                 0.7971                 0.5527

                     13                     14                     15
                      A                      A                      A
 Frequencies --    248.6791               259.5804               279.6098
 Red. masses --      2.6480                 1.7050                 1.5240
 Frc consts  --      0.0965                 0.0677                 0.0702
 IR Inten    --      1.9355                 0.1572                 0.1921

                     16                     17                     18
                      A                      A                      A
 Frequencies --    308.9947               318.6613               331.5877
 Red. masses --      2.4804                 2.3502                 3.3394
 Frc consts  --      0.1395                 0.1406                 0.2163
 IR Inten    --      3.3325                 2.0658                 8.1660

                     19                     20                     21
                      A                      A                      A
 Frequencies --    350.7547               360.0267               372.9807
 Red. masses --      2.7738                 6.7961                 3.5243
 Frc consts  --      0.2011                 0.5190                 0.2889
 IR Inten    --      0.6607                 1.4107                 1.1011

                     22                     23                     24
                      A                      A                      A
 Frequencies --    432.5526               464.3312               488.0410
 Red. masses --      4.8326                 3.0775                 3.0965
 Frc consts  --      0.5327                 0.3909                 0.4345
 IR Inten    --      7.4453                20.8432                 3.5991

                     25                     26                     27
                      A                      A                      A
 Frequencies --    523.2778               605.5305               638.6201
 Red. masses --      7.2774                 4.0670                 4.9782
 Frc consts  --      1.1741                 0.8786                 1.1962
 IR Inten    --     34.7660                 2.4579                 8.5145

                     28                     29                     30
                      A                      A                      A
 Frequencies --    639.8041               671.5790               698.0844
 Red. masses --     10.5046                10.3733                 5.2507
 Frc consts  --      2.5335                 2.7565                 1.5076
 IR Inten    --      6.1097                 5.1204                 6.9265

                     31                     32                     33
                      A                      A                      A
 Frequencies --    735.8483               741.2713               760.9552
 Red. masses --      5.6490                 8.0086                 5.4706
 Frc consts  --      1.8022                 2.5927                 1.8664
 IR Inten    --     10.9714                16.4455                 1.8164

                     34                     35                     36
                      A                      A                      A
 Frequencies --    802.2569               853.6337               904.9803
 Red. masses --      1.5193                 2.8658                 2.6729
 Frc consts  --      0.5761                 1.2304                 1.2898
 IR Inten    --      4.0208                43.8336                38.1906

                     37                     38                     39
                      A                      A                      A
 Frequencies --    947.9293               971.9847               973.1149
 Red. masses --      1.6683                 2.5128                 1.5043
 Frc consts  --      0.8832                 1.3987                 0.8393
 IR Inten    --     10.6693                77.5119                 4.3193

                     40                     41                     42
                      A                      A                      A
 Frequencies --    999.7678              1016.9671              1037.5073
 Red. masses --      1.8401                 2.7716                 4.0228
 Frc consts  --      1.0836                 1.6889                 2.5513
 IR Inten    --      2.0296               130.1751                72.5541

                     43                     44                     45
                      A                      A                      A
 Frequencies --   1052.8463              1115.2869              1131.2402
 Red. masses --      1.4536                 2.3339                 2.7364
 Frc consts  --      0.9493                 1.7104                 2.0632
 IR Inten    --      7.9560                37.2806                54.1015

                     46                     47                     48
                      A                      A                      A
 Frequencies --   1157.2551              1162.2093              1176.5110
 Red. masses --      1.3597                 3.2324                 5.2977
 Frc consts  --      1.0729                 2.5724                 4.3205
 IR Inten    --     25.5304                 6.4876               417.6965

                     49                     50                     51
                      A                      A                      A
 Frequencies --   1197.9199              1203.5222              1221.0331
 Red. masses --      2.3595                 2.1761                 1.8535
 Frc consts  --      1.9950                 1.8571                 1.6282
 IR Inten    --      5.1542                64.2655                43.2045

                     52                     53                     54
                      A                      A                      A
 Frequencies --   1246.2245              1269.7768              1288.7726
 Red. masses --      3.6711                 2.7411                 2.1760
 Frc consts  --      3.3593                 2.6040                 2.1294
 IR Inten    --     39.1404                 3.7870                23.5786

                     55                     56                     57
                      A                      A                      A
 Frequencies --   1311.5918              1339.3653              1383.3150
 Red. masses --      2.4404                 2.1758                 2.4862
 Frc consts  --      2.4735                 2.2997                 2.8031
 IR Inten    --    403.9196                82.1898               322.0994

                     58                     59                     60
                      A                      A                      A
 Frequencies --   1403.1288              1406.3241              1429.9490
 Red. masses --      1.4348                 2.1595                 1.3036
 Frc consts  --      1.6643                 2.5164                 1.5705
 IR Inten    --     35.2785                74.9842                17.4800

                     61                     62                     63
                      A                      A                      A
 Frequencies --   1436.6824              1444.3207              1452.2702
 Red. masses --      1.2952                 1.7377                 1.5181
 Frc consts  --      1.5751                 2.1358                 1.8864
 IR Inten    --     27.6841                51.8979                41.6624

                     64                     65                     66
                      A                      A                      A
 Frequencies --   1466.4231              1498.7608              1509.3466
 Red. masses --      2.2618                 1.3245                 1.2826
 Frc consts  --      2.8657                 1.7529                 1.7216
 IR Inten    --    167.0158                29.5099               105.2300

                     67                     68                     69
                      A                      A                      A
 Frequencies --   1511.6384              1516.2234              1522.5345
 Red. masses --      1.0555                 1.0479                 1.0527
 Frc consts  --      1.4210                 1.4194                 1.4377
 IR Inten    --      5.2302                 8.5416                 4.5027

                     70                     71                     72
                      A                      A                      A
 Frequencies --   1523.4859              1534.0866              1534.5913
 Red. masses --      1.0536                 1.0538                 1.0555
 Frc consts  --      1.4407                 1.4612                 1.4645
 IR Inten    --      0.6022                 2.3703                22.9547

                     73                     74                     75
                      A                      A                      A
 Frequencies --   1537.2359              1539.6971              1547.8447
 Red. masses --      1.0767                 1.0632                 1.1188
 Frc consts  --      1.4990                 1.4850                 1.5793
 IR Inten    --      0.7027                 1.6482                 6.7491

                     76                     77                     78
                      A                      A                      A
 Frequencies --   1724.4423              1820.6345              3049.7629
 Red. masses --     10.1723                12.4199                 1.0490
 Frc consts  --     17.8225                24.2558                 5.7486
 IR Inten    --   1323.3810               268.0811                26.4382

                     79                     80                     81
                      A                      A                      A
 Frequencies --   3057.7717              3062.0354              3062.2124
 Red. masses --      1.0351                 1.0424                 1.0349
 Frc consts  --      5.7025                 5.7585                 5.7176
 IR Inten    --     14.0408                18.9392                21.1457

                     82                     83                     84
                      A                      A                      A
 Frequencies --   3068.2238              3097.8052              3126.2486
 Red. masses --      1.0604                 1.0598                 1.1020
 Frc consts  --      5.8818                 5.9923                 6.3457
 IR Inten    --     45.8475                10.9962                 0.3426

                     85                     86                     87
                      A                      A                      A
 Frequencies --   3131.6232              3132.9152              3136.1549
 Red. masses --      1.1023                 1.1020                 1.1033
 Frc consts  --      6.3693                 6.3726                 6.3935
 IR Inten    --     35.6393                25.3773                17.2500

                     88                     89                     90
                      A                      A                      A
 Frequencies --   3138.3857              3139.3708              3142.5973
 Red. masses --      1.1037                 1.0959                 1.0984
 Frc consts  --      6.4049                 6.3635                 6.3913
 IR Inten    --     10.1877                19.0044                20.4032

                     91                     92                     93
                      A                      A                      A
 Frequencies --   3157.6202              3158.7117              3202.1327
 Red. masses --      1.1017                 1.1074                 1.1002
 Frc consts  --      6.4718                 6.5100                 6.6466
 IR Inten    --     20.9177                 8.8110                 0.9890

 - Thermochemistry -
 -------------------
 Temperature   298.150 Kelvin.  Pressure   1.00000 Atm.
 Atom     1 has atomic number  6 and mass  12.00000

 Molecular mass:   256.08816 amu.
 Principal axes and moments of inertia in atomic units:
                           1         2         3
     Eigenvalues --  2071.899517463.517278889.52111
           X            0.99970  -0.02424   0.00215
           Y            0.02425   0.99968  -0.00666
           Z           -0.00198   0.00671   0.99998
 This molecule is an asymmetric top.
 Rotational symmetry number  1.
 Warning -- assumption of classical behavior for rotation
           may cause significant error
 Rotational temperatures (Kelvin)      0.04180     0.01160     0.00974
 Rotational constants (GHZ):           0.87106     0.24181     0.20302
 Zero-point vibrational energy     710214.9 (Joules/Mol)
                                  169.74544 (Kcal/Mol)
 Warning -- explicit consideration of  26 degrees of freedom as
           vibrations may cause significant error
 Vibrational temperatures:     51.20    64.34    80.35   116.36   123.24
          (Kelvin)            162.15   194.09   218.90   244.96   279.66
                              304.86   346.38   357.79   373.48   402.30
                              444.57   458.48   477.08   504.66   518.00
                              536.64   622.35   668.07   702.18   752.88
                              871.22   918.83   920.54   966.25  1004.39
                             1058.72  1066.52  1094.84  1154.27  1228.19
                             1302.06  1363.86  1398.47  1400.10  1438.44
                             1463.19  1492.74  1514.81  1604.65  1627.60
                             1665.03  1672.16  1692.74  1723.54  1731.60
                             1756.79  1793.04  1826.93  1854.26  1887.09
                             1927.05  1990.28  2018.79  2023.39  2057.38
                             2067.07  2078.06  2089.49  2109.86  2156.38
                             2171.61  2174.91  2181.51  2190.59  2191.96
                             2207.21  2207.93  2211.74  2215.28  2227.00
                             2481.09  2619.49  4387.93  4399.45  4405.59
                             4405.84  4414.49  4457.05  4497.97  4505.71
                             4507.57  4512.23  4515.44  4516.85  4521.50
                             4543.11  4544.68  4607.15

 Zero-point correction=                           0.270507 (Hartree/Particle)
 Thermal correction to Energy=                    0.287995
 Thermal correction to Enthalpy=                  0.288939
 Thermal correction to Gibbs Free Energy=         0.224584
 Sum of electronic and zero-point Energies=          -1161.973810
 Sum of electronic and thermal Energies=             -1161.956322
 Sum of electronic and thermal Enthalpies=           -1161.955377
 Sum of electronic and thermal Free Energies=        -1162.019733

                     E (Thermal)             CV                S
                      KCal/Mol        Cal/Mol-Kelvin    Cal/Mol-Kelvin
 Total                  180.720             64.283            135.448
 Electronic               0.000              0.000              0.000
 Translational            0.889              2.981             42.521
 Rotational               0.889              2.981             33.285
 Vibrational            178.942             58.321             59.641
 Vibration     1          0.594              1.982              5.491
 Vibration     2          0.595              1.980              5.038
 Vibration     3          0.596              1.975              4.599
 Vibration     4          0.600              1.962              3.870
 Vibration     5          0.601              1.959              3.757
 Vibration     6          0.607              1.939              3.222
 Vibration     7          0.613              1.918              2.875
 Vibration     8          0.619              1.900              2.645
 Vibration     9          0.625              1.879              2.433
 Vibration    10          0.635              1.848              2.186
 Vibration    11          0.643              1.823              2.027
 Vibration    12          0.658              1.778              1.797
 Vibration    13          0.662              1.765              1.740
 Vibration    14          0.668              1.747              1.665
 Vibration    15          0.680              1.711              1.536
 Vibration    16          0.698              1.657              1.368
 Vibration    17          0.705              1.638              1.317
 Vibration    18          0.714              1.612              1.252
 Vibration    19          0.728              1.574              1.163
 Vibration    20          0.735              1.555              1.122
 Vibration    21          0.744              1.528              1.068
 Vibration    22          0.793              1.399              0.850
 Vibration    23          0.822              1.329              0.754
 Vibration    24          0.844              1.277              0.689
 Vibration    25          0.878              1.198              0.602
 Vibration    26          0.964              1.020              0.440

                           ! Non-Optimized Parameters !
 Normal termination of Gaussian 16 at Sun Dec 13 20:20:45 2020.

 ----------------------------------------------------------------------
 # B3LYP/6-311++G(d,p) empiricaldispersion=gd3bj scf=xqc pop=npa geom=c
 heck
 ----------------------------------------------------------------------

 ---------------------------------------
 CID_152318488_JID_7727_Energie_neutraal
 ---------------------------------------
 Structure from the checkpoint file:  "JID_7727.chk"
 Charge =  0 Multiplicity = 1

 SCF Done:  E(RB3LYP) =  -1162.48008321     A.U. after   16 cycles
 Normal termination of Gaussian 16 at Sun Dec 13 20:26:56 2020.

 ----------------------------------------------------------------------
 # B3LYP/6-311++G(d,p) empiricaldispersion=gd3bj scf=xqc pop=npa geom=c
 heck
 ----------------------------------------------------------------------

 -------------------------------------
 CID_152318488_JID_7727_Energie_kation
 -------------------------------------
 Structure from the checkpoint file:  "JID_7727.chk"
 Charge =  1 Multiplicity = 2

 SCF Done:  E(UB3LYP) =  -1162.20892539     A.U. after   25 cycles
 Normal termination of Gaussian 16 at Sun Dec 13 20:41:30 2020.
 Gaussian 16:  ES64L-G16RevA.03 25-Dec-2016

 ----------------------------------------------------------------------
 # B3LYP/6-311++G(d,p) empiricaldispersion=gd3bj scf=xqc pop=npa geom=c
 heck
 ----------------------------------------------------------------------

 ------------------------------------
 CID_152318488_JID_7727_Energie_anion
 ------------------------------------
 Structure from the checkpoint file:  "JID_7727.chk"
 Charge = -1 Multiplicity = 2

                         Standard orientation:
 ---------------------------------------------------------------------
 Center     Atomic      Atomic             Coordinates (Angstroms)
 Number     Number       Type             X           Y           Z
 ---------------------------------------------------------------------
      1          6           0        4.279227   -1.267569    1.118698
      2          6           0        3.736905   -1.036917   -0.290092
      3          7           0        2.411110   -0.431243   -0.267884
      4          6           0        1.217524   -1.206600   -0.293548
      5          8           0        1.187102   -2.422998   -0.367311
      6          6           0        0.189533   -0.195662   -0.213431
      7          6           0       -1.169308   -0.331991   -0.203597
      8          7           0       -2.147104    0.620312   -0.197009
      9          6           0       -3.443517   -0.026616    0.131021
     10          6           0       -3.125413   -1.437040   -0.385471
     11          8           0       -1.702670   -1.573558   -0.212788
     12          6           0       -4.603444    0.610065   -0.631910
     13          6           0       -3.691570   -0.022320    1.647145
     14          6           0       -1.910496    2.026714    0.101263
     15          8           0        0.802059    1.064152   -0.138129
     16          6           0        2.153045    0.902948   -0.166407
     17         16           0        3.207041    2.171587   -0.090914
     18          1           0        4.365443   -0.318184    1.655149
     19          1           0        5.271765   -1.727604    1.066560
     20          1           0        3.617669   -1.936539    1.677873
     21          1           0        4.388023   -0.370139   -0.860015
     22          1           0        3.623650   -1.982281   -0.825949
     23          1           0       -3.361770   -1.540005   -1.451015
     24          1           0       -3.607293   -2.234110    0.182016
     25          1           0       -5.506081    0.001750   -0.510900
     26          1           0       -4.832760    1.610448   -0.251943
     27          1           0       -4.372208    0.685326   -1.698590
     28          1           0       -2.877882   -0.531392    2.173927
     29          1           0       -3.764607    1.000670    2.029304
     30          1           0       -4.630241   -0.535685    1.881486
     31          1           0       -1.056708    2.384868   -0.470359
     32          1           0       -2.794725    2.596131   -0.191509
     33          1           0       -1.709810    2.197020    1.166643
 ---------------------------------------------------------------------

 SCF Done:  E(UB3LYP) =  -1162.48300186     A.U. after   33 cycles
 SCF Done:  E(UB3LYP) =  -1162.48300186     a.u. after    1 cycles

 The electronic state is 2-A.
 Alpha  occ. eigenvalues --  -88.68049 -19.07302 -19.06201 -18.96921 -14.25451
 Alpha  occ. eigenvalues --  -14.24723 -10.17704 -10.16398 -10.15174 -10.14146
 Alpha  occ. eigenvalues --  -10.13994 -10.11241 -10.10776 -10.10489 -10.07884
 Alpha  occ. eigenvalues --  -10.07724 -10.07233  -7.76837  -5.73237  -5.72683
 Alpha  occ. eigenvalues --   -5.72380  -1.01386  -1.00229  -0.91872  -0.85131
 Alpha  occ. eigenvalues --   -0.83994  -0.73198  -0.67975  -0.67466  -0.63736
 Alpha  occ. eigenvalues --   -0.62035  -0.61230  -0.58653  -0.56773  -0.51845
 Alpha  occ. eigenvalues --   -0.49692  -0.48186  -0.46591  -0.43503  -0.41552
 Alpha  occ. eigenvalues --   -0.39165  -0.38083  -0.37561  -0.37152  -0.36021
 Alpha  occ. eigenvalues --   -0.34904  -0.34690  -0.32671  -0.32054  -0.31797
 Alpha  occ. eigenvalues --   -0.31013  -0.30159  -0.30035  -0.29718  -0.28552
 Alpha  occ. eigenvalues --   -0.27973  -0.27382  -0.27328  -0.27052  -0.26593
 Alpha  occ. eigenvalues --   -0.25540  -0.24790  -0.20376  -0.17287  -0.15130
 Alpha  occ. eigenvalues --   -0.13401  -0.10883  -0.09198   0.03557
 Alpha virt. eigenvalues --    0.05212   0.07337   0.07543   0.07764   0.08829
 Alpha virt. eigenvalues --    0.09895   0.10100   0.10474   0.10490   0.11174
 Alpha virt. eigenvalues --    0.11256   0.11369   0.12048   0.13359   0.13729

  Beta  occ. eigenvalues --  -88.68028 -19.07295 -19.06117 -18.96744 -14.25527
  Beta  occ. eigenvalues --  -14.24669 -10.17403 -10.16084 -10.15012 -10.14136
  Beta  occ. eigenvalues --  -10.13992 -10.11239 -10.10874 -10.10464 -10.07831
  Beta  occ. eigenvalues --  -10.07694 -10.07236  -7.76818  -5.73236  -5.72605
  Beta  occ. eigenvalues --   -5.72368  -1.01263  -1.00039  -0.91591  -0.84988
  Beta  occ. eigenvalues --   -0.83948  -0.73055  -0.67773  -0.67404  -0.63489
  Beta  occ. eigenvalues --   -0.61959  -0.61152  -0.58590  -0.56709  -0.51631
  Beta  occ. eigenvalues --   -0.49550  -0.48036  -0.46522  -0.43418  -0.41320
  Beta  occ. eigenvalues --   -0.39013  -0.37903  -0.37430  -0.36928  -0.35922
  Beta  occ. eigenvalues --   -0.34829  -0.34597  -0.32560  -0.31962  -0.31718
  Beta  occ. eigenvalues --   -0.30910  -0.30047  -0.29969  -0.29636  -0.28511
  Beta  occ. eigenvalues --   -0.27463  -0.27232  -0.27117  -0.26929  -0.25996
  Beta  occ. eigenvalues --   -0.25387  -0.24706  -0.19964  -0.16842  -0.14999
  Beta  occ. eigenvalues --   -0.12897  -0.10833  -0.08768
  Beta virt. eigenvalues --    0.06060   0.07583   0.07685   0.08036   0.08241
  Beta virt. eigenvalues --    0.09192   0.09885   0.10275   0.10663   0.10728
  Beta virt. eigenvalues --    0.11305   0.11575   0.12039   0.12479   0.13425

 Mulliken charges and spin densities:
               1          2
     1  C   -0.392420   0.002595
     2  C   -0.296741  -0.007059
     3  N    0.067412  -0.039916
     4  C   -0.367766   0.034695
     5  O   -0.407572   0.063705
     6  C    0.273357  -0.072963
     7  C    0.062648   0.148553
     8  N    0.125553   0.003490
     9  C   -1.636552   1.818162
    10  C    0.056150  -0.341793
    11  O   -0.073333   0.022710
    12  C    1.351923  -1.854419
    13  C    0.524013  -0.997745
    14  C    0.165064  -0.510402
    15  O    0.015406   0.003630
    16  C    0.268821   0.147685
    17  S   -0.803302   0.072536
    18  H    0.142466   0.000093
    19  H    0.108234   0.000055
    20  H    0.165625   0.001264
    21  H    0.139042  -0.000251
    22  H    0.169542  -0.001533
    23  H    0.138396   0.042418
    24  H   -0.001223   0.182198
    25  H   -0.445443   0.605843
    26  H   -0.252466   0.407207
    27  H   -0.094067   0.261075
    28  H    0.143294   0.046216
    29  H   -0.160119   0.313466
    30  H   -0.149440   0.303408
    31  H    0.186870   0.008766
    32  H   -0.053047   0.183497
    33  H    0.029676   0.152815
 Sum of Mulliken charges =  -1.00000   1.00000

 Dipole moment (field-independent basis, Debye):
    X=              2.2063    Y=             -2.1160    Z=              0.0659  Tot=              3.0577
 Quadrupole moment (field-independent basis, Debye-Ang):
   XX=           -191.4154   YY=           -151.8757   ZZ=           -126.5210
   XY=             -5.9378   XZ=              2.6791   YZ=             -1.1316

 Summary of Natural Population Analysis:

                                       Natural Population
                Natural  -----------------------------------------------
    Atom  No    Charge         Core      Valence    Rydberg      Total
 -----------------------------------------------------------------------
      C    1   -0.29153      0.99966     2.28821    0.00365     3.29153
      C    2   -0.08734      0.99964     2.07843    0.00927     3.08734
      N    3   -0.26671      0.99958     2.75534    0.01179     3.76671
      C    4    0.33368      0.99960     1.64444    0.02227     2.66632
      O    5   -0.30282      0.99988     3.29706    0.00589     4.30282
      C    6   -0.00384      0.99936     1.99150    0.01298     3.00384
      C    7    0.33140      0.99943     1.65473    0.01445     2.66860
      N    8   -0.24421      0.99962     2.73394    0.01065     3.74421
      C    9    0.05754      0.99958     1.92953    0.01335     2.94246
      C   10   -0.00680      0.99950     1.99472    0.01257     3.00680
      O   11   -0.24934      0.99987     3.24235    0.00713     4.24934
      C   12   -0.29131      0.99961     2.28405    0.00765     3.29131
      C   13   -0.29481      0.99961     2.28846    0.00674     3.29481
      C   14   -0.17983      0.99964     2.17164    0.00855     3.17983
      O   15   -0.25665      0.99985     3.24698    0.00982     4.25665
      C   16    0.24995      0.99964     1.72937    0.02105     2.75005
      S   17   -0.12971      4.99955     3.11513    0.01503     8.12971
      H   18    0.10592      0.00000     0.39301    0.00107     0.39408
      H   19    0.09385      0.00000     0.40536    0.00080     0.40615
      H   20    0.10182      0.00000     0.39724    0.00094     0.39818
      H   21    0.10537      0.00000     0.39339    0.00124     0.39463
      H   22    0.10563      0.00000     0.39311    0.00126     0.39437
      H   23    0.08779      0.00000     0.41101    0.00120     0.41221
      H   24    0.09572      0.00000     0.40311    0.00116     0.40428
      H   25    0.10716      0.00000     0.39092    0.00191     0.39284
      H   26    0.10520      0.00000     0.39324    0.00156     0.39480
      H   27    0.10518      0.00000     0.39360    0.00123     0.39482
      H   28    0.10549      0.00000     0.39351    0.00100     0.39451
      H   29    0.10468      0.00000     0.39434    0.00098     0.39532
      H   30    0.10340      0.00000     0.39566    0.00094     0.39660
      H   31    0.11425      0.00000     0.38443    0.00132     0.38575
      H   32    0.09672      0.00000     0.40236    0.00092     0.40328
      H   33    0.09416      0.00000     0.40460    0.00124     0.40584
 =======================================================================
   * Total *    0.00000     20.99361    46.79478    0.21160    68.00000

 Normal termination of Gaussian 16 at Sun Dec 13 21:00:41 2020.
