 Gaussian 16, Revision A.03,

 -----------------------------------------------------------
 # opt freq B3LYP/6-31G(d) empiricaldispersion=gd3bj scf=xqc
 -----------------------------------------------------------

 ------------------------------
 CID_83672099_JID_3636_neutraal
 ------------------------------
 Symbolic Z-matrix:
 Charge =  0 Multiplicity = 1

 SCF Done:  E(RB3LYP) =  -626.214912088     A.U. after   15 cycles
 SCF Done:  E(RB3LYP) =  -626.218932772     A.U. after   12 cycles
 SCF Done:  E(RB3LYP) =  -626.217731881     A.U. after   13 cycles
 SCF Done:  E(RB3LYP) =  -626.220425250     A.U. after   12 cycles
 SCF Done:  E(RB3LYP) =  -626.220815842     A.U. after   12 cycles
 SCF Done:  E(RB3LYP) =  -626.220999342     A.U. after   12 cycles
 SCF Done:  E(RB3LYP) =  -626.221048735     A.U. after   11 cycles
 SCF Done:  E(RB3LYP) =  -626.221067603     A.U. after   10 cycles
 SCF Done:  E(RB3LYP) =  -626.221074563     A.U. after    9 cycles
 SCF Done:  E(RB3LYP) =  -626.221075843     A.U. after    8 cycles
 SCF Done:  E(RB3LYP) =  -626.221077247     A.U. after    8 cycles
 SCF Done:  E(RB3LYP) =  -626.221077451     A.U. after    7 cycles
 SCF Done:  E(RB3LYP) =  -626.221077519     A.U. after    7 cycles
 Optimization completed.
    -- Stationary point found.
 Normal termination of Gaussian 16 at Wed Dec  9 23:51:54 2020.

 --------------------------------------------------------------------
 #N Geom=AllCheck Guess=TCheck SCRF=Check GenChk RB3LYP/6-31G(d) Freq
 --------------------------------------------------------------------

 Structure from the checkpoint file:  "JID_3636.chk"
 ------------------------------
 CID_83672099_JID_3636_neutraal
 ------------------------------
 Charge =  0 Multiplicity = 1

 SCF Done:  E(RB3LYP) =  -626.221077519     A.U. after    1 cycles

  Exact polarizability: 117.966  -2.811 111.279   5.905   6.455  76.927
 Approx polarizability: 156.672   3.016 173.591  14.221  19.211 121.544

                      1                      2                      3
                      A                      A                      A
 Frequencies --     51.7455                64.5269                85.2419
 Red. masses --      9.9049                 4.1615                 3.7083
 Frc consts  --      0.0156                 0.0102                 0.0159
 IR Inten    --      1.0392                 0.4736                 0.7613

                      4                      5                      6
                      A                      A                      A
 Frequencies --    107.3581               165.6456               196.8006
 Red. masses --      1.1497                 3.5805                 3.1628
 Frc consts  --      0.0078                 0.0579                 0.0722
 IR Inten    --      0.7217                 3.2410                 0.9192

                      7                      8                      9
                      A                      A                      A
 Frequencies --    238.1318               257.6104               319.8791
 Red. masses --      4.2787                 3.0071                 3.2577
 Frc consts  --      0.1430                 0.1176                 0.1964
 IR Inten    --      2.7733                 1.2482                 5.1086

                     10                     11                     12
                      A                      A                      A
 Frequencies --    345.0437               364.4718               446.4196
 Red. masses --      2.6135                 7.1135                 3.6850
 Frc consts  --      0.1833                 0.5567                 0.4327
 IR Inten    --      5.9509                 1.1689                 3.2659

                     13                     14                     15
                      A                      A                      A
 Frequencies --    460.8935               534.4565               594.7465
 Red. masses --      5.1730                 2.8507                 2.3182
 Frc consts  --      0.6474                 0.4798                 0.4831
 IR Inten    --      3.4378                 5.4418                74.5068

                     16                     17                     18
                      A                      A                      A
 Frequencies --    624.3478               640.0498               652.8011
 Red. masses --      1.6573                 2.7304                 3.1281
 Frc consts  --      0.3806                 0.6590                 0.7854
 IR Inten    --     45.3378                16.8045                 0.5346

                     19                     20                     21
                      A                      A                      A
 Frequencies --    703.9749               716.3348               746.2064
 Red. masses --      4.5815                 1.4301                 2.3316
 Frc consts  --      1.3377                 0.4324                 0.7649
 IR Inten    --     12.0196                24.9594               165.9222

                     22                     23                     24
                      A                      A                      A
 Frequencies --    761.1715               791.2812               841.5641
 Red. masses --      3.1651                 3.4155                 4.2877
 Frc consts  --      1.0804                 1.2600                 1.7891
 IR Inten    --      2.4865                12.4676                 2.9160

                     25                     26                     27
                      A                      A                      A
 Frequencies --    907.0264               923.0717               972.8551
 Red. masses --      3.9157                 1.9605                 2.3027
 Frc consts  --      1.8980                 0.9842                 1.2841
 IR Inten    --     15.9534                12.4838                 6.7052

                     28                     29                     30
                      A                      A                      A
 Frequencies --    994.5715              1017.9105              1034.2374
 Red. masses --      2.4899                 2.0386                 3.0947
 Frc consts  --      1.4511                 1.2445                 1.9503
 IR Inten    --      5.8768                 9.2989                 7.0504

                     31                     32                     33
                      A                      A                      A
 Frequencies --   1080.0076              1122.1812              1152.2516
 Red. masses --      1.4822                 1.8960                 4.4842
 Frc consts  --      1.0186                 1.4068                 3.5078
 IR Inten    --      2.1290                26.3315                22.8790

                     34                     35                     36
                      A                      A                      A
 Frequencies --   1190.5129              1198.2452              1208.5661
 Red. masses --      1.6294                 2.0429                 3.1744
 Frc consts  --      1.3607                 1.7282                 2.7318
 IR Inten    --     58.9477               133.6794                11.3090

                     37                     38                     39
                      A                      A                      A
 Frequencies --   1256.3844              1276.7416              1314.4639
 Red. masses --      1.1839                 1.5364                 1.4265
 Frc consts  --      1.1011                 1.4756                 1.4522
 IR Inten    --     10.1303                 4.3605                11.5128

                     40                     41                     42
                      A                      A                      A
 Frequencies --   1335.2264              1354.1535              1371.4626
 Red. masses --      5.2764                 1.6601                 1.9263
 Frc consts  --      5.5424                 1.7936                 2.1347
 IR Inten    --     26.1801                 2.9311                27.0948

                     43                     44                     45
                      A                      A                      A
 Frequencies --   1381.1349              1408.6296              1418.8262
 Red. masses --      1.5736                 1.3699                 2.6585
 Frc consts  --      1.7686                 1.6015                 3.1532
 IR Inten    --      2.2382                 7.9708                45.0404

                     46                     47                     48
                      A                      A                      A
 Frequencies --   1445.8665              1488.2725              1506.5614
 Red. masses --      1.3725                 2.3958                 1.0440
 Frc consts  --      1.6906                 3.1266                 1.3961
 IR Inten    --      1.3661                43.4913                 4.7393

                     49                     50                     51
                      A                      A                      A
 Frequencies --   1510.2216              1516.4242              1523.0267
 Red. masses --      1.2715                 1.1049                 1.1663
 Frc consts  --      1.7086                 1.4970                 1.5940
 IR Inten    --      3.8287                 1.0225                 2.5902

                     52                     53                     54
                      A                      A                      A
 Frequencies --   1541.6940              1552.1609              1613.9915
 Red. masses --      1.4016                 4.3722                 4.7691
 Frc consts  --      1.9628                 6.2061                 7.3196
 IR Inten    --      1.0184                14.5986                18.9058

                     55                     56                     57
                      A                      A                      A
 Frequencies --   1863.1865              3030.5146              3048.7436
 Red. masses --      9.8405                 1.0666                 1.0361
 Frc consts  --     20.1270                 5.7717                 5.6742
 IR Inten    --    321.2684                53.1477                37.7288

                     58                     59                     60
                      A                      A                      A
 Frequencies --   3084.2583              3094.0903              3103.1985
 Red. masses --      1.0687                 1.0914                 1.1013
 Frc consts  --      5.9899                 6.1562                 6.2484
 IR Inten    --     20.0783                41.3521                19.2449

                     61                     62                     63
                      A                      A                      A
 Frequencies --   3118.6203              3126.8206              3139.7885
 Red. masses --      1.0862                 1.1020                 1.1049
 Frc consts  --      6.2244                 6.3479                 6.4173
 IR Inten    --      5.3144                20.9585                12.6029

                     64                     65                     66
                      A                      A                      A
 Frequencies --   3278.3767              3508.3323              3681.7212
 Red. masses --      1.0977                 1.0747                 1.0640
 Frc consts  --      6.9510                 7.7940                 8.4973
 IR Inten    --      1.8854                 0.2206                51.9901

 - Thermochemistry -
 -------------------
 Temperature   298.150 Kelvin.  Pressure   1.00000 Atm.
 Atom     1 has atomic number  6 and mass  12.00000

 Molecular mass:   181.08513 amu.
 Principal axes and moments of inertia in atomic units:
                           1         2         3
     Eigenvalues --  1468.299982658.868393606.41108
           X            0.99881  -0.04863   0.00284
           Y            0.04863   0.99882  -0.00031
           Z           -0.00282   0.00045   1.00000
 This molecule is an asymmetric top.
 Rotational symmetry number  1.
 Warning -- assumption of classical behavior for rotation
           may cause significant error
 Rotational temperatures (Kelvin)      0.05899     0.03258     0.02402
 Rotational constants (GHZ):           1.22914     0.67876     0.50043
 Zero-point vibrational energy     516816.9 (Joules/Mol)
                                  123.52220 (Kcal/Mol)
 Warning -- explicit consideration of  15 degrees of freedom as
           vibrations may cause significant error
 Vibrational temperatures:     74.45    92.84   122.64   154.46   238.33
          (Kelvin)            283.15   342.62   370.64   460.23   496.44
                              524.39   642.30   663.12   768.96   855.71
                              898.30   920.89   939.24  1012.86  1030.65
                             1073.62  1095.16  1138.48  1210.82  1305.01
                             1328.09  1399.72  1430.97  1464.55  1488.04
                             1553.89  1614.57  1657.83  1712.88  1724.01
                             1738.86  1807.66  1836.95  1891.22  1921.09
                             1948.32  1973.23  1987.15  2026.70  2041.37
                             2080.28  2141.29  2167.61  2172.87  2181.80
                             2191.30  2218.15  2233.21  2322.17  2680.71
                             4360.23  4386.46  4437.56  4451.71  4464.81
                             4487.00  4498.80  4517.46  4716.85  5047.71
                             5297.18

 Zero-point correction=                           0.196845 (Hartree/Particle)
 Thermal correction to Energy=                    0.208418
 Thermal correction to Enthalpy=                  0.209362
 Thermal correction to Gibbs Free Energy=         0.158578
 Sum of electronic and zero-point Energies=           -626.024232
 Sum of electronic and thermal Energies=              -626.012660
 Sum of electronic and thermal Enthalpies=            -626.011716
 Sum of electronic and thermal Free Energies=         -626.062500

                     E (Thermal)             CV                S
                      KCal/Mol        Cal/Mol-Kelvin    Cal/Mol-Kelvin
 Total                  130.784             43.618            106.884
 Electronic               0.000              0.000              0.000
 Translational            0.889              2.981             41.488
 Rotational               0.889              2.981             31.021
 Vibrational            129.007             37.656             34.374
 Vibration     1          0.596              1.977              4.750
 Vibration     2          0.597              1.971              4.314
 Vibration     3          0.601              1.959              3.766
 Vibration     4          0.606              1.943              3.316
 Vibration     5          0.624              1.885              2.484
 Vibration     6          0.636              1.844              2.163
 Vibration     7          0.656              1.782              1.817
 Vibration     8          0.667              1.750              1.678
 Vibration     9          0.706              1.636              1.311
 Vibration    10          0.723              1.585              1.189
 Vibration    11          0.738              1.545              1.103
 Vibration    12          0.806              1.369              0.807
 Vibration    13          0.819              1.337              0.764
 Vibration    14          0.889              1.174              0.577
 Vibration    15          0.952              1.043              0.459

                           ! Non-Optimized Parameters !
 Normal termination of Gaussian 16 at Wed Dec  9 23:58:10 2020.

 ----------------------------------------------------------------------
 # B3LYP/6-311++G(d,p) empiricaldispersion=gd3bj scf=xqc pop=npa geom=c
 heck
 ----------------------------------------------------------------------

 --------------------------------------
 CID_83672099_JID_3636_Energie_neutraal
 --------------------------------------
 Structure from the checkpoint file:  "JID_3636.chk"
 Charge =  0 Multiplicity = 1

 SCF Done:  E(RB3LYP) =  -626.406677195     A.U. after   16 cycles
 Normal termination of Gaussian 16 at Thu Dec 10 00:01:01 2020.

 ----------------------------------------------------------------------
 # B3LYP/6-311++G(d,p) empiricaldispersion=gd3bj scf=xqc pop=npa geom=c
 heck
 ----------------------------------------------------------------------

 ------------------------------------
 CID_83672099_JID_3636_Energie_kation
 ------------------------------------
 Structure from the checkpoint file:  "JID_3636.chk"
 Charge =  1 Multiplicity = 2

 SCF Done:  E(UB3LYP) =  -626.109162583     A.U. after   26 cycles
 Normal termination of Gaussian 16 at Thu Dec 10 00:07:33 2020.
 Gaussian 16:  ES64L-G16RevA.03 25-Dec-2016

 ----------------------------------------------------------------------
 # B3LYP/6-311++G(d,p) empiricaldispersion=gd3bj scf=xqc pop=npa geom=c
 heck
 ----------------------------------------------------------------------

 -----------------------------------
 CID_83672099_JID_3636_Energie_anion
 -----------------------------------
 Structure from the checkpoint file:  "JID_3636.chk"
 Charge = -1 Multiplicity = 2

                         Standard orientation:
 ---------------------------------------------------------------------
 Center     Atomic      Atomic             Coordinates (Angstroms)
 Number     Number       Type             X           Y           Z
 ---------------------------------------------------------------------
      1          6           0        3.687326   -1.232170    0.068155
      2          6           0        2.407582   -0.464770   -0.021944
      3          6           0        2.169474    0.850233    0.306657
      4          7           0        0.828000    1.070084    0.049353
      5          6           0        0.069800    2.306213    0.183124
      6          6           0       -1.421467    1.957735    0.267688
      7          7           0       -1.861408    1.035418   -0.780074
      8          6           0       -1.128030   -0.243776   -0.797996
      9          6           0        0.324576   -0.107072   -0.431247
     10          7           0        1.243132   -1.051692   -0.481033
     11          6           0       -1.851434   -1.245207    0.109349
     12          8           0       -2.476308   -2.203123   -0.275740
     13          8           0       -1.734162   -0.920259    1.421610
     14          1           0        3.579816   -2.098608    0.731079
     15          1           0        4.497109   -0.604297    0.453158
     16          1           0        3.986783   -1.613940   -0.914915
     17          1           0        2.808392    1.632338    0.689298
     18          1           0        0.267630    2.956356   -0.680569
     19          1           0        0.401432    2.834475    1.083559
     20          1           0       -2.018204    2.872396    0.195817
     21          1           0       -1.632848    1.494287    1.234837
     22          1           0       -1.766274    1.477109   -1.691568
     23          1           0       -1.213794   -0.671605   -1.799168
     24          1           0       -2.241330   -1.595241    1.911077
 ---------------------------------------------------------------------

 SCF Done:  E(UB3LYP) =  -626.397875546     A.U. after   33 cycles
 SCF Done:  E(UB3LYP) =  -626.397875546     a.u. after    1 cycles

 The electronic state is 2-A.
 Alpha  occ. eigenvalues --  -19.07610 -19.02098 -14.26505 -14.21126 -14.18690
 Alpha  occ. eigenvalues --  -10.20929 -10.12719 -10.12395 -10.10849 -10.09689
 Alpha  occ. eigenvalues --  -10.09011 -10.08948 -10.07330  -1.01622  -0.92780
 Alpha  occ. eigenvalues --   -0.91910  -0.82398  -0.78320  -0.68331  -0.65788
 Alpha  occ. eigenvalues --   -0.62982  -0.57954  -0.54450  -0.51577  -0.47638
 Alpha  occ. eigenvalues --   -0.45481  -0.42924  -0.40233  -0.38973  -0.38188
 Alpha  occ. eigenvalues --   -0.37306  -0.35917  -0.34513  -0.33426  -0.32859
 Alpha  occ. eigenvalues --   -0.31434  -0.31376  -0.29272  -0.28682  -0.27857
 Alpha  occ. eigenvalues --   -0.27354  -0.25754  -0.23220  -0.19603  -0.17625
 Alpha  occ. eigenvalues --   -0.16567  -0.13878  -0.12027   0.04328
 Alpha virt. eigenvalues --    0.06735   0.06905   0.07638   0.08789   0.09306
 Alpha virt. eigenvalues --    0.09870   0.10391   0.10974   0.11807   0.12251
 Alpha virt. eigenvalues --    0.12711   0.13347   0.14321   0.14827   0.15759

  Beta  occ. eigenvalues --  -19.07579 -19.02074 -14.26502 -14.21088 -14.18681
  Beta  occ. eigenvalues --  -10.20906 -10.12712 -10.12389 -10.10793 -10.09659
  Beta  occ. eigenvalues --  -10.09003 -10.08939 -10.07323  -1.01566  -0.92728
  Beta  occ. eigenvalues --   -0.91890  -0.82338  -0.78292  -0.68295  -0.65738
  Beta  occ. eigenvalues --   -0.62936  -0.57892  -0.54353  -0.51507  -0.47619
  Beta  occ. eigenvalues --   -0.45421  -0.42853  -0.40169  -0.38925  -0.38141
  Beta  occ. eigenvalues --   -0.37246  -0.35851  -0.34469  -0.33357  -0.32825
  Beta  occ. eigenvalues --   -0.31401  -0.31313  -0.29250  -0.28658  -0.27799
  Beta  occ. eigenvalues --   -0.27309  -0.25699  -0.23126  -0.19559  -0.17601
  Beta  occ. eigenvalues --   -0.16533  -0.13829  -0.11993
  Beta virt. eigenvalues --    0.06750   0.07322   0.08015   0.08454   0.09316
  Beta virt. eigenvalues --    0.09844   0.10367   0.10744   0.11122   0.12276
  Beta virt. eigenvalues --    0.12648   0.12957   0.13756   0.14561   0.14946

 Mulliken charges and spin densities:
               1          2
     1  C    0.413653  -0.729170
     2  C    0.695707  -0.315693
     3  C   -0.596897   0.464989
     4  N   -0.079331   0.216014
     5  C    1.725736  -1.953872
     6  C    0.249498  -0.673215
     7  N    0.023425   0.042106
     8  C   -0.787347  -0.543906
     9  C   -0.195379   0.110233
    10  N   -0.085263   0.063855
    11  C    0.244454  -0.091838
    12  O   -0.287901   0.024751
    13  O   -0.163266   0.009897
    14  H    0.098953   0.049702
    15  H    0.016112   0.116255
    16  H    0.101472   0.044471
    17  H   -0.624225   0.787968
    18  H   -0.617592   0.834193
    19  H   -0.526511   0.687699
    20  H   -0.878539   1.085642
    21  H    0.338648  -0.136070
    22  H   -0.059989   0.340318
    23  H   -0.000896   0.265059
    24  H   -0.004524   0.300614
 Sum of Mulliken charges =  -1.00000   1.00000

 Dipole moment (field-independent basis, Debye):
    X=              1.8863    Y=             -5.2334    Z=              1.7962  Tot=              5.8458
 Quadrupole moment (field-independent basis, Debye-Ang):
   XX=           -118.2335   YY=           -139.5659   ZZ=           -104.1632
   XY=             -1.6121   XZ=             -4.4597   YZ=              1.2116

 Summary of Natural Population Analysis:

                                       Natural Population
                Natural  -----------------------------------------------
    Atom  No    Charge         Core      Valence    Rydberg      Total
 -----------------------------------------------------------------------
      C    1   -0.29435      0.99963     2.28978    0.00494     3.29435
      C    2    0.05270      0.99956     1.93503    0.01271     2.94730
      C    3   -0.03358      0.99948     2.02271    0.01140     3.03358
      N    4   -0.20295      0.99961     2.69250    0.01084     3.70295
      C    5   -0.08612      0.99960     2.07540    0.01112     3.08612
      C    6   -0.09629      0.99962     2.08477    0.01190     3.09629
      N    7   -0.33045      0.99975     2.81791    0.01279     3.83045
      C    8   -0.07077      0.99950     2.05596    0.01531     3.07077
      C    9    0.19191      0.99957     1.78991    0.01860     2.80809
      N   10   -0.26359      0.99967     2.75500    0.00892     3.76359
      C   11    0.42076      0.99971     1.55403    0.02550     2.57924
      O   12   -0.30198      0.99986     3.29587    0.00625     4.30198
      O   13   -0.34578      0.99987     3.33916    0.00674     4.34578
      H   14    0.10210      0.00000     0.39647    0.00142     0.39790
      H   15    0.10001      0.00000     0.39923    0.00076     0.39999
      H   16    0.10204      0.00000     0.39653    0.00143     0.39796
      H   17    0.10410      0.00000     0.39482    0.00109     0.39590
      H   18    0.10204      0.00000     0.38975    0.00821     0.39796
      H   19    0.10324      0.00000     0.39396    0.00280     0.39676
      H   20    0.10532      0.00000     0.39230    0.00238     0.39468
      H   21    0.10031      0.00000     0.39738    0.00231     0.39969
      H   22    0.18311      0.00000     0.31276    0.00414     0.31689
      H   23    0.11849      0.00000     0.37986    0.00165     0.38151
      H   24    0.23974      0.00000     0.25574    0.00452     0.26026
 =======================================================================
   * Total *   -0.00000     12.99545    34.81681    0.18774    48.00000

 Normal termination of Gaussian 16 at Thu Dec 10 00:15:56 2020.
