 Gaussian 16, Revision A.03,

 -----------------------------------------------------------
 # opt freq B3LYP/6-31G(d) empiricaldispersion=gd3bj scf=xqc
 -----------------------------------------------------------

 -------------------------------
 CID_154145454_JID_4823_neutraal
 -------------------------------
 Symbolic Z-matrix:
 Charge =  0 Multiplicity = 1

 SCF Done:  E(RB3LYP) =  -704.021684141     A.U. after   15 cycles
 SCF Done:  E(RB3LYP) =  -704.024628025     A.U. after   13 cycles
 SCF Done:  E(RB3LYP) =  -704.023621564     A.U. after   13 cycles
 SCF Done:  E(RB3LYP) =  -704.025612179     A.U. after   12 cycles
 SCF Done:  E(RB3LYP) =  -704.025662311     A.U. after   12 cycles
 SCF Done:  E(RB3LYP) =  -704.025717133     A.U. after   12 cycles
 SCF Done:  E(RB3LYP) =  -704.025791974     A.U. after   11 cycles
 SCF Done:  E(RB3LYP) =  -704.025830585     A.U. after   11 cycles
 SCF Done:  E(RB3LYP) =  -704.025861857     A.U. after   12 cycles
 SCF Done:  E(RB3LYP) =  -704.025865894     A.U. after   12 cycles
 SCF Done:  E(RB3LYP) =  -704.026219843     A.U. after   11 cycles
 SCF Done:  E(RB3LYP) =  -704.026219046     A.U. after   11 cycles
 SCF Done:  E(RB3LYP) =  -704.026223053     A.U. after   11 cycles
 SCF Done:  E(RB3LYP) =  -704.026223098     A.U. after    7 cycles
 SCF Done:  E(RB3LYP) =  -704.026223131     A.U. after    8 cycles
 Optimization completed.
    -- Stationary point found.
 Normal termination of Gaussian 16 at Thu Dec 10 10:44:05 2020.

 --------------------------------------------------------------------
 #N Geom=AllCheck Guess=TCheck SCRF=Check GenChk RB3LYP/6-31G(d) Freq
 --------------------------------------------------------------------

 Structure from the checkpoint file:  "JID_4823.chk"
 -------------------------------
 CID_154145454_JID_4823_neutraal
 -------------------------------
 Charge =  0 Multiplicity = 1

 SCF Done:  E(RB3LYP) =  -704.026223131     A.U. after    1 cycles

  Exact polarizability: 131.399  -6.835  80.087   3.167   8.249 106.644
 Approx polarizability: 191.808 -14.416 111.171   3.957  19.364 192.869

                      1                      2                      3
                      A                      A                      A
 Frequencies --     26.9630                41.5891                48.5328
 Red. masses --      8.5804                 4.5142                 9.9147
 Frc consts  --      0.0037                 0.0046                 0.0138
 IR Inten    --      0.6254                 0.1495                 2.9091

                      4                      5                      6
                      A                      A                      A
 Frequencies --     78.2563                96.8213               130.8181
 Red. masses --      5.4827                 5.9751                 5.9937
 Frc consts  --      0.0198                 0.0330                 0.0604
 IR Inten    --      1.2488                 2.8287                 0.4609

                      7                      8                      9
                      A                      A                      A
 Frequencies --    158.3990               217.5871               237.4681
 Red. masses --      1.1546                 4.9765                 4.7775
 Frc consts  --      0.0171                 0.1388                 0.1587
 IR Inten    --     63.2706                 4.6596                 2.8620

                     10                     11                     12
                      A                      A                      A
 Frequencies --    290.4948               328.6389               358.2094
 Red. masses --      5.8010                 6.9648                 8.1250
 Frc consts  --      0.2884                 0.4432                 0.6143
 IR Inten    --      2.7158                 4.2455                 1.1486

                     13                     14                     15
                      A                      A                      A
 Frequencies --    403.3372               418.2313               498.9050
 Red. masses --      6.7730                 2.9872                 3.4585
 Frc consts  --      0.6492                 0.3079                 0.5072
 IR Inten    --     25.5510                 0.0071                 1.9320

                     16                     17                     18
                      A                      A                      A
 Frequencies --    573.5949               594.5523               635.9474
 Red. masses --      2.4517                 4.8112                 6.0796
 Frc consts  --      0.4753                 1.0020                 1.4487
 IR Inten    --     14.8517                65.1948                 5.7482

                     19                     20                     21
                      A                      A                      A
 Frequencies --    657.2043               701.4672               717.0462
 Red. masses --      2.0354                 4.6545                 1.7133
 Frc consts  --      0.5180                 1.3494                 0.5190
 IR Inten    --     85.2011                20.6133                47.0760

                     22                     23                     24
                      A                      A                      A
 Frequencies --    750.5998               769.4152               803.8712
 Red. masses --      4.0893                 2.6430                 4.3237
 Frc consts  --      1.3574                 0.9219                 1.6462
 IR Inten    --     31.5463                13.8352                 7.1327

                     25                     26                     27
                      A                      A                      A
 Frequencies --    860.2764               863.3424               918.7788
 Red. masses --      1.2480                 6.3624                 5.9300
 Frc consts  --      0.5442                 2.7941                 2.9494
 IR Inten    --      0.1679                 1.4319                 6.4768

                     28                     29                     30
                      A                      A                      A
 Frequencies --    926.3062               950.1164               971.8596
 Red. masses --      1.5637                 3.5552                 1.3612
 Frc consts  --      0.7905                 1.8909                 0.7575
 IR Inten    --      0.9716                11.4258                 0.3824

                     31                     32                     33
                      A                      A                      A
 Frequencies --    995.1870              1001.2008              1023.4784
 Red. masses --      2.3095                 1.7260                 6.2366
 Frc consts  --      1.3476                 1.0194                 3.8490
 IR Inten    --      8.9926                 5.2123                 1.2137

                     34                     35                     36
                      A                      A                      A
 Frequencies --   1063.4017              1118.3556              1169.0692
 Red. masses --      2.2229                 1.6039                 2.4832
 Frc consts  --      1.4810                 1.1819                 1.9996
 IR Inten    --      3.6698                 2.9892               230.9111

                     37                     38                     39
                      A                      A                      A
 Frequencies --   1195.8967              1214.0926              1221.4655
 Red. masses --      1.0993                 2.1824                 1.1421
 Frc consts  --      0.9263                 1.8954                 1.0039
 IR Inten    --      0.0721                 5.6683                 0.3940

                     40                     41                     42
                      A                      A                      A
 Frequencies --   1258.0714              1284.6902              1299.6665
 Red. masses --      2.3696                 1.7049                 1.4733
 Frc consts  --      2.2097                 1.6579                 1.4662
 IR Inten    --     29.2901                 5.0281               147.6216

                     43                     44                     45
                      A                      A                      A
 Frequencies --   1313.2512              1367.6551              1379.3259
 Red. masses --      2.0853                 4.2178                 1.2990
 Frc consts  --      2.1189                 4.6483                 1.4561
 IR Inten    --    208.2027                 1.3654                 1.2513

                     46                     47                     48
                      A                      A                      A
 Frequencies --   1405.8081              1411.1471              1506.7417
 Red. masses --      2.1411                 1.2433                 2.2186
 Frc consts  --      2.4931                 1.4587                 2.9677
 IR Inten    --     62.9215                16.1940                 5.9424

                     49                     50                     51
                      A                      A                      A
 Frequencies --   1548.2521              1649.4810              1664.8624
 Red. masses --      2.1894                 5.5959                 1.4631
 Frc consts  --      3.0921                 8.9704                 2.3893
 IR Inten    --     14.2316                 1.9830                71.0157

                     52                     53                     54
                      A                      A                      A
 Frequencies --   1666.7932              1820.7966              1841.1676
 Red. masses --      2.4924                 8.3734                 9.8489
 Frc consts  --      4.0797                16.3559                19.6709
 IR Inten    --      8.3055               243.0049               228.6359

                     55                     56                     57
                      A                      A                      A
 Frequencies --   3122.0136              3183.5461              3191.2290
 Red. masses --      1.0844                 1.0862                 1.0880
 Frc consts  --      6.2277                 6.4858                 6.5281
 IR Inten    --      1.3627                 3.5432                 2.1126

                     58                     59                     60
                      A                      A                      A
 Frequencies --   3201.3562              3212.0914              3222.0803
 Red. masses --      1.0919                 1.0959                 1.0948
 Frc consts  --      6.5934                 6.6618                 6.6968
 IR Inten    --     25.1402                24.7613                 4.3640

                     61                     62                     63
                      A                      A                      A
 Frequencies --   3376.5283              3495.2211              3682.6424
 Red. masses --      1.0495                 1.0924                 1.0640
 Frc consts  --      7.0495                 7.8629                 8.5015
 IR Inten    --     11.8517                 6.6290                62.0892

 - Thermochemistry -
 -------------------
 Temperature   298.150 Kelvin.  Pressure   1.00000 Atm.
 Atom     1 has atomic number  6 and mass  12.00000

 Molecular mass:   195.05316 amu.
 Principal axes and moments of inertia in atomic units:
                           1         2         3
     Eigenvalues --  1912.642673380.260524107.19791
           X            0.99998   0.00276   0.00532
           Y           -0.00286   0.99981   0.01946
           Z           -0.00526  -0.01948   0.99980
 This molecule is an asymmetric top.
 Rotational symmetry number  1.
 Warning -- assumption of classical behavior for rotation
           may cause significant error
 Rotational temperatures (Kelvin)      0.04528     0.02562     0.02109
 Rotational constants (GHZ):           0.94359     0.53391     0.43941
 Zero-point vibrational energy     461370.9 (Joules/Mol)
                                  110.27030 (Kcal/Mol)
 Warning -- explicit consideration of  17 degrees of freedom as
           vibrations may cause significant error
 Vibrational temperatures:     38.79    59.84    69.83   112.59   139.30
          (Kelvin)            188.22   227.90   313.06   341.66   417.96
                              472.84   515.38   580.31   601.74   717.81
                              825.28   855.43   914.99   945.57  1009.25
                             1031.67  1079.95  1107.02  1156.59  1237.75
                             1242.16  1321.92  1332.75  1367.01  1398.29
                             1431.85  1440.50  1472.56  1530.00  1609.06
                             1682.03  1720.63  1746.81  1757.42  1810.08
                             1848.38  1869.93  1889.48  1967.75  1984.54
                             2022.64  2030.33  2167.87  2227.59  2373.24
                             2395.37  2398.14  2619.72  2649.03  4491.88
                             4580.41  4591.47  4606.04  4621.48  4635.85
                             4858.07  5028.84  5298.50

 Zero-point correction=                           0.175727 (Hartree/Particle)
 Thermal correction to Energy=                    0.188710
 Thermal correction to Enthalpy=                  0.189654
 Thermal correction to Gibbs Free Energy=         0.133975
 Sum of electronic and zero-point Energies=           -703.850496
 Sum of electronic and thermal Energies=              -703.837513
 Sum of electronic and thermal Enthalpies=            -703.836569
 Sum of electronic and thermal Free Energies=         -703.892248

                     E (Thermal)             CV                S
                      KCal/Mol        Cal/Mol-Kelvin    Cal/Mol-Kelvin
 Total                  118.417             46.718            117.186
 Electronic               0.000              0.000              0.000
 Translational            0.889              2.981             41.709
 Rotational               0.889              2.981             31.652
 Vibrational            116.640             40.756             43.824
 Vibration     1          0.593              1.984              6.041
 Vibration     2          0.594              1.981              5.182
 Vibration     3          0.595              1.978              4.876
 Vibration     4          0.600              1.964              3.934
 Vibration     5          0.603              1.951              3.517
 Vibration     6          0.612              1.923              2.934
 Vibration     7          0.621              1.893              2.569
 Vibration     8          0.646              1.814              1.979
 Vibration     9          0.656              1.783              1.822
 Vibration    10          0.686              1.691              1.471
 Vibration    11          0.712              1.618              1.267
 Vibration    12          0.733              1.558              1.130
 Vibration    13          0.769              1.463              0.950
 Vibration    14          0.781              1.431              0.898
 Vibration    15          0.854              1.252              0.661
 Vibration    16          0.930              1.088              0.497
 Vibration    17          0.952              1.043              0.459

 Optimization completed.
    -- Stationary point found.
 Normal termination of Gaussian 16 at Thu Dec 10 10:49:59 2020.

 ----------------------------------------------------------------------
 # B3LYP/6-311++G(d,p) empiricaldispersion=gd3bj scf=xqc pop=npa geom=c
 heck
 ----------------------------------------------------------------------

 ---------------------------------------
 CID_154145454_JID_4823_Energie_neutraal
 ---------------------------------------
 Structure from the checkpoint file:  "JID_4823.chk"
 Charge =  0 Multiplicity = 1

 SCF Done:  E(RB3LYP) =  -704.242930592     A.U. after   15 cycles
 Normal termination of Gaussian 16 at Thu Dec 10 10:51:55 2020.

 ----------------------------------------------------------------------
 # B3LYP/6-311++G(d,p) empiricaldispersion=gd3bj scf=xqc pop=npa geom=c
 heck
 ----------------------------------------------------------------------

 -------------------------------------
 CID_154145454_JID_4823_Energie_kation
 -------------------------------------
 Structure from the checkpoint file:  "JID_4823.chk"
 Charge =  1 Multiplicity = 2

 SCF Done:  E(UB3LYP) =  -703.915676626     A.U. after   30 cycles
 Normal termination of Gaussian 16 at Thu Dec 10 10:58:12 2020.
 Gaussian 16:  ES64L-G16RevA.03 25-Dec-2016

 ----------------------------------------------------------------------
 # B3LYP/6-311++G(d,p) empiricaldispersion=gd3bj scf=xqc pop=npa geom=c
 heck
 ----------------------------------------------------------------------

 ------------------------------------
 CID_154145454_JID_4823_Energie_anion
 ------------------------------------
 Structure from the checkpoint file:  "JID_4823.chk"
 Charge = -1 Multiplicity = 2

                         Standard orientation:
 ---------------------------------------------------------------------
 Center     Atomic      Atomic             Coordinates (Angstroms)
 Number     Number       Type             X           Y           Z
 ---------------------------------------------------------------------
      1          6           0        3.484333   -0.693945   -0.302755
      2          6           0        2.541890   -0.553257   -1.323392
      3          6           0        1.240952   -0.151963   -1.028192
      4          6           0        0.871206    0.113494    0.295223
      5          6           0        1.818245   -0.023364    1.313221
      6          6           0        3.119782   -0.428700    1.016871
      7          6           0       -0.543472    0.554782    0.646233
      8          6           0       -0.985410    1.686819   -0.276183
      9          8           0       -1.650376    1.556434   -1.278897
     10          8           0       -0.505439    2.872824    0.151354
     11          6           0       -1.604634   -0.541048    0.595848
     12          8           0       -2.527007   -0.618159    1.379925
     13          8           0       -1.406624   -1.391614   -0.423740
     14          7           0       -2.407339   -2.436371   -0.536164
     15          1           0        4.497732   -1.007759   -0.535921
     16          1           0        2.819572   -0.758114   -2.353308
     17          1           0        0.507389   -0.049762   -1.820817
     18          1           0        1.536010    0.186719    2.341581
     19          1           0        3.846741   -0.533741    1.817049
     20          1           0       -0.558846    0.934457    1.670048
     21          1           0       -0.787681    3.536688   -0.506237
     22          1           0       -3.030274   -2.249819    0.259133
     23          1           0       -2.921056   -2.136860   -1.368760
 ---------------------------------------------------------------------

 SCF Done:  E(UB3LYP) =  -704.233002915     A.U. after   33 cycles
 SCF Done:  E(UB3LYP) =  -704.233002915     a.u. after    1 cycles

 The electronic state is 2-A.
 Alpha  occ. eigenvalues --  -19.09862 -19.06653 -19.01959 -19.01600 -14.27542
 Alpha  occ. eigenvalues --  -10.20909 -10.20424 -10.10920 -10.08767 -10.07383
 Alpha  occ. eigenvalues --  -10.07211 -10.07108 -10.06951 -10.06741  -1.03766
 Alpha  occ. eigenvalues --   -1.00963  -0.93938  -0.92241  -0.77110  -0.75370
 Alpha  occ. eigenvalues --   -0.69783  -0.64554  -0.62442  -0.53855  -0.51107
 Alpha  occ. eigenvalues --   -0.50441  -0.48809  -0.43783  -0.42293  -0.41521
 Alpha  occ. eigenvalues --   -0.39353  -0.38636  -0.37018  -0.36768  -0.34733
 Alpha  occ. eigenvalues --   -0.33801  -0.33167  -0.31889  -0.30398  -0.29587
 Alpha  occ. eigenvalues --   -0.29203  -0.26576  -0.25315  -0.24928  -0.24434
 Alpha  occ. eigenvalues --   -0.22593  -0.20055  -0.18664  -0.18332  -0.15436
 Alpha  occ. eigenvalues --   -0.14658   0.04622
 Alpha virt. eigenvalues --    0.06723   0.07050   0.07627   0.07731   0.08044
 Alpha virt. eigenvalues --    0.09207   0.09317   0.10131   0.10833   0.11490
 Alpha virt. eigenvalues --    0.12587   0.13375   0.14017   0.14765   0.15187

  Beta  occ. eigenvalues --  -19.09827 -19.06581 -19.01872 -19.01565 -14.27537
  Beta  occ. eigenvalues --  -10.20852 -10.20306 -10.10918 -10.08733 -10.07383
  Beta  occ. eigenvalues --  -10.07199 -10.07082 -10.06881 -10.06683  -1.03665
  Beta  occ. eigenvalues --   -1.00835  -0.93795  -0.92136  -0.77025  -0.75299
  Beta  occ. eigenvalues --   -0.69679  -0.64450  -0.62324  -0.53648  -0.50972
  Beta  occ. eigenvalues --   -0.50370  -0.48712  -0.43706  -0.42212  -0.41352
  Beta  occ. eigenvalues --   -0.39283  -0.38490  -0.36928  -0.36649  -0.34614
  Beta  occ. eigenvalues --   -0.33670  -0.33007  -0.31823  -0.30325  -0.29501
  Beta  occ. eigenvalues --   -0.29113  -0.26394  -0.25020  -0.24857  -0.24380
  Beta  occ. eigenvalues --   -0.22465  -0.19955  -0.18600  -0.18187  -0.15225
  Beta  occ. eigenvalues --   -0.14408
  Beta virt. eigenvalues --    0.06864   0.07215   0.07861   0.08151   0.08453
  Beta virt. eigenvalues --    0.08832   0.09867   0.09897   0.10373   0.11062
  Beta virt. eigenvalues --    0.11828   0.12795   0.13487   0.14112   0.14841

 Mulliken charges and spin densities:
               1          2
     1  C    0.840714  -1.194426
     2  C    0.158638  -0.468053
     3  C   -1.510635   1.113347
     4  C   -0.395491   1.436823
     5  C   -1.140436   0.794106
     6  C    0.638222  -0.809013
     7  C    2.912707  -2.719253
     8  C    0.070376  -0.097504
     9  O   -0.283800   0.035370
    10  O   -0.155721   0.027467
    11  C   -0.434914  -0.197408
    12  O   -0.324952   0.047555
    13  O    0.107405   0.022928
    14  N   -0.400937  -0.008957
    15  H   -0.327370   0.468024
    16  H   -0.204074   0.366075
    17  H    0.104506   0.073104
    18  H   -0.170531   0.310567
    19  H   -0.519428   0.683673
    20  H    0.225700   0.091085
    21  H   -0.654931   0.969740
    22  H    0.229913   0.024747
    23  H    0.235039   0.030004
 Sum of Mulliken charges =  -1.00000   1.00000

 Dipole moment (field-independent basis, Debye):
    X=             -2.9947    Y=             -4.4083    Z=             -0.3459  Tot=              5.3405
 Quadrupole moment (field-independent basis, Debye-Ang):
   XX=           -129.6114   YY=           -133.1041   ZZ=           -105.1480
   XY=              9.6678   XZ=             -0.1617   YZ=              4.9117

 Summary of Natural Population Analysis:

                                       Natural Population
                Natural  -----------------------------------------------
    Atom  No    Charge         Core      Valence    Rydberg      Total
 -----------------------------------------------------------------------
      C    1   -0.10057      0.99956     2.09064    0.01036     3.10057
      C    2   -0.09705      0.99956     2.08803    0.00946     3.09705
      C    3   -0.08623      0.99950     2.07722    0.00951     3.08623
      C    4   -0.01172      0.99949     2.00035    0.01189     3.01172
      C    5   -0.09750      0.99951     2.08797    0.01002     3.09750
      C    6   -0.08947      0.99956     2.07987    0.01004     3.08947
      C    7   -0.19998      0.99947     2.18579    0.01473     3.19998
      C    8    0.42315      0.99970     1.55086    0.02628     2.57685
      O    9   -0.30539      0.99987     3.29923    0.00629     4.30539
      O   10   -0.33879      0.99987     3.33213    0.00679     4.33879
      C   11    0.43014      0.99969     1.54471    0.02547     2.56986
      O   12   -0.30958      0.99987     3.30360    0.00611     4.30958
      O   13   -0.20024      0.99985     3.19083    0.00957     4.20024
      N   14   -0.24466      0.99976     2.73456    0.01033     3.74466
      H   15    0.09972      0.00000     0.39909    0.00119     0.40028
      H   16    0.09896      0.00000     0.40015    0.00090     0.40104
      H   17    0.10790      0.00000     0.39030    0.00180     0.39210
      H   18    0.10047      0.00000     0.39845    0.00108     0.39953
      H   19    0.10020      0.00000     0.39842    0.00138     0.39980
      H   20    0.12600      0.00000     0.37214    0.00186     0.37400
      H   21    0.24853      0.00000     0.21553    0.03594     0.25147
      H   22    0.17810      0.00000     0.31955    0.00235     0.32190
      H   23    0.16802      0.00000     0.33018    0.00180     0.33198
 =======================================================================
   * Total *    0.00000     13.99525    36.78958    0.21517    51.00000

 Normal termination of Gaussian 16 at Thu Dec 10 11:05:13 2020.
