 Gaussian 16, Revision A.03,

 -----------------------------------------------------------
 # opt freq B3LYP/6-31G(d) empiricaldispersion=gd3bj scf=xqc
 -----------------------------------------------------------

 -------------------------------
 CID_133666973_JID_4041_neutraal
 -------------------------------
 Symbolic Z-matrix:
 Charge =  0 Multiplicity = 1

 SCF Done:  E(RB3LYP) =  -938.936723395     A.U. after   15 cycles
 SCF Done:  E(RB3LYP) =  -938.943426864     A.U. after   13 cycles
 SCF Done:  E(RB3LYP) =  -938.944443131     A.U. after   12 cycles
 SCF Done:  E(RB3LYP) =  -938.944533519     A.U. after   11 cycles
 SCF Done:  E(RB3LYP) =  -938.944923215     A.U. after   11 cycles
 SCF Done:  E(RB3LYP) =  -938.945100320     A.U. after   10 cycles
 SCF Done:  E(RB3LYP) =  -938.945230180     A.U. after   11 cycles
 SCF Done:  E(RB3LYP) =  -938.945271829     A.U. after   10 cycles
 SCF Done:  E(RB3LYP) =  -938.945303054     A.U. after   10 cycles
 SCF Done:  E(RB3LYP) =  -938.945309638     A.U. after    9 cycles
 SCF Done:  E(RB3LYP) =  -938.945311001     A.U. after    9 cycles
 SCF Done:  E(RB3LYP) =  -938.945312020     A.U. after    8 cycles
 SCF Done:  E(RB3LYP) =  -938.945312168     A.U. after    7 cycles
 SCF Done:  E(RB3LYP) =  -938.945312218     A.U. after    7 cycles
 Optimization completed.
    -- Stationary point found.
 Normal termination of Gaussian 16 at Thu Dec 10 09:17:35 2020.

 --------------------------------------------------------------------
 #N Geom=AllCheck Guess=TCheck SCRF=Check GenChk RB3LYP/6-31G(d) Freq
 --------------------------------------------------------------------

 Structure from the checkpoint file:  "JID_4041.chk"
 -------------------------------
 CID_133666973_JID_4041_neutraal
 -------------------------------
 Charge =  0 Multiplicity = 1

 SCF Done:  E(RB3LYP) =  -938.945312218     A.U. after    1 cycles

  Exact polarizability: 181.570  -3.773 131.374   2.314  -7.680 115.172
 Approx polarizability: 222.891  -9.695 207.578   3.882 -25.907 184.013

                      1                      2                      3
                      A                      A                      A
 Frequencies --     30.9507                44.8359                79.6783
 Red. masses --      3.4414                 3.3668                 3.5440
 Frc consts  --      0.0019                 0.0040                 0.0133
 IR Inten    --      0.2939                 0.4389                 0.6465

                      4                      5                      6
                      A                      A                      A
 Frequencies --     98.6519               123.0026               129.1039
 Red. masses --      4.4822                 2.5845                 3.0121
 Frc consts  --      0.0257                 0.0230                 0.0296
 IR Inten    --      0.1334                 0.2771                 1.5775

                      7                      8                      9
                      A                      A                      A
 Frequencies --    146.0726               175.4592               193.1092
 Red. masses --      2.2196                 1.7975                 1.4782
 Frc consts  --      0.0279                 0.0326                 0.0325
 IR Inten    --      0.5643                 0.1901                 0.2035

                     10                     11                     12
                      A                      A                      A
 Frequencies --    218.3039               225.1797               237.7706
 Red. masses --      1.6194                 1.9160                 1.2874
 Frc consts  --      0.0455                 0.0572                 0.0429
 IR Inten    --      0.7889                 2.3788                 0.2084

                     13                     14                     15
                      A                      A                      A
 Frequencies --    276.2415               295.7593               322.1458
 Red. masses --      2.4696                 2.8535                 2.4558
 Frc consts  --      0.1110                 0.1471                 0.1502
 IR Inten    --      1.4666                 2.4809                 1.6301

                     16                     17                     18
                      A                      A                      A
 Frequencies --    331.7951               376.0114               429.6469
 Red. masses --      2.5662                 4.9899                 3.0858
 Frc consts  --      0.1665                 0.4157                 0.3356
 IR Inten    --      0.3372                 9.7946                24.4892

                     19                     20                     21
                      A                      A                      A
 Frequencies --    458.6879               471.0014               500.7903
 Red. masses --      2.8610                 1.4856                 3.2457
 Frc consts  --      0.3547                 0.1942                 0.4796
 IR Inten    --      6.7713                56.6546                12.2072

                     22                     23                     24
                      A                      A                      A
 Frequencies --    539.8246               599.0034               622.8511
 Red. masses --      2.2561                 4.5565                 9.3751
 Frc consts  --      0.3874                 0.9633                 2.1429
 IR Inten    --     44.3952                 0.7362                 6.5914

                     25                     26                     27
                      A                      A                      A
 Frequencies --    681.9468               694.1181               772.1371
 Red. masses --      3.6375                 3.6150                 1.9225
 Frc consts  --      0.9967                 1.0262                 0.6753
 IR Inten    --      5.4738                13.4266                 6.3826

                     28                     29                     30
                      A                      A                      A
 Frequencies --    777.3269               812.2608               822.5489
 Red. masses --      1.9559                 1.6615                 1.8719
 Frc consts  --      0.6963                 0.6459                 0.7462
 IR Inten    --      0.4641                 1.2465                 3.9817

                     31                     32                     33
                      A                      A                      A
 Frequencies --    837.2068               845.0438               906.5561
 Red. masses --      1.9171                 1.6781                 1.9561
 Frc consts  --      0.7917                 0.7060                 0.9472
 IR Inten    --      5.3131                 5.6422                 1.1389

                     34                     35                     36
                      A                      A                      A
 Frequencies --    934.3931               940.9436               962.1610
 Red. masses --      1.5040                 2.2028                 1.8838
 Frc consts  --      0.7737                 1.1491                 1.0275
 IR Inten    --      9.4520                11.1885                 3.7017

                     37                     38                     39
                      A                      A                      A
 Frequencies --    992.2258              1015.4228              1050.6863
 Red. masses --      2.0836                 2.1788                 2.0037
 Frc consts  --      1.2086                 1.3236                 1.3032
 IR Inten    --     11.1679                56.8116                 1.6514

                     40                     41                     42
                      A                      A                      A
 Frequencies --   1064.7559              1073.7768              1083.8245
 Red. masses --      1.4541                 1.9755                 2.2167
 Frc consts  --      0.9713                 1.3420                 1.5342
 IR Inten    --      2.3420                 4.6282                14.5778

                     43                     44                     45
                      A                      A                      A
 Frequencies --   1099.1655              1119.9281              1129.3217
 Red. masses --      1.7500                 1.3939                 1.8487
 Frc consts  --      1.2457                 1.0300                 1.3892
 IR Inten    --     30.1724                 4.6399                31.8621

                     46                     47                     48
                      A                      A                      A
 Frequencies --   1153.0002              1162.2706              1166.3253
 Red. masses --      1.6755                 1.8401                 1.9790
 Frc consts  --      1.3124                 1.4646                 1.5861
 IR Inten    --      0.7344                 8.5018                13.2805

                     49                     50                     51
                      A                      A                      A
 Frequencies --   1188.0861              1208.1653              1242.2091
 Red. masses --      1.9282                 1.7403                 2.2736
 Frc consts  --      1.6036                 1.4967                 2.0671
 IR Inten    --      3.9543                 1.9023                42.8524

                     52                     53                     54
                      A                      A                      A
 Frequencies --   1267.8877              1281.6793              1291.6101
 Red. masses --      1.1895                 1.6082                 1.2618
 Frc consts  --      1.1266                 1.5565                 1.2403
 IR Inten    --     15.0054                27.6715                 1.7560

                     55                     56                     57
                      A                      A                      A
 Frequencies --   1313.3206              1344.2704              1358.7912
 Red. masses --      1.2527                 1.2437                 1.4210
 Frc consts  --      1.2730                 1.3242                 1.5458
 IR Inten    --     11.4508                20.6289                11.7153

                     58                     59                     60
                      A                      A                      A
 Frequencies --   1375.7612              1396.4384              1403.0804
 Red. masses --      1.3141                 1.3837                 1.4416
 Frc consts  --      1.4655                 1.5898                 1.6721
 IR Inten    --      0.6812                55.2227                 0.3917

                     61                     62                     63
                      A                      A                      A
 Frequencies --   1407.7792              1431.7233              1440.9891
 Red. masses --      1.3149                 1.4797                 1.2393
 Frc consts  --      1.5353                 1.7871                 1.5162
 IR Inten    --      6.2239                22.9330                 2.3124

                     64                     65                     66
                      A                      A                      A
 Frequencies --   1447.1512              1448.4671              1506.9334
 Red. masses --      1.2679                 1.4478                 1.0767
 Frc consts  --      1.5644                 1.7897                 1.4405
 IR Inten    --      7.5670                 4.1352                 5.1694

                     67                     68                     69
                      A                      A                      A
 Frequencies --   1513.6313              1521.2579              1525.3598
 Red. masses --      1.3901                 1.3338                 1.1257
 Frc consts  --      1.8765                 1.8186                 1.5432
 IR Inten    --     40.5137               126.5976                29.3341

                     70                     71                     72
                      A                      A                      A
 Frequencies --   1528.9774              1529.5755              1530.4968
 Red. masses --      1.0773                 1.0593                 1.0474
 Frc consts  --      1.4839                 1.4602                 1.4456
 IR Inten    --      5.8774                 2.2065                 4.7211

                     73                     74                     75
                      A                      A                      A
 Frequencies --   1535.5831              1537.1191              1541.7198
 Red. masses --      1.1394                 1.0666                 1.0635
 Frc consts  --      1.5829                 1.4848                 1.4893
 IR Inten    --      3.2488                 6.7902                 5.2239

                     76                     77                     78
                      A                      A                      A
 Frequencies --   1714.2699              3032.9019              3042.7674
 Red. masses --      9.2877                 1.0815                 1.0386
 Frc consts  --     16.0812                 5.8616                 5.6653
 IR Inten    --    283.5730                 7.0991                39.4315

                     79                     80                     81
                      A                      A                      A
 Frequencies --   3049.9464              3050.6129              3055.9945
 Red. masses --      1.0630                 1.0447                 1.0671
 Frc consts  --      5.8261                 5.7280                 5.8717
 IR Inten    --     13.6904                12.8836                22.2857

                     82                     83                     84
                      A                      A                      A
 Frequencies --   3057.9883              3060.6584              3082.6034
 Red. masses --      1.0572                 1.0569                 1.1026
 Frc consts  --      5.8248                 5.8333                 6.1734
 IR Inten    --     77.6795                23.9875                29.3918

                     85                     86                     87
                      A                      A                      A
 Frequencies --   3099.1432              3099.8888              3120.2993
 Red. masses --      1.0971                 1.1002                 1.1008
 Frc consts  --      6.2082                 6.2288                 6.3144
 IR Inten    --      5.6870                28.9176                60.5368

                     88                     89                     90
                      A                      A                      A
 Frequencies --   3122.2477              3125.7761              3125.9064
 Red. masses --      1.0987                 1.0925                 1.1016
 Frc consts  --      6.3107                 6.2892                 6.3421
 IR Inten    --     22.1936                30.6611                37.2728

                     91                     92                     93
                      A                      A                      A
 Frequencies --   3128.7416              3141.4663              3154.0671
 Red. masses --      1.0943                 1.1021                 1.0866
 Frc consts  --      6.3113                 6.4081                 6.3686
 IR Inten    --     11.0367                29.1836                46.0816

                     94                     95                     96
                      A                      A                      A
 Frequencies --   3158.3196              3240.8341              3591.3428
 Red. masses --      1.0593                 1.1180                 1.0760
 Frc consts  --      6.2259                 6.9186                 8.1769
 IR Inten    --      7.6641                13.2950                22.4983

 - Thermochemistry -
 -------------------
 Temperature   298.150 Kelvin.  Pressure   1.00000 Atm.
 Atom     1 has atomic number  6 and mass  12.00000

 Molecular mass:   212.13472 amu.
 Principal axes and moments of inertia in atomic units:
                           1         2         3
     Eigenvalues --  1369.559025668.609186116.63665
           X            0.99996  -0.00660   0.00591
           Y            0.00634   0.99910   0.04189
           Z           -0.00618  -0.04185   0.99910
 This molecule is an asymmetric top.
 Rotational symmetry number  1.
 Warning -- assumption of classical behavior for rotation
           may cause significant error
 Rotational temperatures (Kelvin)      0.06324     0.01528     0.01416
 Rotational constants (GHZ):           1.31775     0.31837     0.29505
 Zero-point vibrational energy     791910.3 (Joules/Mol)
                                  189.27110 (Kcal/Mol)
 Warning -- explicit consideration of  23 degrees of freedom as
           vibrations may cause significant error
 Vibrational temperatures:     44.53    64.51   114.64   141.94   176.97
          (Kelvin)            185.75   210.17   252.45   277.84   314.09
                              323.98   342.10   397.45   425.53   463.50
                              477.38   541.00   618.17   659.95   677.67
                              720.53   776.69   861.83   896.14   981.17
                              998.68  1110.93  1118.40  1168.66  1183.46
                             1204.55  1215.83  1304.33  1344.38  1353.81
                             1384.34  1427.59  1460.97  1511.70  1531.95
                             1544.93  1559.38  1581.45  1611.33  1624.84
                             1658.91  1672.25  1678.08  1709.39  1738.28
                             1787.26  1824.21  1844.05  1858.34  1889.58
                             1934.11  1955.00  1979.41  2009.16  2018.72
                             2025.48  2059.93  2073.26  2082.13  2084.02
                             2168.14  2177.78  2188.75  2194.65  2199.86
                             2200.72  2202.04  2209.36  2211.57  2218.19
                             2466.45  4363.67  4377.86  4388.19  4389.15
                             4396.89  4399.76  4403.60  4435.18  4458.98
                             4460.05  4489.41  4492.22  4497.29  4497.48
                             4501.56  4519.87  4538.00  4544.12  4662.84
                             5167.14

 Zero-point correction=                           0.301623 (Hartree/Particle)
 Thermal correction to Energy=                    0.317345
 Thermal correction to Enthalpy=                  0.318289
 Thermal correction to Gibbs Free Energy=         0.258387
 Sum of electronic and zero-point Energies=           -938.643690
 Sum of electronic and thermal Energies=              -938.627967
 Sum of electronic and thermal Enthalpies=            -938.627023
 Sum of electronic and thermal Free Energies=         -938.686925

                     E (Thermal)             CV                S
                      KCal/Mol        Cal/Mol-Kelvin    Cal/Mol-Kelvin
 Total                  199.137             59.140            126.075
 Electronic               0.000              0.000              0.000
 Translational            0.889              2.981             41.960
 Rotational               0.889              2.981             32.229
 Vibrational            197.360             53.179             51.886
 Vibration     1          0.594              1.984              5.768
 Vibration     2          0.595              1.979              5.033
 Vibration     3          0.600              1.963              3.899
 Vibration     4          0.604              1.950              3.481
 Vibration     5          0.610              1.930              3.053
 Vibration     6          0.612              1.924              2.959
 Vibration     7          0.617              1.907              2.723
 Vibration     8          0.627              1.873              2.376
 Vibration     9          0.635              1.849              2.198
 Vibration    10          0.646              1.813              1.973
 Vibration    11          0.650              1.803              1.917
 Vibration    12          0.656              1.783              1.819
 Vibration    13          0.678              1.717              1.557
 Vibration    14          0.690              1.682              1.441
 Vibration    15          0.707              1.631              1.299
 Vibration    16          0.714              1.612              1.251
 Vibration    17          0.747              1.521              1.055
 Vibration    18          0.791              1.406              0.860
 Vibration    19          0.817              1.342              0.770
 Vibration    20          0.828              1.314              0.735
 Vibration    21          0.856              1.248              0.656
 Vibration    22          0.895              1.162              0.566
 Vibration    23          0.957              1.034              0.451

 Optimization completed.
    -- Stationary point found.
 Normal termination of Gaussian 16 at Thu Dec 10 09:27:09 2020.

 ----------------------------------------------------------------------
 # B3LYP/6-311++G(d,p) empiricaldispersion=gd3bj scf=xqc pop=npa geom=c
 heck
 ----------------------------------------------------------------------

 ---------------------------------------
 CID_133666973_JID_4041_Energie_neutraal
 ---------------------------------------
 Structure from the checkpoint file:  "JID_4041.chk"
 Charge =  0 Multiplicity = 1

 SCF Done:  E(RB3LYP) =  -939.121668249     A.U. after   15 cycles
 Normal termination of Gaussian 16 at Thu Dec 10 09:31:31 2020.

 ----------------------------------------------------------------------
 # B3LYP/6-311++G(d,p) empiricaldispersion=gd3bj scf=xqc pop=npa geom=c
 heck
 ----------------------------------------------------------------------

 -------------------------------------
 CID_133666973_JID_4041_Energie_kation
 -------------------------------------
 Structure from the checkpoint file:  "JID_4041.chk"
 Charge =  1 Multiplicity = 2

 SCF Done:  E(UB3LYP) =  -938.833840609     A.U. after   27 cycles
 Normal termination of Gaussian 16 at Thu Dec 10 09:42:26 2020.
 Gaussian 16:  ES64L-G16RevA.03 25-Dec-2016

 ----------------------------------------------------------------------
 # B3LYP/6-311++G(d,p) empiricaldispersion=gd3bj scf=xqc pop=npa geom=c
 heck
 ----------------------------------------------------------------------

 ------------------------------------
 CID_133666973_JID_4041_Energie_anion
 ------------------------------------
 Structure from the checkpoint file:  "JID_4041.chk"
 Charge = -1 Multiplicity = 2

                         Standard orientation:
 ---------------------------------------------------------------------
 Center     Atomic      Atomic             Coordinates (Angstroms)
 Number     Number       Type             X           Y           Z
 ---------------------------------------------------------------------
      1          6           0       -1.029927    1.787262    1.537689
      2          6           0       -1.689281    1.880447    0.159055
      3          6           0       -1.462340    0.686607   -0.793182
      4          6           0       -2.097398   -0.679907   -0.373301
      5         16           0       -0.747935   -1.548467    0.546325
      6          6           0        0.423931   -0.505092   -0.353919
      7          7           0       -0.031837    0.490174   -1.011051
      8          7           0        1.749904   -0.828239   -0.229042
      9          6           0        2.741841   -0.085056   -0.951939
     10          6           0        3.133562    1.264629   -0.413733
     11          6           0        4.095770    0.107896   -0.303722
     12          6           0        4.417738   -0.501205    1.043556
     13          6           0       -3.415032   -0.637668    0.401159
     14          6           0       -4.574033   -0.122076   -0.460329
     15          1           0       -1.425845    0.961009    2.134545
     16          1           0       -1.190736    2.716564    2.096023
     17          1           0        0.049329    1.635702    1.440901
     18          1           0       -2.767526    2.049513    0.269443
     19          1           0       -1.292455    2.761788   -0.359439
     20          1           0       -1.916488    0.964131   -1.753137
     21          1           0       -2.253293   -1.263563   -1.288257
     22          1           0        1.948311   -1.805673   -0.058298
     23          1           0        2.707568   -0.190935   -2.036244
     24          1           0        3.327458    2.058835   -1.127766
     25          1           0        2.629879    1.583185    0.494109
     26          1           0        4.928675    0.116152   -1.004703
     27          1           0        4.761033   -1.538951    0.943912
     28          1           0        5.212480    0.064803    1.543035
     29          1           0        3.539599   -0.497009    1.696105
     30          1           0       -3.657633   -1.649215    0.748894
     31          1           0       -3.302403   -0.021282    1.298903
     32          1           0       -4.716290   -0.754580   -1.344598
     33          1           0       -5.510765   -0.124746    0.107099
     34          1           0       -4.399394    0.901173   -0.809070
 ---------------------------------------------------------------------

 SCF Done:  E(UB3LYP) =  -939.106610379     A.U. after   33 cycles
 SCF Done:  E(UB3LYP) =  -939.106610379     a.u. after    1 cycles

 The electronic state is 2-A.
 Alpha  occ. eigenvalues --  -88.75299 -14.24526 -14.18998 -10.16619 -10.11541
 Alpha  occ. eigenvalues --  -10.11323 -10.11058 -10.08894 -10.08287 -10.07644
 Alpha  occ. eigenvalues --  -10.07287 -10.07147 -10.06894 -10.06279  -7.83986
 Alpha  occ. eigenvalues --   -5.80324  -5.80023  -5.79393  -0.88206  -0.81914
 Alpha  occ. eigenvalues --   -0.75624  -0.71618  -0.67774  -0.65183  -0.62345
 Alpha  occ. eigenvalues --   -0.61056  -0.55496  -0.52899  -0.50650  -0.48888
 Alpha  occ. eigenvalues --   -0.48066  -0.44447  -0.41983  -0.40538  -0.39565
 Alpha  occ. eigenvalues --   -0.37129  -0.35289  -0.34532  -0.33644  -0.32491
 Alpha  occ. eigenvalues --   -0.32340  -0.31494  -0.30759  -0.29778  -0.28545
 Alpha  occ. eigenvalues --   -0.28236  -0.26785  -0.26344  -0.26224  -0.25432
 Alpha  occ. eigenvalues --   -0.24773  -0.24104  -0.21926  -0.20775  -0.19553
 Alpha  occ. eigenvalues --   -0.16433  -0.15061  -0.13069   0.04199
 Alpha virt. eigenvalues --    0.05314   0.07098   0.07134   0.07476   0.07946
 Alpha virt. eigenvalues --    0.08153   0.09130   0.09648   0.10075   0.10333
 Alpha virt. eigenvalues --    0.10578   0.11204   0.11548   0.11649   0.11964

  Beta  occ. eigenvalues --  -88.75295 -14.24518 -14.18995 -10.16613 -10.11532
  Beta  occ. eigenvalues --  -10.11314 -10.11054 -10.08878 -10.08270 -10.07636
  Beta  occ. eigenvalues --  -10.07273 -10.07116 -10.06850 -10.06270  -7.83981
  Beta  occ. eigenvalues --   -5.80316  -5.80019  -5.79389  -0.88190  -0.81896
  Beta  occ. eigenvalues --   -0.75595  -0.71593  -0.67753  -0.65149  -0.62298
  Beta  occ. eigenvalues --   -0.61028  -0.55441  -0.52858  -0.50611  -0.48841
  Beta  occ. eigenvalues --   -0.48025  -0.44414  -0.41934  -0.40519  -0.39529
  Beta  occ. eigenvalues --   -0.37095  -0.35265  -0.34495  -0.33621  -0.32456
  Beta  occ. eigenvalues --   -0.32317  -0.31459  -0.30727  -0.29745  -0.28514
  Beta  occ. eigenvalues --   -0.28193  -0.26744  -0.26315  -0.26185  -0.25402
  Beta  occ. eigenvalues --   -0.24747  -0.24076  -0.21899  -0.20752  -0.19530
  Beta  occ. eigenvalues --   -0.16425  -0.15046  -0.13057
  Beta virt. eigenvalues --    0.06218   0.06391   0.07446   0.07618   0.07844
  Beta virt. eigenvalues --    0.08346   0.08725   0.09476   0.09893   0.10251
  Beta virt. eigenvalues --    0.10706   0.10891   0.11465   0.11794   0.11868

 Mulliken charges and spin densities:
               1          2
     1  C   -0.293670  -0.146192
     2  C   -0.217604  -0.219040
     3  C    0.687194  -0.673013
     4  C    0.146130  -0.371081
     5  S   -0.249623  -0.068544
     6  C   -0.065963  -0.049083
     7  N   -0.038179   0.064489
     8  N    0.026547   0.017636
     9  C    0.085837  -0.351383
    10  C    0.290760  -0.657519
    11  C   -0.630334   0.908989
    12  C    1.162164  -1.872970
    13  C   -1.692388   1.428253
    14  C    1.614028  -2.252760
    15  H    0.057694   0.083535
    16  H   -0.082125   0.223687
    17  H    0.301970  -0.154803
    18  H   -0.091512   0.208558
    19  H    0.103241   0.062339
    20  H    0.041788   0.202796
    21  H   -0.003549   0.294972
    22  H    0.165260   0.107887
    23  H   -0.104305   0.331873
    24  H    0.091258   0.057952
    25  H   -0.057973   0.194937
    26  H   -0.745175   0.963736
    27  H   -0.237214   0.375054
    28  H   -0.117951   0.257622
    29  H   -0.084844   0.245141
    30  H   -0.146530   0.304794
    31  H    0.021171   0.121331
    32  H   -0.201261   0.338535
    33  H   -0.638999   0.795228
    34  H   -0.095842   0.227046
 Sum of Mulliken charges =  -1.00000   1.00000

 Dipole moment (field-independent basis, Debye):
    X=              0.0488    Y=              0.5738    Z=              1.2796  Tot=              1.4032
 Quadrupole moment (field-independent basis, Debye-Ang):
   XX=           -219.5127   YY=           -129.3483   ZZ=           -129.5523
   XY=              2.4370   XZ=              1.3913   YZ=              0.5805

 Summary of Natural Population Analysis:

                                       Natural Population
                Natural  -----------------------------------------------
    Atom  No    Charge         Core      Valence    Rydberg      Total
 -----------------------------------------------------------------------
      C    1   -0.28996      0.99966     2.28569    0.00461     3.28996
      C    2   -0.19606      0.99961     2.18723    0.00922     3.19606
      C    3   -0.01646      0.99955     2.00201    0.01489     3.01646
      C    4   -0.15635      0.99954     2.14268    0.01412     3.15635
      S    5    0.08257      4.99954     2.90228    0.01561     7.91743
      C    6    0.16757      0.99956     1.81143    0.02145     2.83243
      N    7   -0.28204      0.99963     2.77067    0.01175     3.78204
      N    8   -0.32351      0.99964     2.81161    0.01227     3.82351
      C    9   -0.01513      0.99955     2.00197    0.01361     3.01513
      C   10   -0.19110      0.99959     2.18170    0.00980     3.19110
      C   11   -0.11209      0.99960     2.10167    0.01083     3.11209
      C   12   -0.28938      0.99965     2.28288    0.00686     3.28938
      C   13   -0.19879      0.99960     2.18881    0.01038     3.19879
      C   14   -0.28469      0.99966     2.27929    0.00574     3.28469
      H   15    0.09864      0.00000     0.40005    0.00130     0.40136
      H   16    0.09609      0.00000     0.40310    0.00081     0.40391
      H   17    0.10078      0.00000     0.39791    0.00131     0.39922
      H   18    0.09805      0.00000     0.40072    0.00123     0.40195
      H   19    0.10101      0.00000     0.39784    0.00114     0.39899
      H   20    0.10049      0.00000     0.39792    0.00159     0.39951
      H   21    0.10139      0.00000     0.39712    0.00149     0.39861
      H   22    0.19320      0.00000     0.30446    0.00234     0.30680
      H   23    0.09916      0.00000     0.39943    0.00142     0.40084
      H   24    0.10426      0.00000     0.39481    0.00093     0.39574
      H   25    0.10436      0.00000     0.39444    0.00120     0.39564
      H   26    0.10519      0.00000     0.39232    0.00249     0.39481
      H   27    0.09999      0.00000     0.39860    0.00140     0.40001
      H   28    0.10155      0.00000     0.39742    0.00103     0.39845
      H   29    0.10217      0.00000     0.39651    0.00131     0.39783
      H   30    0.10047      0.00000     0.39837    0.00117     0.39953
      H   31    0.10029      0.00000     0.39848    0.00123     0.39971
      H   32    0.09823      0.00000     0.40036    0.00141     0.40177
      H   33    0.10306      0.00000     0.39539    0.00155     0.39694
      H   34    0.09705      0.00000     0.40156    0.00140     0.40295
 =======================================================================
   * Total *    0.00000     17.99438    39.81673    0.18888    58.00000

 Normal termination of Gaussian 16 at Thu Dec 10 09:56:15 2020.
