 Gaussian 16, Revision A.03,

 -----------------------------------------------------------
 # opt freq B3LYP/6-31G(d) empiricaldispersion=gd3bj scf=xqc
 -----------------------------------------------------------

 ------------------------------
 CID_60889704_JID_6357_neutraal
 ------------------------------
 Symbolic Z-matrix:
 Charge =  0 Multiplicity = 1

 SCF Done:  E(RB3LYP) =  -693.398325374     A.U. after   14 cycles
 SCF Done:  E(RB3LYP) =  -693.403084622     A.U. after   12 cycles
 SCF Done:  E(RB3LYP) =  -693.404578036     A.U. after   11 cycles
 SCF Done:  E(RB3LYP) =  -693.405218590     A.U. after   13 cycles
 SCF Done:  E(RB3LYP) =  -693.405866787     A.U. after   12 cycles
 SCF Done:  E(RB3LYP) =  -693.405921879     A.U. after   10 cycles
 SCF Done:  E(RB3LYP) =  -693.405944846     A.U. after    9 cycles
 SCF Done:  E(RB3LYP) =  -693.405950381     A.U. after    9 cycles
 SCF Done:  E(RB3LYP) =  -693.405953169     A.U. after    8 cycles
 SCF Done:  E(RB3LYP) =  -693.405954051     A.U. after    8 cycles
 SCF Done:  E(RB3LYP) =  -693.405957255     A.U. after    8 cycles
 SCF Done:  E(RB3LYP) =  -693.405958473     A.U. after    9 cycles
 SCF Done:  E(RB3LYP) =  -693.405959269     A.U. after    8 cycles
 SCF Done:  E(RB3LYP) =  -693.405960132     A.U. after    8 cycles
 SCF Done:  E(RB3LYP) =  -693.405960279     A.U. after    7 cycles
 Optimization completed.
    -- Stationary point found.
 Normal termination of Gaussian 16 at Thu Dec 10 22:34:53 2020.

 --------------------------------------------------------------------
 #N Geom=AllCheck Guess=TCheck SCRF=Check GenChk RB3LYP/6-31G(d) Freq
 --------------------------------------------------------------------

 Structure from the checkpoint file:  "JID_6357.chk"
 ------------------------------
 CID_60889704_JID_6357_neutraal
 ------------------------------
 Charge =  0 Multiplicity = 1

 SCF Done:  E(RB3LYP) =  -693.405960278     A.U. after    1 cycles

  Exact polarizability: 177.665  -0.398 176.897 -13.922   4.400 109.062
 Approx polarizability: 240.055   0.670 258.681 -24.871  14.348 162.477

                      1                      2                      3
                      A                      A                      A
 Frequencies --     23.3500                33.9629                37.9201
 Red. masses --      3.4803                 3.1692                 1.1397
 Frc consts  --      0.0011                 0.0022                 0.0010
 IR Inten    --      0.4986                 0.2423                 0.1478

                      4                      5                      6
                      A                      A                      A
 Frequencies --     50.1613                80.2795                98.2512
 Red. masses --      3.0986                 3.0185                 3.4230
 Frc consts  --      0.0046                 0.0115                 0.0195
 IR Inten    --      0.4418                 4.1097                 1.2395

                      7                      8                      9
                      A                      A                      A
 Frequencies --    122.2324               139.3524               165.8545
 Red. masses --      3.0146                 3.3645                 2.8591
 Frc consts  --      0.0265                 0.0385                 0.0463
 IR Inten    --      1.0803                 0.2588                 3.0191

                     10                     11                     12
                      A                      A                      A
 Frequencies --    174.5534               206.1174               230.0331
 Red. masses --      3.4434                 2.3393                 2.3038
 Frc consts  --      0.0618                 0.0586                 0.0718
 IR Inten    --      0.3648                 4.9822                 3.8014

                     13                     14                     15
                      A                      A                      A
 Frequencies --    252.0984               258.2880               276.3469
 Red. masses --      1.2420                 1.2184                 1.9887
 Frc consts  --      0.0465                 0.0479                 0.0895
 IR Inten    --      0.0666                 0.2436                 0.3743

                     16                     17                     18
                      A                      A                      A
 Frequencies --    302.7826               322.7153               352.8655
 Red. masses --      2.7074                 3.2430                 1.8271
 Frc consts  --      0.1462                 0.1990                 0.1340
 IR Inten    --      2.4787                 4.5211                22.8899

                     19                     20                     21
                      A                      A                      A
 Frequencies --    358.9879               377.3070               402.6452
 Red. masses --      1.8766                 2.8016                 2.5023
 Frc consts  --      0.1425                 0.2350                 0.2390
 IR Inten    --     27.6175                 5.8395                15.8476

                     22                     23                     24
                      A                      A                      A
 Frequencies --    437.4468               480.6006               498.5161
 Red. masses --      3.1998                 3.7040                 3.0580
 Frc consts  --      0.3608                 0.5041                 0.4478
 IR Inten    --      1.1426                 5.8953                 3.1315

                     25                     26                     27
                      A                      A                      A
 Frequencies --    555.3555               583.4816               609.7264
 Red. masses --      3.1285                 3.6009                 3.1324
 Frc consts  --      0.5685                 0.7223                 0.6861
 IR Inten    --      4.2980                 1.6636                 1.9406

                     28                     29                     30
                      A                      A                      A
 Frequencies --    633.4922               723.1701               747.0854
 Red. masses --      3.8456                 4.7575                 3.5008
 Frc consts  --      0.9093                 1.4659                 1.1512
 IR Inten    --      1.1855                 6.9290                 3.1755

                     31                     32                     33
                      A                      A                      A
 Frequencies --    772.1918               783.3772               816.5112
 Red. masses --      1.3457                 3.7445                 1.4785
 Frc consts  --      0.4728                 1.3539                 0.5807
 IR Inten    --     22.4029                 4.1625                28.5652

                     34                     35                     36
                      A                      A                      A
 Frequencies --    828.2448               864.8183               901.1063
 Red. masses --      1.6289                 2.2942                 1.7062
 Frc consts  --      0.6584                 1.0110                 0.8163
 IR Inten    --     35.4503                 5.9000                28.8938

                     37                     38                     39
                      A                      A                      A
 Frequencies --    912.6540               920.4979               929.3309
 Red. masses --      1.3912                 1.5400                 1.3257
 Frc consts  --      0.6827                 0.7688                 0.6746
 IR Inten    --      7.7159                77.4238                 1.6188

                     40                     41                     42
                      A                      A                      A
 Frequencies --    955.4578               997.3311              1007.8770
 Red. masses --      1.9548                 1.6842                 1.7163
 Frc consts  --      1.0514                 0.9870                 1.0272
 IR Inten    --      9.4170                 4.6301                16.3742

                     43                     44                     45
                      A                      A                      A
 Frequencies --   1026.8477              1053.9549              1076.4965
 Red. masses --      1.5499                 2.1496                 1.4934
 Frc consts  --      0.9628                 1.4068                 1.0196
 IR Inten    --      2.8237                10.8609                 3.8367

                     46                     47                     48
                      A                      A                      A
 Frequencies --   1077.1788              1087.3923              1094.0180
 Red. masses --      3.2172                 2.3280                 2.1360
 Frc consts  --      2.1994                 1.6219                 1.5063
 IR Inten    --     11.6980                10.9918                17.1596

                     49                     50                     51
                      A                      A                      A
 Frequencies --   1128.1566              1144.9330              1162.8217
 Red. masses --      2.1365                 2.6341                 2.0699
 Frc consts  --      1.6021                 2.0344                 1.6490
 IR Inten    --     56.7530                40.6643                30.2363

                     52                     53                     54
                      A                      A                      A
 Frequencies --   1187.2202              1190.9405              1194.8346
 Red. masses --      1.2744                 1.4155                 1.5904
 Frc consts  --      1.0583                 1.1829                 1.3377
 IR Inten    --      1.1802                 4.9094                 7.7591

                     55                     56                     57
                      A                      A                      A
 Frequencies --   1203.7260              1221.5971              1252.4383
 Red. masses --      1.7036                 1.4044                 1.5648
 Frc consts  --      1.4544                 1.2348                 1.4461
 IR Inten    --     26.4930                18.0849                 4.9203

                     58                     59                     60
                      A                      A                      A
 Frequencies --   1276.7502              1292.8014              1308.9691
 Red. masses --      1.9652                 3.7304                 1.2184
 Frc consts  --      1.8874                 3.6734                 1.2300
 IR Inten    --     79.0980               148.1997                 7.2471

                     61                     62                     63
                      A                      A                      A
 Frequencies --   1326.9828              1341.4953              1354.2184
 Red. masses --      1.4705                 1.4570                 1.7859
 Frc consts  --      1.5257                 1.5449                 1.9297
 IR Inten    --     19.3141                 8.5711                18.8812

                     64                     65                     66
                      A                      A                      A
 Frequencies --   1369.5652              1380.9562              1401.6506
 Red. masses --      1.2639                 2.2286                 1.3862
 Frc consts  --      1.3968                 2.5041                 1.6045
 IR Inten    --      9.8631                16.7732                 8.2449

                     67                     68                     69
                      A                      A                      A
 Frequencies --   1423.2091              1426.3326              1443.5981
 Red. masses --      1.3781                 1.2899                 1.2510
 Frc consts  --      1.6446                 1.5461                 1.5360
 IR Inten    --     10.1092                 8.7191                 0.1216

                     70                     71                     72
                      A                      A                      A
 Frequencies --   1452.2928              1464.8287              1499.1745
 Red. masses --      1.4060                 3.0147                 1.2278
 Frc consts  --      1.7472                 3.8112                 1.6259
 IR Inten    --     10.9796                 2.8321                14.6399

                     73                     74                     75
                      A                      A                      A
 Frequencies --   1502.5469              1512.9071              1515.3388
 Red. masses --      1.1731                 1.1231                 1.0450
 Frc consts  --      1.5605                 1.5145                 1.4138
 IR Inten    --     25.9124                 6.9776                 4.9853

                     76                     77                     78
                      A                      A                      A
 Frequencies --   1517.7021              1520.1646              1528.7036
 Red. masses --      1.0927                 1.0481                 1.1092
 Frc consts  --      1.4830                 1.4271                 1.5272
 IR Inten    --     14.1254                 4.5981                 5.8249

                     79                     80                     81
                      A                      A                      A
 Frequencies --   1534.5055              1535.5880              1539.4692
 Red. masses --      1.0877                 1.1239                 1.0692
 Frc consts  --      1.5090                 1.5615                 1.4929
 IR Inten    --     11.1198                54.9012                 0.3233

                     82                     83                     84
                      A                      A                      A
 Frequencies --   1554.1823              1554.8508              1646.0743
 Red. masses --      1.2214                 1.7693                 6.2390
 Frc consts  --      1.7382                 2.5201                 9.9600
 IR Inten    --     40.3219                36.7359                 7.8342

                     85                     86                     87
                      A                      A                      A
 Frequencies --   1673.9504              1697.7403              2957.8603
 Red. masses --      5.9785                 1.0870                 1.0735
 Frc consts  --      9.8702                 1.8460                 5.5334
 IR Inten    --     12.9857                24.0121                74.1025

                     88                     89                     90
                      A                      A                      A
 Frequencies --   2972.3129              3024.9391              3031.5246
 Red. masses --      1.0727                 1.0346                 1.0664
 Frc consts  --      5.5835                 5.5775                 5.7740
 IR Inten    --     69.2359                66.9127                40.9587

                     91                     92                     93
                      A                      A                      A
 Frequencies --   3039.0289              3045.5775              3059.7508
 Red. masses --      1.0377                 1.0405                 1.0817
 Frc consts  --      5.6465                 5.6864                 5.9665
 IR Inten    --     42.3037                28.5759                 8.2585

                     94                     95                     96
                      A                      A                      A
 Frequencies --   3067.6907              3079.4792              3083.2407
 Red. masses --      1.0896                 1.0891                 1.1065
 Frc consts  --      6.0413                 6.0850                 6.1976
 IR Inten    --     46.3209                30.9906                40.1587

                     97                     98                     99
                      A                      A                      A
 Frequencies --   3088.9980              3092.4217              3110.6394
 Red. masses --      1.1006                 1.0958                 1.1017
 Frc consts  --      6.1876                 6.1743                 6.2806
 IR Inten    --     24.1236                61.7391                43.0859

                    100                    101                    102
                      A                      A                      A
 Frequencies --   3120.6937              3149.1588              3156.0634
 Red. masses --      1.1006                 1.0989                 1.0999
 Frc consts  --      6.3152                 6.4212                 6.4548
 IR Inten    --     20.1921                18.4179                25.5844

                    103                    104                    105
                      A                      A                      A
 Frequencies --   3180.9385              3201.9967              3225.4138
 Red. masses --      1.0892                 1.0886                 1.0911
 Frc consts  --      6.4934                 6.5763                 6.6878
 IR Inten    --     20.7379                 8.5201                15.0725

                    106                    107                    108
                      A                      A                      A
 Frequencies --   3458.0682              3468.4595              3542.6473
 Red. masses --      1.0502                 1.0732                 1.0917
 Frc consts  --      7.3992                 7.6070                 8.0723
 IR Inten    --      8.8055                 0.6084                 1.4510

 - Thermochemistry -
 -------------------
 Temperature   298.150 Kelvin.  Pressure   1.00000 Atm.
 Atom     1 has atomic number  6 and mass  12.00000

 Molecular mass:   222.17321 amu.
 Principal axes and moments of inertia in atomic units:
                           1         2         3
     Eigenvalues --  2739.313475658.489777383.04123
           X            0.99997  -0.00511  -0.00510
           Y            0.00510   0.99999  -0.00191
           Z            0.00511   0.00188   0.99999
 This molecule is an asymmetric top.
 Rotational symmetry number  1.
 Warning -- assumption of classical behavior for rotation
           may cause significant error
 Rotational temperatures (Kelvin)      0.03162     0.01531     0.01173
 Rotational constants (GHZ):           0.65883     0.31894     0.24444
 Zero-point vibrational energy     891698.7 (Joules/Mol)
                                  213.12111 (Kcal/Mol)
 Warning -- explicit consideration of  27 degrees of freedom as
           vibrations may cause significant error
 Vibrational temperatures:     33.60    48.87    54.56    72.17   115.50
          (Kelvin)            141.36   175.87   200.50   238.63   251.14
                              296.56   330.97   362.71   371.62   397.60
                              435.64   464.32   507.69   516.50   542.86
                              579.32   629.39   691.48   717.25   799.03
                              839.50   877.26   911.45  1040.48  1074.89
                             1111.01  1127.11  1174.78  1191.66  1244.28
                             1296.49  1313.11  1324.39  1337.10  1374.69
                             1434.94  1450.11  1477.40  1516.41  1548.84
                             1549.82  1564.51  1574.05  1623.17  1647.30
                             1673.04  1708.15  1713.50  1719.10  1731.89
                             1757.61  1801.98  1836.96  1860.05  1883.31
                             1909.23  1930.11  1948.42  1970.50  1986.89
                             2016.66  2047.68  2052.17  2077.02  2089.53
                             2107.56  2156.98  2161.83  2176.74  2180.23
                             2183.63  2187.18  2199.46  2207.81  2209.37
                             2214.95  2236.12  2237.08  2368.33  2408.44
                             2442.67  4255.70  4276.50  4352.21  4361.69
                             4372.48  4381.91  4402.30  4413.72  4430.68
                             4436.10  4444.38  4449.31  4475.52  4489.98
                             4530.94  4540.87  4576.66  4606.96  4640.65
                             4975.39  4990.34  5097.08

 Zero-point correction=                           0.339630 (Hartree/Particle)
 Thermal correction to Energy=                    0.357430
 Thermal correction to Enthalpy=                  0.358374
 Thermal correction to Gibbs Free Energy=         0.292362
 Sum of electronic and zero-point Energies=           -693.066330
 Sum of electronic and thermal Energies=              -693.048530
 Sum of electronic and thermal Enthalpies=            -693.047586
 Sum of electronic and thermal Free Energies=         -693.113598

                     E (Thermal)             CV                S
                      KCal/Mol        Cal/Mol-Kelvin    Cal/Mol-Kelvin
 Total                  224.291             65.902            138.935
 Electronic               0.000              0.000              0.000
 Translational            0.889              2.981             42.098
 Rotational               0.889              2.981             33.103
 Vibrational            222.513             59.940             63.734
 Vibration     1          0.593              1.985              6.327
 Vibration     2          0.594              1.983              5.583
 Vibration     3          0.594              1.982              5.365
 Vibration     4          0.595              1.978              4.811
 Vibration     5          0.600              1.963              3.884
 Vibration     6          0.604              1.950              3.489
 Vibration     7          0.610              1.931              3.065
 Vibration     8          0.615              1.914              2.813
 Vibration     9          0.624              1.884              2.482
 Vibration    10          0.627              1.874              2.386
 Vibration    11          0.641              1.831              2.078
 Vibration    12          0.652              1.795              1.879
 Vibration    13          0.664              1.759              1.716
 Vibration    14          0.667              1.749              1.673
 Vibration    15          0.678              1.717              1.556
 Vibration    16          0.694              1.668              1.401
 Vibration    17          0.708              1.630              1.296
 Vibration    18          0.729              1.569              1.153
 Vibration    19          0.734              1.557              1.126
 Vibration    20          0.748              1.518              1.050
 Vibration    21          0.768              1.464              0.953
 Vibration    22          0.798              1.389              0.835
 Vibration    23          0.837              1.293              0.708
 Vibration    24          0.854              1.253              0.662
 Vibration    25          0.911              1.128              0.533
 Vibration    26          0.940              1.067              0.479
 Vibration    27          0.969              1.011              0.433

 Optimization completed.
    -- Stationary point found.
 Normal termination of Gaussian 16 at Thu Dec 10 22:49:11 2020.

 ----------------------------------------------------------------------
 # B3LYP/6-311++G(d,p) empiricaldispersion=gd3bj scf=xqc pop=npa geom=c
 heck
 ----------------------------------------------------------------------

 --------------------------------------
 CID_60889704_JID_6357_Energie_neutraal
 --------------------------------------
 Structure from the checkpoint file:  "JID_6357.chk"
 Charge =  0 Multiplicity = 1

 SCF Done:  E(RB3LYP) =  -693.606170836     A.U. after   14 cycles
 Normal termination of Gaussian 16 at Thu Dec 10 22:56:43 2020.

 ----------------------------------------------------------------------
 # B3LYP/6-311++G(d,p) empiricaldispersion=gd3bj scf=xqc pop=npa geom=c
 heck
 ----------------------------------------------------------------------

 ------------------------------------
 CID_60889704_JID_6357_Energie_kation
 ------------------------------------
 Structure from the checkpoint file:  "JID_6357.chk"
 Charge =  1 Multiplicity = 2

 SCF Done:  E(UB3LYP) =  -693.330305854     A.U. after   25 cycles
 Normal termination of Gaussian 16 at Thu Dec 10 23:14:39 2020.
 Gaussian 16:  ES64L-G16RevA.03 25-Dec-2016

 ----------------------------------------------------------------------
 # B3LYP/6-311++G(d,p) empiricaldispersion=gd3bj scf=xqc pop=npa geom=c
 heck
 ----------------------------------------------------------------------

 -----------------------------------
 CID_60889704_JID_6357_Energie_anion
 -----------------------------------
 Structure from the checkpoint file:  "JID_6357.chk"
 Charge = -1 Multiplicity = 2

                         Standard orientation:
 ---------------------------------------------------------------------
 Center     Atomic      Atomic             Coordinates (Angstroms)
 Number     Number       Type             X           Y           Z
 ---------------------------------------------------------------------
      1          6           0        1.408004    3.646499    0.564176
      2          6           0        1.646187    2.182105    0.285398
      3          6           0        0.609944    1.248756    0.444125
      4          6           0        0.784401   -0.110298    0.208035
      5          6           0        2.050322   -0.553141   -0.229097
      6          6           0        3.095169    0.354052   -0.400177
      7          6           0        2.886784    1.711605   -0.137119
      8          8           0        2.157192   -1.898719   -0.477708
      9          6           0        3.391365   -2.389551   -0.968396
     10          6           0       -0.339438   -1.116834    0.414453
     11          6           0       -0.056942   -2.012376    1.636997
     12          7           0       -1.642713   -0.448358    0.499716
     13          6           0       -2.780574   -1.277812    0.103055
     14          6           0       -4.097776   -0.506453    0.229477
     15          6           0       -4.039143    0.896600   -0.391076
     16          7           0       -3.456997    0.843481   -1.736173
     17          1           0        0.565726    4.034947   -0.021548
     18          1           0        1.170884    3.822460    1.621273
     19          1           0        2.289830    4.246884    0.318765
     20          1           0       -0.377469    1.593175    0.735548
     21          1           0        4.068952    0.022371   -0.740662
     22          1           0        3.710347    2.408151   -0.274116
     23          1           0        3.657112   -1.923495   -1.926343
     24          1           0        4.205697   -2.222663   -0.250903
     25          1           0        3.252017   -3.462318   -1.113537
     26          1           0       -0.372835   -1.758509   -0.474122
     27          1           0        0.004614   -1.398000    2.543952
     28          1           0       -0.858628   -2.747574    1.770265
     29          1           0        0.887726   -2.549163    1.522730
     30          1           0       -1.786473   -0.117662    1.453597
     31          1           0       -2.633117   -1.547840   -0.948429
     32          1           0       -2.855450   -2.224380    0.668224
     33          1           0       -4.880559   -1.095560   -0.262791
     34          1           0       -4.382262   -0.414174    1.287639
     35          1           0       -5.059577    1.290719   -0.470369
     36          1           0       -3.491339    1.567430    0.292304
     37          1           0       -3.573148    1.747698   -2.190531
     38          1           0       -2.451439    0.712489   -1.623187
 ---------------------------------------------------------------------

 SCF Done:  E(UB3LYP) =  -693.592943490     A.U. after   33 cycles
 SCF Done:  E(UB3LYP) =  -693.592943490     a.u. after    1 cycles

 The electronic state is 2-A.
 Alpha  occ. eigenvalues --  -19.05912 -14.20480 -14.19482 -10.13562 -10.12661
 Alpha  occ. eigenvalues --  -10.11103 -10.09955 -10.09527 -10.08115 -10.08089
 Alpha  occ. eigenvalues --  -10.07613 -10.07557 -10.07431 -10.07415 -10.07116
 Alpha  occ. eigenvalues --  -10.06454  -0.97451  -0.82278  -0.78529  -0.76105
 Alpha  occ. eigenvalues --   -0.69567  -0.67331  -0.65149  -0.62570  -0.62275
 Alpha  occ. eigenvalues --   -0.57255  -0.56631  -0.53843  -0.49788  -0.48594
 Alpha  occ. eigenvalues --   -0.47251  -0.43740  -0.40923  -0.40376  -0.38533
 Alpha  occ. eigenvalues --   -0.37947  -0.37504  -0.36167  -0.34974  -0.34443
 Alpha  occ. eigenvalues --   -0.34113  -0.33207  -0.32706  -0.31590  -0.31155
 Alpha  occ. eigenvalues --   -0.30532  -0.29250  -0.28949  -0.28174  -0.26496
 Alpha  occ. eigenvalues --   -0.26376  -0.26016  -0.25106  -0.24918  -0.24406
 Alpha  occ. eigenvalues --   -0.22480  -0.22058  -0.15460  -0.14988  -0.13864
 Alpha  occ. eigenvalues --   -0.12308   0.04038
 Alpha virt. eigenvalues --    0.05513   0.06353   0.06976   0.07588   0.07781
 Alpha virt. eigenvalues --    0.08371   0.08698   0.08920   0.09279   0.09640
 Alpha virt. eigenvalues --    0.10400   0.10463   0.10506   0.11150   0.11683

  Beta  occ. eigenvalues --  -19.05904 -14.20467 -14.19467 -10.13562 -10.12612
  Beta  occ. eigenvalues --  -10.11100 -10.09948 -10.09509 -10.08115 -10.08090
  Beta  occ. eigenvalues --  -10.07601 -10.07545 -10.07419 -10.07394 -10.07106
  Beta  occ. eigenvalues --  -10.06437  -0.97432  -0.82261  -0.78504  -0.76093
  Beta  occ. eigenvalues --   -0.69549  -0.67308  -0.65122  -0.62537  -0.62229
  Beta  occ. eigenvalues --   -0.57207  -0.56590  -0.53814  -0.49751  -0.48556
  Beta  occ. eigenvalues --   -0.47220  -0.43705  -0.40895  -0.40348  -0.38507
  Beta  occ. eigenvalues --   -0.37916  -0.37472  -0.36139  -0.34941  -0.34415
  Beta  occ. eigenvalues --   -0.34089  -0.33175  -0.32684  -0.31560  -0.31132
  Beta  occ. eigenvalues --   -0.30511  -0.29224  -0.28926  -0.28148  -0.26472
  Beta  occ. eigenvalues --   -0.26349  -0.25987  -0.25084  -0.24891  -0.24382
  Beta  occ. eigenvalues --   -0.22458  -0.22037  -0.15447  -0.14964  -0.13848
  Beta  occ. eigenvalues --   -0.12296
  Beta virt. eigenvalues --    0.05928   0.06610   0.06779   0.07375   0.07820
  Beta virt. eigenvalues --    0.08144   0.08493   0.09004   0.09156   0.09550
  Beta virt. eigenvalues --    0.10058   0.10490   0.10774   0.10890   0.11337

 Mulliken charges and spin densities:
               1          2
     1  C    1.373324  -1.917482
     2  C    0.517377  -0.348800
     3  C   -1.225802   0.846937
     4  C    0.517583   0.547333
     5  C   -0.708222   0.127980
     6  C   -0.081736   0.111922
     7  C    0.588600  -1.410659
     8  O   -0.156072   0.048246
     9  C    1.040829  -1.311480
    10  C   -1.661422   1.452762
    11  C    0.220812  -0.842318
    12  N    0.169342  -0.035176
    13  C   -0.132071  -0.199674
    14  C   -0.156245  -0.193008
    15  C    0.372472  -0.691343
    16  N   -0.453084   0.079654
    17  H   -0.051135   0.203740
    18  H   -0.110489   0.271380
    19  H   -0.022591   0.171495
    20  H    0.354475  -0.273768
    21  H   -0.216274   0.398727
    22  H   -0.359217   0.479491
    23  H   -0.238417   0.386793
    24  H   -0.313458   0.472402
    25  H   -0.545049   0.715299
    26  H    0.262871  -0.043013
    27  H   -0.110628   0.242542
    28  H   -0.020419   0.142407
    29  H    0.165243   0.015963
    30  H    0.061058   0.177682
    31  H    0.081592   0.080018
    32  H   -0.005437   0.108476
    33  H    0.148388  -0.019132
    34  H   -0.178167   0.324679
    35  H   -0.172087   0.332319
    36  H   -0.237052   0.353637
    37  H    0.056638   0.178155
    38  H    0.224472   0.015812
 Sum of Mulliken charges =  -1.00000   1.00000

 Dipole moment (field-independent basis, Debye):
    X=             -2.5804    Y=              0.3133    Z=              0.8932  Tot=              2.7485
 Quadrupole moment (field-independent basis, Debye-Ang):
   XX=           -188.4358   YY=           -154.0153   ZZ=           -137.1142
   XY=             14.3817   XZ=              3.6007   YZ=             -3.7460

 Summary of Natural Population Analysis:

                                       Natural Population
                Natural  -----------------------------------------------
    Atom  No    Charge         Core      Valence    Rydberg      Total
 -----------------------------------------------------------------------
      C    1   -0.28968      0.99964     2.28473    0.00531     3.28968
      C    2   -0.03236      0.99953     2.02377    0.00906     3.03236
      C    3   -0.08339      0.99947     2.07733    0.00660     3.08339
      C    4   -0.03133      0.99947     2.01968    0.01218     3.03133
      C    5    0.16027      0.99933     1.82772    0.01268     2.83973
      C    6   -0.13947      0.99952     2.13023    0.00971     3.13947
      C    7   -0.09570      0.99952     2.08634    0.00984     3.09570
      O    8   -0.27830      0.99986     3.26855    0.00989     4.27830
      C    9   -0.09975      0.99960     2.09095    0.00921     3.09975
      C   10   -0.01667      0.99957     2.00367    0.01343     3.01667
      C   11   -0.28893      0.99964     2.28479    0.00449     3.28893
      N   12   -0.34729      0.99974     2.83661    0.01094     3.84729
      C   13   -0.08610      0.99962     2.07747    0.00900     3.08610
      C   14   -0.19515      0.99963     2.18585    0.00968     3.19515
      C   15   -0.08927      0.99964     2.07824    0.01138     3.08927
      N   16   -0.42987      0.99977     2.91954    0.01057     3.92987
      H   17    0.10282      0.00000     0.39565    0.00153     0.39718
      H   18    0.10191      0.00000     0.39661    0.00149     0.39809
      H   19    0.09963      0.00000     0.39931    0.00106     0.40037
      H   20    0.10402      0.00000     0.39399    0.00199     0.39598
      H   21    0.10664      0.00000     0.39190    0.00146     0.39336
      H   22    0.09807      0.00000     0.40090    0.00103     0.40193
      H   23    0.08547      0.00000     0.41275    0.00178     0.41453
      H   24    0.08554      0.00000     0.41248    0.00199     0.41446
      H   25    0.09475      0.00000     0.40394    0.00131     0.40525
      H   26    0.10098      0.00000     0.39654    0.00248     0.39902
      H   27    0.09558      0.00000     0.40317    0.00125     0.40442
      H   28    0.09643      0.00000     0.40250    0.00107     0.40357
      H   29    0.10883      0.00000     0.38989    0.00128     0.39117
      H   30    0.17058      0.00000     0.32620    0.00321     0.32942
      H   31    0.09441      0.00000     0.40393    0.00167     0.40559
      H   32    0.08128      0.00000     0.41717    0.00155     0.41872
      H   33    0.09793      0.00000     0.40110    0.00097     0.40207
      H   34    0.09478      0.00000     0.40397    0.00125     0.40522
      H   35    0.08832      0.00000     0.41053    0.00115     0.41168
      H   36    0.08112      0.00000     0.41685    0.00203     0.41888
      H   37    0.17352      0.00000     0.32501    0.00148     0.32648
      H   38    0.18043      0.00000     0.31722    0.00236     0.31957
 =======================================================================
   * Total *    0.00003     15.99356    44.81705    0.18936    60.99997

 Normal termination of Gaussian 16 at Thu Dec 10 23:37:55 2020.
