 Gaussian 16, Revision A.03,

 -----------------------------------------------------------
 # opt freq B3LYP/6-31G(d) empiricaldispersion=gd3bj scf=xqc
 -----------------------------------------------------------

 ------------------------------
 CID_43159675_JID_6920_neutraal
 ------------------------------
 Symbolic Z-matrix:
 Charge =  0 Multiplicity = 1

 SCF Done:  E(RB3LYP) =  -740.302067897     A.U. after   15 cycles
 SCF Done:  E(RB3LYP) =  -740.307571193     A.U. after   13 cycles
 SCF Done:  E(RB3LYP) =  -740.307024764     A.U. after   13 cycles
 SCF Done:  E(RB3LYP) =  -740.310309876     A.U. after   12 cycles
 SCF Done:  E(RB3LYP) =  -740.311376139     A.U. after   12 cycles
 SCF Done:  E(RB3LYP) =  -740.311686521     A.U. after   13 cycles
 SCF Done:  E(RB3LYP) =  -740.311836624     A.U. after   12 cycles
 SCF Done:  E(RB3LYP) =  -740.312059057     A.U. after   11 cycles
 SCF Done:  E(RB3LYP) =  -740.312119281     A.U. after   11 cycles
 SCF Done:  E(RB3LYP) =  -740.312141066     A.U. after    9 cycles
 SCF Done:  E(RB3LYP) =  -740.312146368     A.U. after    8 cycles
 SCF Done:  E(RB3LYP) =  -740.312148670     A.U. after    8 cycles
 SCF Done:  E(RB3LYP) =  -740.312148950     A.U. after    7 cycles
 SCF Done:  E(RB3LYP) =  -740.312149154     A.U. after    7 cycles
 Optimization completed.
    -- Stationary point found.
 Normal termination of Gaussian 16 at Fri Dec 11 01:09:36 2020.

 --------------------------------------------------------------------
 #N Geom=AllCheck Guess=TCheck SCRF=Check GenChk RB3LYP/6-31G(d) Freq
 --------------------------------------------------------------------

 Structure from the checkpoint file:  "JID_6920.chk"
 ------------------------------
 CID_43159675_JID_6920_neutraal
 ------------------------------
 Charge =  0 Multiplicity = 1

 SCF Done:  E(RB3LYP) =  -740.312149154     A.U. after    1 cycles

  Exact polarizability: 164.771  12.624 122.208   9.481 -10.423 118.225
 Approx polarizability: 213.185  25.735 194.196  19.473 -32.064 196.688

                      1                      2                      3
                      A                      A                      A
 Frequencies --     40.4820                57.8785                76.2540
 Red. masses --      5.1987                 3.8098                 3.9241
 Frc consts  --      0.0050                 0.0075                 0.0134
 IR Inten    --      0.1689                 1.3444                 1.3631

                      4                      5                      6
                      A                      A                      A
 Frequencies --     91.8859               112.0492               152.8530
 Red. masses --      3.6163                 3.8542                 3.8654
 Frc consts  --      0.0180                 0.0285                 0.0532
 IR Inten    --      3.5244                 2.8340                 1.0726

                      7                      8                      9
                      A                      A                      A
 Frequencies --    183.0915               235.3524               265.4299
 Red. masses --      5.2894                 1.4437                 2.6749
 Frc consts  --      0.1045                 0.0471                 0.1110
 IR Inten    --      2.9681                 0.4468                 5.4923

                     10                     11                     12
                      A                      A                      A
 Frequencies --    270.2135               278.9138               317.2368
 Red. masses --      1.9006                 2.6949                 3.2936
 Frc consts  --      0.0818                 0.1235                 0.1953
 IR Inten    --      7.4213                 3.5419                13.3034

                     13                     14                     15
                      A                      A                      A
 Frequencies --    346.2860               351.8296               368.6662
 Red. masses --      3.4895                 1.9170                 1.9074
 Frc consts  --      0.2465                 0.1398                 0.1527
 IR Inten    --      9.1275                43.6580                33.7211

                     16                     17                     18
                      A                      A                      A
 Frequencies --    397.8522               418.1791               424.6595
 Red. masses --      2.6495                 2.2386                 1.4777
 Frc consts  --      0.2471                 0.2306                 0.1570
 IR Inten    --      5.2010                13.0908                44.8824

                     19                     20                     21
                      A                      A                      A
 Frequencies --    441.7208               458.3630               518.0890
 Red. masses --      2.3394                 2.2410                 1.9503
 Frc consts  --      0.2689                 0.2774                 0.3084
 IR Inten    --      3.8682                 5.1079                 2.6684

                     22                     23                     24
                      A                      A                      A
 Frequencies --    539.8905               574.3188               660.6812
 Red. masses --      5.2659                 2.2784                 4.5699
 Frc consts  --      0.9044                 0.4428                 1.1753
 IR Inten    --      5.6449                11.1735                12.0535

                     25                     26                     27
                      A                      A                      A
 Frequencies --    665.9809               698.6338               710.4410
 Red. masses --      3.1617                 4.1676                 5.4132
 Frc consts  --      0.8262                 1.1985                 1.6098
 IR Inten    --     45.8225                16.9494                30.4527

                     28                     29                     30
                      A                      A                      A
 Frequencies --    741.3523               784.7805               798.7736
 Red. masses --      3.1377                 2.9302                 2.1859
 Frc consts  --      1.0160                 1.0633                 0.8217
 IR Inten    --     19.6105                60.4555               107.5763

                     31                     32                     33
                      A                      A                      A
 Frequencies --    844.6045               876.0678               894.2686
 Red. masses --      2.8907                 2.1274                 1.3886
 Frc consts  --      1.2149                 0.9620                 0.6543
 IR Inten    --     15.0750                 7.0669                10.7894

                     34                     35                     36
                      A                      A                      A
 Frequencies --    899.5199               943.0057               972.4912
 Red. masses --      1.6422                 4.5431                 2.9533
 Frc consts  --      0.7829                 2.3803                 1.6456
 IR Inten    --      0.9201                66.6313                 6.6217

                     37                     38                     39
                      A                      A                      A
 Frequencies --    981.0677              1018.0424              1049.4215
 Red. masses --      2.3757                 2.2290                 2.6885
 Frc consts  --      1.3472                 1.3611                 1.7445
 IR Inten    --     25.5180                19.8859                11.5064

                     40                     41                     42
                      A                      A                      A
 Frequencies --   1056.9054              1085.5970              1096.5563
 Red. masses --      2.1296                 3.7122                 2.4482
 Frc consts  --      1.4016                 2.5777                 1.7344
 IR Inten    --     21.1256                 7.4288                59.6392

                     43                     44                     45
                      A                      A                      A
 Frequencies --   1108.7084              1128.7805              1152.9908
 Red. masses --      1.8367                 1.8012                 1.6499
 Frc consts  --      1.3302                 1.3522                 1.2923
 IR Inten    --     38.5076                16.6888                53.5655

                     46                     47                     48
                      A                      A                      A
 Frequencies --   1177.4081              1182.7663              1199.8309
 Red. masses --      1.6471                 2.1017                 2.7020
 Frc consts  --      1.3453                 1.7323                 2.2918
 IR Inten    --     11.5211                25.9195                11.4023

                     49                     50                     51
                      A                      A                      A
 Frequencies --   1225.6717              1231.7883              1275.9168
 Red. masses --      1.9470                 1.3986                 2.2916
 Frc consts  --      1.7233                 1.2503                 2.1980
 IR Inten    --     23.3876                35.2610                71.8553

                     52                     53                     54
                      A                      A                      A
 Frequencies --   1281.5854              1335.9589              1340.1178
 Red. masses --      1.5735                 1.5084                 1.5945
 Frc consts  --      1.5227                 1.5861                 1.6872
 IR Inten    --      6.5125                23.7224                22.3377

                     55                     56                     57
                      A                      A                      A
 Frequencies --   1366.6598              1367.4747              1386.0523
 Red. masses --      1.6613                 1.4380                 1.6428
 Frc consts  --      1.8282                 1.5843                 1.8595
 IR Inten    --     12.3746                 7.2995                 6.6731

                     58                     59                     60
                      A                      A                      A
 Frequencies --   1389.0964              1403.7330              1418.6150
 Red. masses --      1.2777                 1.7042                 1.2979
 Frc consts  --      1.4526                 1.9785                 1.5389
 IR Inten    --      1.0463                18.2259                 0.6940

                     61                     62                     63
                      A                      A                      A
 Frequencies --   1427.5512              1438.5480              1444.9977
 Red. masses --      1.5017                 1.8417                 1.4220
 Frc consts  --      1.8031                 2.2456                 1.7494
 IR Inten    --      4.5121               138.3096                10.3657

                     64                     65                     66
                      A                      A                      A
 Frequencies --   1485.7404              1487.1230              1497.8587
 Red. masses --      3.7006                 1.1687                 1.1000
 Frc consts  --      4.8129                 1.5228                 1.4541
 IR Inten    --     24.3804                 2.6815                10.8599

                     67                     68                     69
                      A                      A                      A
 Frequencies --   1506.9883              1512.3595              1516.7826
 Red. masses --      1.1041                 1.1444                 1.0550
 Frc consts  --      1.4774                 1.5421                 1.4301
 IR Inten    --      7.9868                 8.8685                16.0691

                     70                     71                     72
                      A                      A                      A
 Frequencies --   1525.4058              1536.2597              1553.7828
 Red. masses --      1.0902                 1.0595                 1.0815
 Frc consts  --      1.4946                 1.4733                 1.5383
 IR Inten    --      9.7383                 3.3298                 4.5519

                     73                     74                     75
                      A                      A                      A
 Frequencies --   1586.9013              1622.8952              1689.1396
 Red. masses --      5.7531                 2.6633                 1.3675
 Frc consts  --      8.5360                 4.1329                 2.2988
 IR Inten    --    214.6511                39.3455               140.3076

                     76                     77                     78
                      A                      A                      A
 Frequencies --   1739.7928              2896.8313              2920.9093
 Red. masses --     10.8366                 1.0752                 1.0635
 Frc consts  --     19.3259                 5.3160                 5.3460
 IR Inten    --    254.1854                52.5805               107.3424

                     79                     80                     81
                      A                      A                      A
 Frequencies --   3036.2742              3041.4827              3043.6110
 Red. masses --      1.0819                 1.0724                 1.0658
 Frc consts  --      5.8765                 5.8449                 5.8168
 IR Inten    --     41.6813                33.4070                15.5579

                     82                     83                     84
                      A                      A                      A
 Frequencies --   3060.4620              3068.9198              3071.2699
 Red. masses --      1.0707                 1.0693                 1.0700
 Frc consts  --      5.9089                 5.9338                 5.9465
 IR Inten    --     50.0559                44.5674                39.1798

                     85                     86                     87
                      A                      A                      A
 Frequencies --   3093.0587              3118.3675              3119.8073
 Red. masses --      1.1005                 1.1028                 1.0958
 Frc consts  --      6.2030                 6.3181                 6.2839
 IR Inten    --     33.1143                27.8901                26.8861

                     88                     89                     90
                      A                      A                      A
 Frequencies --   3151.4683              3163.9160              3271.4853
 Red. masses --      1.0934                 1.0932                 1.0964
 Frc consts  --      6.3984                 6.4478                 6.9139
 IR Inten    --      9.1821                12.7611                 2.4376

                     91                     92                     93
                      A                      A                      A
 Frequencies --   3502.4134              3602.0400              3665.1119
 Red. masses --      1.0489                 1.0969                 1.0809
 Frc consts  --      7.5810                 8.3852                 8.5549
 IR Inten    --     20.9672                30.9953                69.3691

 - Thermochemistry -
 -------------------
 Temperature   298.150 Kelvin.  Pressure   1.00000 Atm.
 Atom     1 has atomic number  6 and mass  12.00000

 Molecular mass:   223.14331 amu.
 Principal axes and moments of inertia in atomic units:
                           1         2         3
     Eigenvalues --  1758.316425632.590706109.24806
           X            0.99998  -0.00387  -0.00441
           Y            0.00391   0.99995   0.00891
           Z            0.00438  -0.00892   0.99995
 This molecule is an asymmetric top.
 Rotational symmetry number  1.
 Warning -- assumption of classical behavior for rotation
           may cause significant error
 Rotational temperatures (Kelvin)      0.04926     0.01538     0.01418
 Rotational constants (GHZ):           1.02640     0.32041     0.29541
 Zero-point vibrational energy     748099.1 (Joules/Mol)
                                  178.79997 (Kcal/Mol)
 Warning -- explicit consideration of  23 degrees of freedom as
           vibrations may cause significant error
 Vibrational temperatures:     58.24    83.27   109.71   132.20   161.21
          (Kelvin)            219.92   263.43   338.62   381.89   388.78
                              401.29   456.43   498.23   506.20   530.43
                              572.42   601.67   610.99   635.54   659.48
                              745.41   776.78   826.32   950.57   958.20
                             1005.18  1022.17  1066.64  1129.12  1149.26
                             1215.20  1260.47  1286.65  1294.21  1356.77
                             1399.20  1411.54  1464.74  1509.88  1520.65
                             1561.93  1577.70  1595.18  1624.06  1658.90
                             1694.03  1701.74  1726.29  1763.47  1772.27
                             1835.76  1843.92  1922.15  1928.13  1966.32
                             1967.49  1994.22  1998.60  2019.66  2041.07
                             2053.93  2069.75  2079.03  2137.65  2139.64
                             2155.08  2168.22  2175.95  2182.31  2194.72
                             2210.34  2235.55  2283.20  2334.98  2430.30
                             2503.17  4167.89  4202.54  4368.52  4376.02
                             4379.08  4403.32  4415.49  4418.87  4450.22
                             4486.64  4488.71  4534.26  4552.17  4706.94
                             5039.19  5182.53  5273.28

 Zero-point correction=                           0.284936 (Hartree/Particle)
 Thermal correction to Energy=                    0.299810
 Thermal correction to Enthalpy=                  0.300754
 Thermal correction to Gibbs Free Energy=         0.243009
 Sum of electronic and zero-point Energies=           -740.027213
 Sum of electronic and thermal Energies=              -740.012340
 Sum of electronic and thermal Enthalpies=            -740.011395
 Sum of electronic and thermal Free Energies=         -740.069141

                     E (Thermal)             CV                S
                      KCal/Mol        Cal/Mol-Kelvin    Cal/Mol-Kelvin
 Total                  188.133             57.933            121.535
 Electronic               0.000              0.000              0.000
 Translational            0.889              2.981             42.111
 Rotational               0.889              2.981             32.470
 Vibrational            186.356             51.971             46.955
 Vibration     1          0.594              1.981              5.235
 Vibration     2          0.596              1.974              4.528
 Vibration     3          0.599              1.965              3.985
 Vibration     4          0.602              1.955              3.620
 Vibration     5          0.607              1.939              3.233
 Vibration     6          0.619              1.900              2.636
 Vibration     7          0.631              1.863              2.297
 Vibration     8          0.655              1.787              1.838
 Vibration     9          0.671              1.736              1.626
 Vibration    10          0.674              1.728              1.595
 Vibration    11          0.679              1.713              1.540
 Vibration    12          0.704              1.641              1.324
 Vibration    13          0.724              1.583              1.183
 Vibration    14          0.728              1.572              1.158
 Vibration    15          0.741              1.537              1.085
 Vibration    16          0.764              1.475              0.971
 Vibration    17          0.781              1.431              0.898
 Vibration    18          0.787              1.417              0.876
 Vibration    19          0.801              1.379              0.821
 Vibration    20          0.816              1.342              0.771
 Vibration    21          0.873              1.210              0.614
 Vibration    22          0.895              1.162              0.566
 Vibration    23          0.931              1.087              0.496

                           ! Non-Optimized Parameters !
 Normal termination of Gaussian 16 at Fri Dec 11 01:20:58 2020.

 ----------------------------------------------------------------------
 # B3LYP/6-311++G(d,p) empiricaldispersion=gd3bj scf=xqc pop=npa geom=c
 heck
 ----------------------------------------------------------------------

 --------------------------------------
 CID_43159675_JID_6920_Energie_neutraal
 --------------------------------------
 Structure from the checkpoint file:  "JID_6920.chk"
 Charge =  0 Multiplicity = 1

 SCF Done:  E(RB3LYP) =  -740.524852147     A.U. after   16 cycles
 Normal termination of Gaussian 16 at Fri Dec 11 01:25:57 2020.

 ----------------------------------------------------------------------
 # B3LYP/6-311++G(d,p) empiricaldispersion=gd3bj scf=xqc pop=npa geom=c
 heck
 ----------------------------------------------------------------------

 ------------------------------------
 CID_43159675_JID_6920_Energie_kation
 ------------------------------------
 Structure from the checkpoint file:  "JID_6920.chk"
 Charge =  1 Multiplicity = 2

 SCF Done:  E(UB3LYP) =  -740.247302121     A.U. after   26 cycles
 Normal termination of Gaussian 16 at Fri Dec 11 01:36:34 2020.
 Gaussian 16:  ES64L-G16RevA.03 25-Dec-2016

 ----------------------------------------------------------------------
 # B3LYP/6-311++G(d,p) empiricaldispersion=gd3bj scf=xqc pop=npa geom=c
 heck
 ----------------------------------------------------------------------

 -----------------------------------
 CID_43159675_JID_6920_Energie_anion
 -----------------------------------
 Structure from the checkpoint file:  "JID_6920.chk"
 Charge = -1 Multiplicity = 2

                         Standard orientation:
 ---------------------------------------------------------------------
 Center     Atomic      Atomic             Coordinates (Angstroms)
 Number     Number       Type             X           Y           Z
 ---------------------------------------------------------------------
      1          6           0        3.681667   -1.983853   -0.447965
      2          7           0        2.939824   -0.778410   -0.772288
      3          6           0        3.427014    0.348642    0.025314
      4          6           0        2.511762    1.575038    0.072953
      5          6           0        1.370223    1.470572    1.097786
      6          7           0        0.277411    0.555651    0.749747
      7          6           0        0.698047   -0.834141    0.492373
      8          6           0        1.494912   -0.978722   -0.825093
      9          6           0       -0.711298    1.111996   -0.081264
     10          8           0       -0.602887    2.241696   -0.551125
     11          6           0       -1.921573    0.306406   -0.286316
     12          6           0       -2.558436   -0.550826    0.615392
     13          7           0       -3.720298   -0.921691    0.024207
     14          7           0       -3.903368   -0.356768   -1.214176
     15          6           0       -2.825990    0.390073   -1.381691
     16          7           0       -2.155789   -1.015011    1.858935
     17          1           0        4.754512   -1.792859   -0.567194
     18          1           0        3.525181   -2.341110    0.590449
     19          1           0        3.406013   -2.792085   -1.133146
     20          1           0        3.622065    0.036969    1.072716
     21          1           0        4.403680    0.637830   -0.385674
     22          1           0        2.106209    1.812765   -0.915136
     23          1           0        3.129283    2.432083    0.369763
     24          1           0        0.922845    2.454442    1.241927
     25          1           0        1.780990    1.133382    2.058707
     26          1           0       -0.186056   -1.469351    0.449608
     27          1           0        1.294390   -1.171500    1.348141
     28          1           0        1.056621   -0.281061   -1.550174
     29          1           0        1.328606   -1.982515   -1.230409
     30          1           0       -4.409452   -1.571287    0.371020
     31          1           0       -2.700256    0.977815   -2.280669
     32          1           0       -2.900177   -1.067886    2.546943
     33          1           0       -1.373784   -0.466702    2.208217
 ---------------------------------------------------------------------

 SCF Done:  E(UB3LYP) =  -740.520914310     A.U. after   33 cycles
 SCF Done:  E(UB3LYP) =  -740.520914310     a.u. after    1 cycles

 The electronic state is 2-A.
 Alpha  occ. eigenvalues --  -18.99473 -14.28260 -14.24063 -14.23304 -14.22926
 Alpha  occ. eigenvalues --  -14.21672 -10.17813 -10.15800 -10.11009 -10.10658
 Alpha  occ. eigenvalues --  -10.10610 -10.10594 -10.10263 -10.09782 -10.08157
 Alpha  occ. eigenvalues --  -10.07239  -0.95128  -0.94215  -0.84979  -0.82974
 Alpha  occ. eigenvalues --   -0.82217  -0.72163  -0.69818  -0.67913  -0.65072
 Alpha  occ. eigenvalues --   -0.60844  -0.58142  -0.55938  -0.52125  -0.51066
 Alpha  occ. eigenvalues --   -0.47627  -0.46322  -0.43974  -0.42373  -0.40745
 Alpha  occ. eigenvalues --   -0.39529  -0.38635  -0.37582  -0.36854  -0.35770
 Alpha  occ. eigenvalues --   -0.35016  -0.33803  -0.33249  -0.32042  -0.32028
 Alpha  occ. eigenvalues --   -0.30810  -0.30189  -0.29107  -0.27694  -0.27644
 Alpha  occ. eigenvalues --   -0.26445  -0.26353  -0.24623  -0.23433  -0.20251
 Alpha  occ. eigenvalues --   -0.17828  -0.16311  -0.15319  -0.12515  -0.12111
 Alpha  occ. eigenvalues --    0.03776
 Alpha virt. eigenvalues --    0.05612   0.06918   0.07381   0.07852   0.08532
 Alpha virt. eigenvalues --    0.08919   0.09769   0.09994   0.10359   0.10869
 Alpha virt. eigenvalues --    0.11349   0.11476   0.12056   0.13012   0.13616

  Beta  occ. eigenvalues --  -18.99471 -14.28217 -14.24063 -14.23297 -14.22827
  Beta  occ. eigenvalues --  -14.21671 -10.17812 -10.15794 -10.10990 -10.10644
  Beta  occ. eigenvalues --  -10.10605 -10.10580 -10.10243 -10.09783 -10.08154
  Beta  occ. eigenvalues --  -10.07234  -0.95099  -0.94206  -0.84968  -0.82913
  Beta  occ. eigenvalues --   -0.82156  -0.72102  -0.69793  -0.67866  -0.65049
  Beta  occ. eigenvalues --   -0.60815  -0.58106  -0.55907  -0.52065  -0.51037
  Beta  occ. eigenvalues --   -0.47593  -0.46207  -0.43911  -0.42329  -0.40727
  Beta  occ. eigenvalues --   -0.39506  -0.38587  -0.37553  -0.36792  -0.35737
  Beta  occ. eigenvalues --   -0.34986  -0.33784  -0.33232  -0.32021  -0.32007
  Beta  occ. eigenvalues --   -0.30788  -0.30159  -0.29088  -0.27674  -0.27629
  Beta  occ. eigenvalues --   -0.26426  -0.26337  -0.24598  -0.23367  -0.20232
  Beta  occ. eigenvalues --   -0.17820  -0.16293  -0.15308  -0.12469  -0.12095
  Beta virt. eigenvalues --    0.05844   0.07133   0.07416   0.07720   0.08216
  Beta virt. eigenvalues --    0.08855   0.09645   0.09938   0.10075   0.10564
  Beta virt. eigenvalues --    0.10962   0.11550   0.11957   0.12242   0.13132

 Mulliken charges and spin densities:
               1          2
     1  C    0.241411  -0.531514
     2  N    0.108725   0.081639
     3  C    0.230631  -0.566016
     4  C   -0.756798   0.392036
     5  C    0.710654  -0.846445
     6  N    0.120526   0.040384
     7  C   -0.345393   0.016180
     8  C   -0.558038  -0.192119
     9  C   -1.195498  -0.424150
    10  O   -0.282089   0.002174
    11  C    1.422793  -0.570840
    12  C    0.426133  -0.337226
    13  N    0.013074  -0.117410
    14  N   -0.266537   0.094535
    15  C    0.076491   0.035547
    16  N   -0.199012  -0.112324
    17  H   -0.062837   0.203423
    18  H   -0.104577   0.219964
    19  H   -0.050064   0.168371
    20  H   -0.013298   0.146118
    21  H    0.014221   0.129427
    22  H    0.209461   0.010577
    23  H    0.054785   0.104773
    24  H    0.176726   0.022119
    25  H   -0.317387   0.489749
    26  H   -0.203757   0.403393
    27  H   -0.020459   0.234263
    28  H    0.197343   0.015401
    29  H    0.162889   0.007667
    30  H   -0.158264   0.487894
    31  H    0.178706   0.000100
    32  H   -0.830076   1.124305
    33  H    0.019517   0.268004
 Sum of Mulliken charges =  -1.00000   1.00000

 Dipole moment (field-independent basis, Debye):
    X=              5.8792    Y=              1.7005    Z=             -4.9904  Tot=              7.8969
 Quadrupole moment (field-independent basis, Debye-Ang):
   XX=           -176.7021   YY=           -132.9036   ZZ=           -143.4583
   XY=             -3.6903   XZ=              9.9258   YZ=              9.0700

 Summary of Natural Population Analysis:

                                       Natural Population
                Natural  -----------------------------------------------
    Atom  No    Charge         Core      Valence    Rydberg      Total
 -----------------------------------------------------------------------
      C    1   -0.17533      0.99965     2.16734    0.00834     3.17533
      N    2   -0.28105      0.99972     2.76955    0.01178     3.78105
      C    3   -0.08492      0.99961     2.07346    0.01185     3.08492
      C    4   -0.20804      0.99962     2.20063    0.00779     3.20804
      C    5   -0.08639      0.99960     2.07440    0.01238     3.08639
      N    6   -0.27400      0.99967     2.76185    0.01247     3.77400
      C    7   -0.10300      0.99959     2.09247    0.01094     3.10300
      C    8   -0.09260      0.99961     2.08156    0.01143     3.09260
      C    9    0.34069      0.99958     1.63636    0.02336     2.65931
      O   10   -0.31888      0.99988     3.31427    0.00473     4.31888
      C   11   -0.15540      0.99941     2.14493    0.01106     3.15540
      C   12    0.19896      0.99949     1.78712    0.01443     2.80104
      N   13   -0.18508      0.99965     2.67204    0.01339     3.68508
      N   14   -0.16238      0.99974     2.65013    0.01251     3.66238
      C   15    0.01595      0.99960     1.97021    0.01424     2.98405
      N   16   -0.39762      0.99971     2.88753    0.01039     3.89762
      H   17    0.09378      0.00000     0.40524    0.00099     0.40622
      H   18    0.08120      0.00000     0.41735    0.00145     0.41880
      H   19    0.09391      0.00000     0.40525    0.00084     0.40609
      H   20    0.07990      0.00000     0.41856    0.00154     0.42010
      H   21    0.09405      0.00000     0.40483    0.00112     0.40595
      H   22    0.10813      0.00000     0.39080    0.00107     0.39187
      H   23    0.10258      0.00000     0.39662    0.00080     0.39742
      H   24    0.11020      0.00000     0.38877    0.00103     0.38980
      H   25    0.09404      0.00000     0.40461    0.00135     0.40596
      H   26    0.11184      0.00000     0.38632    0.00184     0.38816
      H   27    0.10038      0.00000     0.39790    0.00171     0.39962
      H   28    0.09704      0.00000     0.40170    0.00126     0.40296
      H   29    0.09908      0.00000     0.39993    0.00098     0.40092
      H   30    0.20349      0.00000     0.29199    0.00451     0.29651
      H   31    0.10025      0.00000     0.39891    0.00084     0.39975
      H   32    0.20058      0.00000     0.26839    0.03103     0.29942
      H   33    0.19863      0.00000     0.29687    0.00450     0.30137
 =======================================================================
   * Total *    0.00000     15.99413    43.75792    0.24794    60.00000

 Normal termination of Gaussian 16 at Fri Dec 11 01:49:54 2020.
