 Gaussian 16, Revision A.03,

 -----------------------------------------------------------
 # opt freq B3LYP/6-31G(d) empiricaldispersion=gd3bj scf=xqc
 -----------------------------------------------------------

 ------------------------------
 CID_60972817_JID_2335_neutraal
 ------------------------------
 Symbolic Z-matrix:
 Charge =  0 Multiplicity = 1

 SCF Done:  E(RB3LYP) =  -537.353611608     A.U. after   14 cycles
 SCF Done:  E(RB3LYP) =  -537.356897949     A.U. after   12 cycles
 SCF Done:  E(RB3LYP) =  -537.357510266     A.U. after   11 cycles
 SCF Done:  E(RB3LYP) =  -537.357604652     A.U. after   11 cycles
 SCF Done:  E(RB3LYP) =  -537.357619670     A.U. after   10 cycles
 SCF Done:  E(RB3LYP) =  -537.357624478     A.U. after    9 cycles
 SCF Done:  E(RB3LYP) =  -537.357632409     A.U. after   10 cycles
 SCF Done:  E(RB3LYP) =  -537.357641245     A.U. after   10 cycles
 SCF Done:  E(RB3LYP) =  -537.357639289     A.U. after   10 cycles
 SCF Done:  E(RB3LYP) =  -537.357674147     A.U. after   10 cycles
 SCF Done:  E(RB3LYP) =  -537.359407697     A.U. after    7 cycles
 SCF Done:  E(RB3LYP) =  -537.359407860     A.U. after    8 cycles
 SCF Done:  E(RB3LYP) =  -537.359408115     A.U. after    8 cycles
 SCF Done:  E(RB3LYP) =  -537.359408253     A.U. after    7 cycles
 SCF Done:  E(RB3LYP) =  -537.359408307     A.U. after    7 cycles
 SCF Done:  E(RB3LYP) =  -537.359408312     A.U. after    7 cycles
 Optimization completed.
    -- Stationary point found.
 Normal termination of Gaussian 16 at Wed Dec  9 17:17:17 2020.

 --------------------------------------------------------------------
 #N Geom=AllCheck Guess=TCheck SCRF=Check GenChk RB3LYP/6-31G(d) Freq
 --------------------------------------------------------------------

 Structure from the checkpoint file:  "JID_2335.chk"
 ------------------------------
 CID_60972817_JID_2335_neutraal
 ------------------------------
 Charge =  0 Multiplicity = 1

 SCF Done:  E(RB3LYP) =  -537.359408312     A.U. after    1 cycles

  Exact polarizability: 124.067  -4.185 108.686  -8.895  -5.462  92.595
 Approx polarizability: 154.000  -4.697 162.759 -19.013 -15.402 140.499

                      1                      2                      3
                      A                      A                      A
 Frequencies --     17.8523                28.8636                55.9873
 Red. masses --      3.7220                 3.0630                 2.6702
 Frc consts  --      0.0007                 0.0015                 0.0049
 IR Inten    --      0.2404                 0.1655                 0.0728

                      4                      5                      6
                      A                      A                      A
 Frequencies --    111.3097               116.9474               144.5656
 Red. masses --      1.0596                 2.1959                 1.0279
 Frc consts  --      0.0077                 0.0177                 0.0127
 IR Inten    --      0.0794                 0.0893                 0.0099

                      7                      8                      9
                      A                      A                      A
 Frequencies --    165.0119               187.8797               221.4019
 Red. masses --      3.0163                 2.8085                 2.1971
 Frc consts  --      0.0484                 0.0584                 0.0635
 IR Inten    --      2.5373                 1.7968                 0.2344

                     10                     11                     12
                      A                      A                      A
 Frequencies --    230.3416               258.8682               291.9230
 Red. masses --      2.6176                 2.3345                 1.8592
 Frc consts  --      0.0818                 0.0922                 0.0933
 IR Inten    --      1.7911                 0.3168                 2.3590

                     13                     14                     15
                      A                      A                      A
 Frequencies --    311.1006               324.8317               402.1439
 Red. masses --      1.8790                 3.1263                 2.7621
 Frc consts  --      0.1071                 0.1944                 0.2632
 IR Inten    --      8.1801                 0.2503                 0.5379

                     16                     17                     18
                      A                      A                      A
 Frequencies --    463.7995               539.4473               626.0149
 Red. masses --      2.5955                 3.2962                 4.4064
 Frc consts  --      0.3290                 0.5651                 1.0174
 IR Inten    --      0.1995                 1.2956                 5.0314

                     19                     20                     21
                      A                      A                      A
 Frequencies --    641.7245               662.0995               734.1501
 Red. masses --      4.5355                 4.5169                 3.3024
 Frc consts  --      1.1005                 1.1666                 1.0487
 IR Inten    --      6.9726                 2.1350                27.4960

                     22                     23                     24
                      A                      A                      A
 Frequencies --    757.1788               789.2468               833.9531
 Red. masses --      1.7262                 1.6806                 2.2595
 Frc consts  --      0.5831                 0.6168                 0.9258
 IR Inten    --     12.6108                10.8880                86.5848

                     25                     26                     27
                      A                      A                      A
 Frequencies --    879.5077               919.1786               939.2737
 Red. masses --      2.1701                 1.5857                 1.8161
 Frc consts  --      0.9890                 0.7893                 0.9440
 IR Inten    --     14.5929                 8.6776                 9.7479

                     28                     29                     30
                      A                      A                      A
 Frequencies --    973.7043              1001.4233              1012.7764
 Red. masses --      2.2902                 1.8492                 3.0268
 Frc consts  --      1.2793                 1.0926                 1.8292
 IR Inten    --      3.6657                 3.0198                17.0494

                     31                     32                     33
                      A                      A                      A
 Frequencies --   1045.0996              1072.5625              1078.7097
 Red. masses --      1.6014                 2.7139                 1.4190
 Frc consts  --      1.0306                 1.8395                 0.9728
 IR Inten    --      3.8096                 4.2815                 2.9419

                     34                     35                     36
                      A                      A                      A
 Frequencies --   1084.2657              1143.2757              1153.4389
 Red. masses --      1.5101                 3.1701                 1.9589
 Frc consts  --      1.0460                 2.4414                 1.5355
 IR Inten    --      0.0475                46.6152                 2.2393

                     37                     38                     39
                      A                      A                      A
 Frequencies --   1166.2768              1177.8405              1232.0187
 Red. masses --      3.0381                 1.9888                 4.2904
 Frc consts  --      2.4348                 1.6256                 3.8369
 IR Inten    --     16.3009                 7.5777                25.3894

                     40                     41                     42
                      A                      A                      A
 Frequencies --   1249.8405              1302.5569              1319.6301
 Red. masses --      1.4562                 1.4359                 2.2380
 Frc consts  --      1.3402                 1.4354                 2.2962
 IR Inten    --      5.3147                11.7193                17.1783

                     43                     44                     45
                      A                      A                      A
 Frequencies --   1349.5913              1374.0832              1382.4319
 Red. masses --      1.3388                 1.9637                 1.6385
 Frc consts  --      1.4368                 2.1844                 1.8449
 IR Inten    --      6.6619                15.4562                16.3986

                     46                     47                     48
                      A                      A                      A
 Frequencies --   1395.5950              1422.8371              1444.7002
 Red. masses --      1.3843                 1.3661                 1.2663
 Frc consts  --      1.5885                 1.6295                 1.5572
 IR Inten    --      2.2938                 2.3293                 6.6868

                     49                     50                     51
                      A                      A                      A
 Frequencies --   1450.3526              1452.1615              1492.3248
 Red. masses --      1.5530                 1.2746                 1.0780
 Frc consts  --      1.9247                 1.5836                 1.4144
 IR Inten    --      1.4857                 2.0879                 3.1077

                     52                     53                     54
                      A                      A                      A
 Frequencies --   1502.8426              1506.3379              1509.4173
 Red. masses --      1.0430                 1.0428                 1.0947
 Frc consts  --      1.3879                 1.3941                 1.4695
 IR Inten    --      2.4885                 7.9957                 1.2722

                     55                     56                     57
                      A                      A                      A
 Frequencies --   1516.9109              1520.9583              1522.0927
 Red. masses --      1.1502                 1.0723                 1.0650
 Frc consts  --      1.5593                 1.4615                 1.4537
 IR Inten    --     17.4859                 3.3229                 4.0463

                     58                     59                     60
                      A                      A                      A
 Frequencies --   1530.9016              1540.9637              1546.6778
 Red. masses --      1.0789                 1.0889                 1.0618
 Frc consts  --      1.4897                 1.5234                 1.4965
 IR Inten    --     18.0272                 8.2194                 4.8240

                     61                     62                     63
                      A                      A                      A
 Frequencies --   1630.0923              1701.0163              2949.1195
 Red. masses --      9.3008                 7.5160                 1.0729
 Frc consts  --     14.5612                12.8130                 5.4979
 IR Inten    --     26.2946                16.1419                56.5725

                     64                     65                     66
                      A                      A                      A
 Frequencies --   3042.4255              3044.5842              3044.8208
 Red. masses --      1.0396                 1.0384                 1.0600
 Frc consts  --      5.6699                 5.6710                 5.7898
 IR Inten    --     14.5084                38.8781                23.3068

                     67                     68                     69
                      A                      A                      A
 Frequencies --   3051.5687              3057.9641              3066.8060
 Red. masses --      1.0365                 1.0646                 1.0863
 Frc consts  --      5.6870                 5.8656                 6.0194
 IR Inten    --     28.5211                30.3503                43.9013

                     70                     71                     72
                      A                      A                      A
 Frequencies --   3082.0701              3093.8401              3105.7938
 Red. masses --      1.1016                 1.1018                 1.1014
 Frc consts  --      6.1653                 6.2135                 6.2598
 IR Inten    --      7.6635                16.4647                16.5547

                     73                     74                     75
                      A                      A                      A
 Frequencies --   3110.0088              3114.7264              3120.4957
 Red. masses --      1.1030                 1.1009                 1.1001
 Frc consts  --      6.2857                 6.2929                 6.3117
 IR Inten    --     59.9561                46.3192                10.3622

                     76                     77                     78
                      A                      A                      A
 Frequencies --   3131.2018              3142.0459              3500.1707
 Red. masses --      1.1014                 1.0983                 1.0732
 Frc consts  --      6.3625                 6.3887                 7.7466
 IR Inten    --     20.6793                14.0241                 0.1943

 - Thermochemistry -
 -------------------
 Temperature   298.150 Kelvin.  Pressure   1.00000 Atm.
 Atom     1 has atomic number  6 and mass  12.00000

 Molecular mass:   168.12626 amu.
 Principal axes and moments of inertia in atomic units:
                           1         2         3
     Eigenvalues --  1180.898603775.482184123.29128
           X            1.00000   0.00081  -0.00153
           Y           -0.00083   0.99995  -0.01006
           Z            0.00152   0.01007   0.99995
 This molecule is an asymmetric top.
 Rotational symmetry number  1.
 Warning -- assumption of classical behavior for rotation
           may cause significant error
 Rotational temperatures (Kelvin)      0.07335     0.02294     0.02101
 Rotational constants (GHZ):           1.52828     0.47802     0.43769
 Zero-point vibrational energy     646689.0 (Joules/Mol)
                                  154.56237 (Kcal/Mol)
 Warning -- explicit consideration of  17 degrees of freedom as
           vibrations may cause significant error
 Vibrational temperatures:     25.69    41.53    80.55   160.15   168.26
          (Kelvin)            208.00   237.42   270.32   318.55   331.41
                              372.45   420.01   447.60   467.36   578.60
                              667.30   776.14   900.70   923.30   952.61
                             1056.28  1089.41  1135.55  1199.87  1265.42
                             1322.49  1351.41  1400.94  1440.82  1457.16
                             1503.67  1543.18  1552.02  1560.02  1644.92
                             1659.54  1678.01  1694.65  1772.60  1798.24
                             1874.09  1898.65  1941.76  1977.00  1989.01
                             2007.95  2047.15  2078.60  2086.73  2089.34
                             2147.12  2162.26  2167.28  2171.71  2182.50
                             2188.32  2189.95  2202.63  2217.10  2225.32
                             2345.34  2447.38  4243.13  4377.37  4380.48
                             4380.82  4390.53  4399.73  4412.45  4434.41
                             4451.35  4468.54  4474.61  4481.40  4489.70
                             4505.10  4520.70  5035.96

 Zero-point correction=                           0.246311 (Hartree/Particle)
 Thermal correction to Energy=                    0.259888
 Thermal correction to Enthalpy=                  0.260832
 Thermal correction to Gibbs Free Energy=         0.204164
 Sum of electronic and zero-point Energies=           -537.113097
 Sum of electronic and thermal Energies=              -537.099520
 Sum of electronic and thermal Enthalpies=            -537.098576
 Sum of electronic and thermal Free Energies=         -537.155244

                     E (Thermal)             CV                S
                      KCal/Mol        Cal/Mol-Kelvin    Cal/Mol-Kelvin
 Total                  163.082             48.303            119.268
 Electronic               0.000              0.000              0.000
 Translational            0.889              2.981             41.267
 Rotational               0.889              2.981             31.286
 Vibrational            161.305             42.342             46.715
 Vibration     1          0.593              1.986              6.860
 Vibration     2          0.593              1.984              5.906
 Vibration     3          0.596              1.975              4.594
 Vibration     4          0.607              1.940              3.246
 Vibration     5          0.608              1.935              3.150
 Vibration     6          0.616              1.909              2.743
 Vibration     7          0.623              1.885              2.492
 Vibration     8          0.633              1.856              2.249
 Vibration     9          0.648              1.808              1.948
 Vibration    10          0.652              1.795              1.876
 Vibration    11          0.668              1.748              1.669
 Vibration    12          0.687              1.689              1.463
 Vibration    13          0.700              1.653              1.356
 Vibration    14          0.709              1.626              1.286
 Vibration    15          0.768              1.465              0.955
 Vibration    16          0.821              1.330              0.755
 Vibration    17          0.894              1.163              0.566

 Optimization completed.
    -- Stationary point found.
 Normal termination of Gaussian 16 at Wed Dec  9 17:23:05 2020.

 ----------------------------------------------------------------------
 # B3LYP/6-311++G(d,p) empiricaldispersion=gd3bj scf=xqc pop=npa geom=c
 heck
 ----------------------------------------------------------------------

 --------------------------------------
 CID_60972817_JID_2335_Energie_neutraal
 --------------------------------------
 Structure from the checkpoint file:  "JID_2335.chk"
 Charge =  0 Multiplicity = 1

 SCF Done:  E(RB3LYP) =  -537.511470619     A.U. after   14 cycles
 Normal termination of Gaussian 16 at Wed Dec  9 17:25:22 2020.

 ----------------------------------------------------------------------
 # B3LYP/6-311++G(d,p) empiricaldispersion=gd3bj scf=xqc pop=npa geom=c
 heck
 ----------------------------------------------------------------------

 ------------------------------------
 CID_60972817_JID_2335_Energie_kation
 ------------------------------------
 Structure from the checkpoint file:  "JID_2335.chk"
 Charge =  1 Multiplicity = 2

 SCF Done:  E(UB3LYP) =  -537.216074682     A.U. after   21 cycles
 Normal termination of Gaussian 16 at Wed Dec  9 17:29:45 2020.
 Gaussian 16:  ES64L-G16RevA.03 25-Dec-2016

 ----------------------------------------------------------------------
 # B3LYP/6-311++G(d,p) empiricaldispersion=gd3bj scf=xqc pop=npa geom=c
 heck
 ----------------------------------------------------------------------

 -----------------------------------
 CID_60972817_JID_2335_Energie_anion
 -----------------------------------
 Structure from the checkpoint file:  "JID_2335.chk"
 Charge = -1 Multiplicity = 2

                         Standard orientation:
 ---------------------------------------------------------------------
 Center     Atomic      Atomic             Coordinates (Angstroms)
 Number     Number       Type             X           Y           Z
 ---------------------------------------------------------------------
      1          6           0        3.559096    1.582695    0.409756
      2          6           0        3.525545    0.132015    0.902202
      3          6           0        2.202219   -0.580782    0.619821
      4          7           0        1.971532   -0.728054   -0.818925
      5          6           0        0.744839   -1.456854   -1.140885
      6          6           0       -0.512312   -0.848796   -0.592604
      7          7           0       -1.369424   -1.343237    0.244622
      8          6           0       -2.309040   -0.325833    0.450246
      9          6           0       -1.952404    0.761014   -0.287117
     10          8           0       -0.792921    0.435790   -0.967168
     11          6           0       -2.506237    2.122190   -0.498891
     12          6           0       -3.473363   -0.520476    1.363845
     13          1           0        3.499081    1.641840   -0.683313
     14          1           0        4.489003    2.079125    0.707479
     15          1           0        2.723558    2.160139    0.825248
     16          1           0        4.338976   -0.437351    0.436304
     17          1           0        3.698814    0.113695    1.985946
     18          1           0        2.229290   -1.589874    1.049880
     19          1           0        1.382036   -0.045099    1.133768
     20          1           0        1.912476    0.195943   -1.242777
     21          1           0        0.673528   -1.531751   -2.232879
     22          1           0        0.811468   -2.473124   -0.741090
     23          1           0       -2.758864    2.295398   -1.552214
     24          1           0       -3.415918    2.250416    0.093762
     25          1           0       -1.792075    2.898918   -0.198669
     26          1           0       -4.099134   -1.354697    1.026187
     27          1           0       -3.136266   -0.758879    2.379235
     28          1           0       -4.097417    0.376977    1.412370
 ---------------------------------------------------------------------

 SCF Done:  E(UB3LYP) =  -537.496962767     A.U. after   32 cycles

 The electronic state is 2-A.
 Alpha  occ. eigenvalues --  -19.08992 -14.20925 -14.20607 -10.15404 -10.12555
 Alpha  occ. eigenvalues --  -10.11571 -10.09658 -10.09615 -10.07347 -10.07148
 Alpha  occ. eigenvalues --  -10.06932 -10.06396  -1.02411  -0.82299  -0.81537
 Alpha  occ. eigenvalues --   -0.70588  -0.68107  -0.63264  -0.62159  -0.57755
 Alpha  occ. eigenvalues --   -0.54789  -0.50145  -0.49093  -0.46158  -0.41016
 Alpha  occ. eigenvalues --   -0.39253  -0.38810  -0.36562  -0.34684  -0.33843
 Alpha  occ. eigenvalues --   -0.32249  -0.31811  -0.31413  -0.30832  -0.30193
 Alpha  occ. eigenvalues --   -0.29640  -0.29451  -0.28405  -0.27297  -0.24820
 Alpha  occ. eigenvalues --   -0.24574  -0.24421  -0.21116  -0.19165  -0.14615
 Alpha  occ. eigenvalues --   -0.12676   0.04491
 Alpha virt. eigenvalues --    0.06404   0.07473   0.07679   0.08487   0.09190
 Alpha virt. eigenvalues --    0.09419   0.09858   0.10425   0.10619   0.11036
 Alpha virt. eigenvalues --    0.11556   0.12460   0.12818   0.13411   0.13931

  Beta  occ. eigenvalues --  -19.08977 -14.20912 -14.20601 -10.15400 -10.12552
  Beta  occ. eigenvalues --  -10.11563 -10.09657 -10.09605 -10.07336 -10.07082
  Beta  occ. eigenvalues --  -10.06897 -10.06359  -1.02394  -0.82283  -0.81523
  Beta  occ. eigenvalues --   -0.70562  -0.68075  -0.63200  -0.62119  -0.57698
  Beta  occ. eigenvalues --   -0.54731  -0.50120  -0.49037  -0.46122  -0.40983
  Beta  occ. eigenvalues --   -0.39216  -0.38784  -0.36528  -0.34651  -0.33811
  Beta  occ. eigenvalues --   -0.32197  -0.31773  -0.31373  -0.30787  -0.30146
  Beta  occ. eigenvalues --   -0.29598  -0.29407  -0.28367  -0.27258  -0.24779
  Beta  occ. eigenvalues --   -0.24546  -0.24391  -0.21097  -0.19147  -0.14592
  Beta  occ. eigenvalues --   -0.12650
  Beta virt. eigenvalues --    0.06616   0.07346   0.07827   0.08052   0.09006
  Beta virt. eigenvalues --    0.09446   0.09675   0.10270   0.10689   0.11190
  Beta virt. eigenvalues --    0.11391   0.11992   0.12858   0.13276   0.13517

 Mulliken charges and spin densities:
               1          2
     1  C    0.721113  -1.225578
     2  C   -0.482172   0.202921
     3  C   -0.004947  -0.239885
     4  N   -0.065263   0.089179
     5  C   -0.070559  -0.916728
     6  C   -1.181096   0.873003
     7  N    0.138116   0.034709
     8  C   -1.179714   1.442476
     9  C   -1.042435   1.535791
    10  O    0.044160   0.035686
    11  C    3.438132  -4.103207
    12  C    0.820898  -1.376063
    13  H   -0.205882   0.332419
    14  H   -0.340104   0.488496
    15  H   -0.132933   0.281239
    16  H    0.105094   0.042617
    17  H   -0.075171   0.203782
    18  H    0.009392   0.123320
    19  H    0.191781  -0.028033
    20  H    0.233768  -0.018692
    21  H   -0.087851   0.269373
    22  H    0.183154   0.007236
    23  H   -0.519209   0.679940
    24  H   -0.540440   0.705615
    25  H   -0.395043   0.560155
    26  H   -0.131244   0.281410
    27  H   -0.137039   0.290535
    28  H   -0.294503   0.428285
 Sum of Mulliken charges =  -1.00000   1.00000

 Dipole moment (field-independent basis, Debye):
    X=              3.2368    Y=             -5.6975    Z=             -0.7175  Tot=              6.5919
 Quadrupole moment (field-independent basis, Debye-Ang):
   XX=           -154.2225   YY=           -122.4234   ZZ=           -106.4267
   XY=              3.4310   XZ=              1.3692   YZ=              0.8908

 Summary of Natural Population Analysis:

                                       Natural Population
                Natural  -----------------------------------------------
    Atom  No    Charge         Core      Valence    Rydberg      Total
 -----------------------------------------------------------------------
      C    1   -0.29000      0.99967     2.28510    0.00524     3.29000
      C    2   -0.19412      0.99964     2.18420    0.01028     3.19412
      C    3   -0.08696      0.99962     2.07804    0.00930     3.08696
      N    4   -0.33528      0.99975     2.82435    0.01118     3.83528
      C    5   -0.11300      0.99958     2.10253    0.01088     3.11300
      C    6    0.25809      0.99959     1.72201    0.02030     2.74191
      N    7   -0.25559      0.99967     2.74693    0.00900     3.75559
      C    8    0.03558      0.99945     1.95049    0.01447     2.96442
      C    9    0.13751      0.99938     1.84835    0.01477     2.86249
      O   10   -0.24648      0.99985     3.23828    0.00834     4.24648
      C   11   -0.30594      0.99963     2.30039    0.00592     3.30594
      C   12   -0.29489      0.99963     2.28927    0.00599     3.29489
      H   13    0.09521      0.00000     0.40361    0.00118     0.40479
      H   14    0.09998      0.00000     0.39881    0.00121     0.40002
      H   15    0.10026      0.00000     0.39834    0.00140     0.39974
      H   16    0.09507      0.00000     0.40364    0.00129     0.40493
      H   17    0.09556      0.00000     0.40347    0.00097     0.40444
      H   18    0.09053      0.00000     0.40815    0.00132     0.40947
      H   19    0.08358      0.00000     0.41467    0.00175     0.41642
      H   20    0.17462      0.00000     0.32132    0.00406     0.32538
      H   21    0.10305      0.00000     0.39592    0.00103     0.39695
      H   22    0.10360      0.00000     0.39517    0.00123     0.39640
      H   23    0.10935      0.00000     0.38816    0.00250     0.39065
      H   24    0.11272      0.00000     0.38442    0.00286     0.38728
      H   25    0.11105      0.00000     0.38683    0.00213     0.38895
      H   26    0.10402      0.00000     0.39476    0.00122     0.39598
      H   27    0.10498      0.00000     0.39378    0.00124     0.39502
      H   28    0.10749      0.00000     0.39111    0.00140     0.39251
 =======================================================================
   * Total *   -0.00000     11.99548    33.85208    0.15244    46.00000

 Normal termination of Gaussian 16 at Wed Dec  9 17:37:01 2020.
