 Gaussian 16, Revision A.03,

 -----------------------------------------------------------
 # opt freq B3LYP/6-31G(d) empiricaldispersion=gd3bj scf=xqc
 -----------------------------------------------------------

 -------------------------------
 CID_115225179_JID_3725_neutraal
 -------------------------------
 Symbolic Z-matrix:
 Charge =  0 Multiplicity = 1

 SCF Done:  E(RB3LYP) =  -898.429030793     A.U. after   14 cycles
 SCF Done:  E(RB3LYP) =  -898.432326758     A.U. after   12 cycles
 SCF Done:  E(RB3LYP) =  -898.433004211     A.U. after   12 cycles
 SCF Done:  E(RB3LYP) =  -898.433233888     A.U. after   12 cycles
 SCF Done:  E(RB3LYP) =  -898.433320468     A.U. after   11 cycles
 SCF Done:  E(RB3LYP) =  -898.433357875     A.U. after   10 cycles
 SCF Done:  E(RB3LYP) =  -898.433366989     A.U. after   10 cycles
 SCF Done:  E(RB3LYP) =  -898.433368924     A.U. after    9 cycles
 SCF Done:  E(RB3LYP) =  -898.433369731     A.U. after    9 cycles
 SCF Done:  E(RB3LYP) =  -898.433369774     A.U. after    9 cycles
 SCF Done:  E(RB3LYP) =  -898.433369988     A.U. after    8 cycles
 SCF Done:  E(RB3LYP) =  -898.433370030     A.U. after    6 cycles
 Optimization completed.
    -- Stationary point found.
 Normal termination of Gaussian 16 at Sun Dec 13 20:06:31 2020.

 --------------------------------------------------------------------
 #N Geom=AllCheck Guess=TCheck SCRF=Check GenChk RB3LYP/6-31G(d) Freq
 --------------------------------------------------------------------

 Structure from the checkpoint file:  "JID_3725.chk"
 -------------------------------
 CID_115225179_JID_3725_neutraal
 -------------------------------
 Charge =  0 Multiplicity = 1

 SCF Done:  E(RB3LYP) =  -898.433370030     A.U. after    1 cycles

  Exact polarizability: 111.345  13.206 138.457   0.585   4.327 125.142
 Approx polarizability: 145.236  23.347 214.120   1.265   8.911 217.848

                      1                      2                      3
                      A                      A                      A
 Frequencies --     17.3753                24.2224                41.3927
 Red. masses --      5.3524                 5.4403                 3.4631
 Frc consts  --      0.0010                 0.0019                 0.0035
 IR Inten    --      0.3682                 0.0470                 0.6288

                      4                      5                      6
                      A                      A                      A
 Frequencies --     68.9106               106.0374               155.5419
 Red. masses --      5.6443                 2.8384                 1.6313
 Frc consts  --      0.0158                 0.0188                 0.0233
 IR Inten    --      0.9168                 1.1056                14.4188

                      7                      8                      9
                      A                      A                      A
 Frequencies --    173.1167               186.8440               242.8478
 Red. masses --      2.1953                 2.8781                 4.0319
 Frc consts  --      0.0388                 0.0592                 0.1401
 IR Inten    --      5.4702                 1.4838                 1.1798

                     10                     11                     12
                      A                      A                      A
 Frequencies --    272.1851               300.0804               364.3053
 Red. masses --      2.0331                 2.6633                 1.9701
 Frc consts  --      0.0887                 0.1413                 0.1541
 IR Inten    --      1.2272                 3.2875                 0.1362

                     13                     14                     15
                      A                      A                      A
 Frequencies --    371.7701               390.1484               439.6719
 Red. masses --      2.4177                 2.6035                 2.5956
 Frc consts  --      0.1969                 0.2335                 0.2956
 IR Inten    --      0.9510                 0.0613                 0.6702

                     16                     17                     18
                      A                      A                      A
 Frequencies --    510.2486               551.4590               607.3500
 Red. masses --      4.4324                 2.8541                 2.7183
 Frc consts  --      0.6799                 0.5114                 0.5908
 IR Inten    --     11.0301                 6.0165                10.7479

                     19                     20                     21
                      A                      A                      A
 Frequencies --    656.4350               688.0777               712.5028
 Red. masses --      3.8881                 6.7628                 1.1888
 Frc consts  --      0.9871                 1.8865                 0.3556
 IR Inten    --      5.8737                 0.6651                11.6020

                     22                     23                     24
                      A                      A                      A
 Frequencies --    753.4948               767.5211               796.3701
 Red. masses --      2.0261                 2.5970                 3.3289
 Frc consts  --      0.6778                 0.9014                 1.2439
 IR Inten    --     35.4184                15.2674                15.5728

                     25                     26                     27
                      A                      A                      A
 Frequencies --    823.1920               841.7849               880.5821
 Red. masses --      1.3434                 1.4448                 2.3060
 Frc consts  --      0.5364                 0.6032                 1.0535
 IR Inten    --     23.3430                 2.7419                18.5984

                     28                     29                     30
                      A                      A                      A
 Frequencies --    890.4103               902.7219               976.1553
 Red. masses --      1.3749                 1.4718                 2.0264
 Frc consts  --      0.6422                 0.7067                 1.1377
 IR Inten    --      1.9359                 2.7934                 4.1654

                     31                     32                     33
                      A                      A                      A
 Frequencies --    978.6619               993.1654              1006.8868
 Red. masses --      1.3516                 1.4563                 1.5133
 Frc consts  --      0.7627                 0.8463                 0.9039
 IR Inten    --      1.6995                 0.0131                 4.1576

                     34                     35                     36
                      A                      A                      A
 Frequencies --   1014.6493              1026.8086              1058.8708
 Red. masses --      7.2973                 1.7415                 1.8963
 Frc consts  --      4.4263                 1.0818                 1.2527
 IR Inten    --      5.1483                 0.9445                 3.2095

                     37                     38                     39
                      A                      A                      A
 Frequencies --   1087.8153              1103.2285              1125.7842
 Red. masses --      2.3479                 1.9621                 1.5072
 Frc consts  --      1.6369                 1.4070                 1.1254
 IR Inten    --      6.0754                 0.7032                 0.1474

                     40                     41                     42
                      A                      A                      A
 Frequencies --   1126.9685              1163.4708              1208.6726
 Red. masses --      2.0943                 2.5876                 1.2292
 Frc consts  --      1.5672                 2.0637                 1.0580
 IR Inten    --      5.2145                29.6416                15.0186

                     43                     44                     45
                      A                      A                      A
 Frequencies --   1222.5408              1228.7606              1244.1279
 Red. masses --      1.3024                 1.4187                 2.1149
 Frc consts  --      1.1469                 1.2621                 1.9288
 IR Inten    --      0.8540                15.5875                 0.7603

                     46                     47                     48
                      A                      A                      A
 Frequencies --   1258.0983              1293.2729              1315.0288
 Red. masses --      1.3164                 1.2913                 4.8291
 Frc consts  --      1.2276                 1.2725                 4.9202
 IR Inten    --      5.2806                 3.3445                 1.5066

                     49                     50                     51
                      A                      A                      A
 Frequencies --   1339.3799              1347.6159              1366.3500
 Red. masses --      1.2035                 1.2829                 1.4636
 Frc consts  --      1.2720                 1.3727                 1.6099
 IR Inten    --     21.4639                 7.9264                 0.5140

                     52                     53                     54
                      A                      A                      A
 Frequencies --   1383.3387              1395.1037              1409.4924
 Red. masses --      1.3023                 1.3986                 1.2620
 Frc consts  --      1.4684                 1.6038                 1.4771
 IR Inten    --      1.2997                 5.8658                18.6365

                     55                     56                     57
                      A                      A                      A
 Frequencies --   1420.6895              1462.3611              1503.7716
 Red. masses --      1.3152                 2.0413                 1.0775
 Frc consts  --      1.5641                 2.5720                 1.4356
 IR Inten    --      2.2344                19.1954                 4.1735

                     58                     59                     60
                      A                      A                      A
 Frequencies --   1510.1276              1512.6025              1515.4231
 Red. masses --      1.0918                 1.1138                 1.0843
 Frc consts  --      1.4669                 1.5015                 1.4671
 IR Inten    --      7.0400                 3.0938                 4.0477

                     61                     62                     63
                      A                      A                      A
 Frequencies --   1538.0965              1543.8994              1549.9881
 Red. masses --      1.2057                 1.9630                 1.1395
 Frc consts  --      1.6806                 2.7568                 1.6129
 IR Inten    --     43.0391                 4.2154                12.4440

                     64                     65                     66
                      A                      A                      A
 Frequencies --   1619.9584              1656.1131              2677.7217
 Red. masses --      6.5572                 5.3651                 1.0386
 Frc consts  --     10.1386                 8.6698                 4.3876
 IR Inten    --     15.5222                49.7118                24.9427

                     67                     68                     69
                      A                      A                      A
 Frequencies --   2952.7710              3037.7313              3051.3570
 Red. masses --      1.0721                 1.0644                 1.0640
 Frc consts  --      5.5073                 5.7873                 5.8368
 IR Inten    --     42.8426                24.3972                31.6725

                     70                     71                     72
                      A                      A                      A
 Frequencies --   3055.0238              3066.6191              3080.4071
 Red. masses --      1.0771                 1.0702                 1.0783
 Frc consts  --      5.9229                 5.9295                 6.0286
 IR Inten    --     25.5204                60.7590                11.4436

                     73                     74                     75
                      A                      A                      A
 Frequencies --   3088.0135              3097.7357              3111.5737
 Red. masses --      1.0805                 1.1017                 1.1042
 Frc consts  --      6.0703                 6.2289                 6.2986
 IR Inten    --     18.5166                41.7295                17.4787

                     76                     77                     78
                      A                      A                      A
 Frequencies --   3131.2567              3170.8038              3172.5972
 Red. masses --      1.1061                 1.0867                 1.0897
 Frc consts  --      6.3898                 6.4375                 6.4622
 IR Inten    --     12.3981                21.8957                19.6271

                     79                     80                     81
                      A                      A                      A
 Frequencies --   3194.2382              3200.6385              3496.5063
 Red. masses --      1.0940                 1.0943                 1.0729
 Frc consts  --      6.5766                 6.6048                 7.7282
 IR Inten    --     22.8615                 7.8276                 2.7400

 - Thermochemistry -
 -------------------
 Temperature   298.150 Kelvin.  Pressure   1.00000 Atm.
 Atom     1 has atomic number  6 and mass  12.00000

 Molecular mass:   196.10342 amu.
 Principal axes and moments of inertia in atomic units:
                           1         2         3
     Eigenvalues --  2117.589283587.140994749.64053
           X            0.99982   0.01787   0.00673
           Y           -0.01789   0.99984   0.00310
           Z           -0.00668  -0.00322   0.99997
 This molecule is an asymmetric top.
 Rotational symmetry number  1.
 Warning -- assumption of classical behavior for rotation
           may cause significant error
 Rotational temperatures (Kelvin)      0.04090     0.02415     0.01824
 Rotational constants (GHZ):           0.85226     0.50311     0.37997
 Zero-point vibrational energy     655726.3 (Joules/Mol)
                                  156.72234 (Kcal/Mol)
 Warning -- explicit consideration of  18 degrees of freedom as
           vibrations may cause significant error
 Vibrational temperatures:     25.00    34.85    59.55    99.15   152.56
          (Kelvin)            223.79   249.08   268.83   349.40   391.61
                              431.75   524.15   534.89   561.34   632.59
                              734.13   793.43   873.84   944.46   989.99
                             1025.13  1084.11  1104.29  1145.80  1184.39
                             1211.14  1266.96  1281.10  1298.82  1404.47
                             1408.08  1428.94  1448.69  1459.85  1477.35
                             1523.48  1565.12  1587.30  1619.75  1621.46
                             1673.98  1739.01  1758.96  1767.91  1790.02
                             1810.12  1860.73  1892.03  1927.07  1938.92
                             1965.87  1990.32  2007.24  2027.95  2044.06
                             2104.01  2163.59  2172.74  2176.30  2180.36
                             2212.98  2221.33  2230.09  2330.76  2382.78
                             3852.64  4248.38  4370.62  4390.22  4395.50
                             4412.18  4432.02  4442.96  4456.95  4476.86
                             4505.18  4562.08  4564.66  4595.80  4605.00
                             5030.69

 Zero-point correction=                           0.249753 (Hartree/Particle)
 Thermal correction to Energy=                    0.263267
 Thermal correction to Enthalpy=                  0.264211
 Thermal correction to Gibbs Free Energy=         0.206677
 Sum of electronic and zero-point Energies=           -898.183617
 Sum of electronic and thermal Energies=              -898.170103
 Sum of electronic and thermal Enthalpies=            -898.169159
 Sum of electronic and thermal Free Energies=         -898.226693

                     E (Thermal)             CV                S
                      KCal/Mol        Cal/Mol-Kelvin    Cal/Mol-Kelvin
 Total                  165.203             49.934            121.091
 Electronic               0.000              0.000              0.000
 Translational            0.889              2.981             41.725
 Rotational               0.889              2.981             31.956
 Vibrational            163.425             43.973             47.409
 Vibration     1          0.593              1.986              6.914
 Vibration     2          0.593              1.985              6.254
 Vibration     3          0.594              1.981              5.191
 Vibration     4          0.598              1.969              4.184
 Vibration     5          0.605              1.944              3.340
 Vibration     6          0.620              1.896              2.603
 Vibration     7          0.627              1.876              2.401
 Vibration     8          0.632              1.858              2.259
 Vibration     9          0.659              1.775              1.782
 Vibration    10          0.675              1.725              1.582
 Vibration    11          0.693              1.674              1.416
 Vibration    12          0.738              1.546              1.104
 Vibration    13          0.743              1.530              1.072
 Vibration    14          0.758              1.491              1.000
 Vibration    15          0.800              1.384              0.828
 Vibration    16          0.865              1.227              0.633
 Vibration    17          0.907              1.136              0.541
 Vibration    18          0.966              1.016              0.437

                           ! Non-Optimized Parameters !
 Normal termination of Gaussian 16 at Sun Dec 13 20:14:52 2020.

 ----------------------------------------------------------------------
 # B3LYP/6-311++G(d,p) empiricaldispersion=gd3bj scf=xqc pop=npa geom=c
 heck
 ----------------------------------------------------------------------

 ---------------------------------------
 CID_115225179_JID_3725_Energie_neutraal
 ---------------------------------------
 Structure from the checkpoint file:  "JID_3725.chk"
 Charge =  0 Multiplicity = 1

 SCF Done:  E(RB3LYP) =  -898.601245534     A.U. after   14 cycles
 Normal termination of Gaussian 16 at Sun Dec 13 20:18:39 2020.

 ----------------------------------------------------------------------
 # B3LYP/6-311++G(d,p) empiricaldispersion=gd3bj scf=xqc pop=npa geom=c
 heck
 ----------------------------------------------------------------------

 -------------------------------------
 CID_115225179_JID_3725_Energie_kation
 -------------------------------------
 Structure from the checkpoint file:  "JID_3725.chk"
 Charge =  1 Multiplicity = 2

 SCF Done:  E(UB3LYP) =  -898.296336633     A.U. after   31 cycles
 Normal termination of Gaussian 16 at Sun Dec 13 20:30:27 2020.
 Gaussian 16:  ES64L-G16RevA.03 25-Dec-2016

 ----------------------------------------------------------------------
 # B3LYP/6-311++G(d,p) empiricaldispersion=gd3bj scf=xqc pop=npa geom=c
 heck
 ----------------------------------------------------------------------

 ------------------------------------
 CID_115225179_JID_3725_Energie_anion
 ------------------------------------
 Structure from the checkpoint file:  "JID_3725.chk"
 Charge = -1 Multiplicity = 2

                         Standard orientation:
 ---------------------------------------------------------------------
 Center     Atomic      Atomic             Coordinates (Angstroms)
 Number     Number       Type             X           Y           Z
 ---------------------------------------------------------------------
      1          6           0       -2.055945    0.206556    1.196448
      2          6           0       -2.501992   -1.113703    1.195010
      3          7           0       -2.732911   -1.822904    0.081993
      4          6           0       -2.516037   -1.199875   -1.081597
      5          6           0       -2.070625    0.118844   -1.186964
      6          6           0       -1.828232    0.856033   -0.023269
      7          6           0       -1.263188    2.255221   -0.071110
      8          6           0        0.245596    2.247658    0.228474
      9          7           0        0.958057    1.491256   -0.792106
     10          6           0        2.376260    1.262331   -0.524201
     11          6           0        2.716703    0.487940    0.763946
     12          6           0        1.952017   -0.826919    0.932510
     13         16           0        2.270071   -2.094173   -0.370490
     14          1           0       -1.888997    0.724480    2.137381
     15          1           0       -2.685207   -1.629972    2.135769
     16          1           0       -2.707371   -1.784695   -1.979719
     17          1           0       -1.912170    0.567293   -2.163847
     18          1           0       -1.427175    2.694567   -1.060454
     19          1           0       -1.766618    2.889313    0.667878
     20          1           0        0.626111    3.277262    0.223474
     21          1           0        0.389345    1.860927    1.253947
     22          1           0        0.490434    0.597108   -0.927227
     23          1           0        2.787024    0.722501   -1.384717
     24          1           0        2.880500    2.236628   -0.498021
     25          1           0        3.794737    0.288096    0.775995
     26          1           0        2.502077    1.109596    1.644150
     27          1           0        2.254019   -1.321247    1.860322
     28          1           0        0.872694   -0.661027    0.999815
     29          1           0        1.566092   -1.507050   -1.361603
 ---------------------------------------------------------------------

 SCF Done:  E(UB3LYP) =  -898.593558538     A.U. after   33 cycles
 SCF Done:  E(UB3LYP) =  -898.593558538     a.u. after    1 cycles

 The electronic state is 2-A.
 Alpha  occ. eigenvalues --  -88.75067 -14.19241 -14.17917 -10.10804 -10.09252
 Alpha  occ. eigenvalues --  -10.08644 -10.08549 -10.08294 -10.07389 -10.06556
 Alpha  occ. eigenvalues --  -10.06079 -10.06057 -10.05765  -7.83743  -5.80116
 Alpha  occ. eigenvalues --   -5.79778  -5.79121  -0.82137  -0.80614  -0.71298
 Alpha  occ. eigenvalues --   -0.70017  -0.64252  -0.64139  -0.61400  -0.55933
 Alpha  occ. eigenvalues --   -0.52486  -0.51241  -0.48221  -0.47068  -0.39437
 Alpha  occ. eigenvalues --   -0.39253  -0.37982  -0.37289  -0.35532  -0.34733
 Alpha  occ. eigenvalues --   -0.33973  -0.32750  -0.31095  -0.30218  -0.28853
 Alpha  occ. eigenvalues --   -0.28135  -0.26843  -0.26411  -0.25457  -0.24705
 Alpha  occ. eigenvalues --   -0.24005  -0.23468  -0.22666  -0.16449  -0.15183
 Alpha  occ. eigenvalues --   -0.14754  -0.14041  -0.12371   0.04587
 Alpha virt. eigenvalues --    0.06657   0.07683   0.07991   0.08190   0.09149
 Alpha virt. eigenvalues --    0.09489   0.09755   0.09955   0.10390   0.10987
 Alpha virt. eigenvalues --    0.11203   0.12098   0.12705   0.13156   0.13649

  Beta  occ. eigenvalues --  -88.75066 -14.19239 -14.17663 -10.10800 -10.09241
  Beta  occ. eigenvalues --  -10.08613 -10.08529 -10.08239 -10.07371 -10.06311
  Beta  occ. eigenvalues --  -10.06084 -10.06058 -10.05742  -7.83742  -5.80116
  Beta  occ. eigenvalues --   -5.79778  -5.79119  -0.81804  -0.80585  -0.71172
  Beta  occ. eigenvalues --   -0.69779  -0.64137  -0.64022  -0.61325  -0.55878
  Beta  occ. eigenvalues --   -0.52300  -0.51162  -0.48106  -0.46948  -0.39374
  Beta  occ. eigenvalues --   -0.39154  -0.37928  -0.37182  -0.35402  -0.34645
  Beta  occ. eigenvalues --   -0.33914  -0.32715  -0.31055  -0.30121  -0.28671
  Beta  occ. eigenvalues --   -0.27744  -0.26717  -0.26289  -0.25413  -0.24558
  Beta  occ. eigenvalues --   -0.23872  -0.23397  -0.22633  -0.15467  -0.14985
  Beta  occ. eigenvalues --   -0.14481  -0.13754  -0.12342
  Beta virt. eigenvalues --    0.06852   0.07810   0.08026   0.08361   0.09223
  Beta virt. eigenvalues --    0.09523   0.09768   0.09904   0.10189   0.10886
  Beta virt. eigenvalues --    0.11161   0.11527   0.12187   0.13076   0.13465

 Mulliken charges and spin densities:
               1          2
     1  C   -0.391655   0.523492
     2  C    0.210953  -0.683361
     3  N   -0.137989   0.120532
     4  C   -0.127316  -0.395089
     5  C   -0.834316   0.912543
     6  C   -0.233331   0.800409
     7  C    1.329882  -2.137431
     8  C    0.789912  -1.070464
     9  N   -0.065560   0.059596
    10  C   -0.776686   0.154388
    11  C    0.569340  -0.674523
    12  C   -0.169187  -0.076290
    13  S   -0.061093  -0.046610
    14  H   -0.629032   0.806196
    15  H    0.064559   0.078176
    16  H    0.118806   0.010831
    17  H    0.016100   0.158710
    18  H    0.056775   0.090614
    19  H   -0.478464   0.670605
    20  H   -0.679360   0.856473
    21  H    0.281889  -0.218715
    22  H    0.235604  -0.006896
    23  H    0.086639   0.073161
    24  H   -0.107068   0.250311
    25  H   -0.092391   0.212545
    26  H   -0.284357   0.462434
    27  H    0.066381   0.183149
    28  H    0.209051  -0.107987
    29  H    0.031913  -0.006800
 Sum of Mulliken charges =  -1.00000   1.00000

 Dipole moment (field-independent basis, Debye):
    X=              2.3925    Y=             -4.1304    Z=             -3.0684  Tot=              5.6745
 Quadrupole moment (field-independent basis, Debye-Ang):
   XX=           -139.6100   YY=           -146.4267   ZZ=           -112.4273
   XY=             -5.0778   XZ=              2.3741   YZ=             -6.7015

 Summary of Natural Population Analysis:

                                       Natural Population
                Natural  -----------------------------------------------
    Atom  No    Charge         Core      Valence    Rydberg      Total
 -----------------------------------------------------------------------
      C    1   -0.12659      0.99950     2.11692    0.01018     3.12659
      C    2    0.02503      0.99959     1.95879    0.01659     2.97497
      N    3   -0.21129      0.99972     2.70030    0.01128     3.71129
      C    4    0.02846      0.99959     1.95760    0.01434     2.97154
      C    5   -0.13638      0.99950     2.12705    0.00983     3.13638
      C    6    0.03473      0.99950     1.95466    0.01111     2.96527
      C    7   -0.20418      0.99960     2.19359    0.01100     3.20418
      C    8   -0.08070      0.99962     2.06900    0.01208     3.08070
      N    9   -0.34450      0.99975     2.83361    0.01114     3.84450
      C   10   -0.08962      0.99962     2.07693    0.01306     3.08962
      C   11   -0.20783      0.99961     2.19841    0.00980     3.20783
      C   12   -0.24937      0.99957     2.23930    0.01050     3.24937
      S   13   -0.03208      4.99967     3.01819    0.01423     8.03208
      H   14    0.10310      0.00000     0.39556    0.00134     0.39690
      H   15    0.08500      0.00000     0.41363    0.00137     0.41500
      H   16    0.08350      0.00000     0.41530    0.00120     0.41650
      H   17    0.10090      0.00000     0.39810    0.00100     0.39910
      H   18    0.10054      0.00000     0.39779    0.00167     0.39946
      H   19    0.11027      0.00000     0.38681    0.00292     0.38973
      H   20    0.09633      0.00000     0.40074    0.00293     0.40367
      H   21    0.07854      0.00000     0.41915    0.00232     0.42146
      H   22    0.17384      0.00000     0.32244    0.00373     0.32616
      H   23    0.09198      0.00000     0.40701    0.00101     0.40802
      H   24    0.09507      0.00000     0.40392    0.00101     0.40493
      H   25    0.09927      0.00000     0.39942    0.00131     0.40073
      H   26    0.10355      0.00000     0.39494    0.00151     0.39645
      H   27    0.10517      0.00000     0.39390    0.00093     0.39483
      H   28    0.11042      0.00000     0.38786    0.00172     0.38958
      H   29    0.05684      0.00000     0.44051    0.00265     0.44316
 =======================================================================
   * Total *   -0.00000     16.99483    35.82144    0.18373    53.00000

 Normal termination of Gaussian 16 at Sun Dec 13 20:43:10 2020.
