 Gaussian 16, Revision A.03,

 -----------------------------------------------------------
 # opt freq B3LYP/6-31G(d) empiricaldispersion=gd3bj scf=xqc
 -----------------------------------------------------------

 -------------------------------
 CID_131098311_JID_4990_neutraal
 -------------------------------
 Symbolic Z-matrix:
 Charge =  0 Multiplicity = 1

 SCF Done:  E(RB3LYP) =  -932.927299677     A.U. after   16 cycles
 SCF Done:  E(RB3LYP) =  -932.933272003     A.U. after   13 cycles
 SCF Done:  E(RB3LYP) =  -932.933844594     A.U. after   12 cycles
 SCF Done:  E(RB3LYP) =  -932.933968043     A.U. after   11 cycles
 SCF Done:  E(RB3LYP) =  -932.933990504     A.U. after   10 cycles
 SCF Done:  E(RB3LYP) =  -932.933995592     A.U. after   10 cycles
 SCF Done:  E(RB3LYP) =  -932.933997046     A.U. after    8 cycles
 SCF Done:  E(RB3LYP) =  -932.933997319     A.U. after    8 cycles
 SCF Done:  E(RB3LYP) =  -932.933997409     A.U. after    7 cycles
 Optimization completed.
    -- Stationary point found.
 Normal termination of Gaussian 16 at Thu Dec 10 11:00:32 2020.

 --------------------------------------------------------------------
 #N Geom=AllCheck Guess=TCheck SCRF=Check GenChk RB3LYP/6-31G(d) Freq
 --------------------------------------------------------------------

 Structure from the checkpoint file:  "JID_4990.chk"
 -------------------------------
 CID_131098311_JID_4990_neutraal
 -------------------------------
 Charge =  0 Multiplicity = 1

 SCF Done:  E(RB3LYP) =  -932.933997409     A.U. after    1 cycles

  Exact polarizability: 229.819   7.744 152.960   1.942  -8.606  65.104
 Approx polarizability: 388.149  23.809 257.758   6.076 -21.260 101.857

                      1                      2                      3
                      A                      A                      A
 Frequencies --     64.9937                73.7664               103.5565
 Red. masses --      2.6439                 8.1394                 4.8770
 Frc consts  --      0.0066                 0.0261                 0.0308
 IR Inten    --      0.5645                 0.3988                 0.5116

                      4                      5                      6
                      A                      A                      A
 Frequencies --    118.6484               150.3152               200.3740
 Red. masses --      6.7991                 4.7256                 1.3940
 Frc consts  --      0.0564                 0.0629                 0.0330
 IR Inten    --      2.1115                 4.1202                 0.4583

                      7                      8                      9
                      A                      A                      A
 Frequencies --    228.1656               268.7124               287.9435
 Red. masses --      5.2900                 2.4774                 1.2176
 Frc consts  --      0.1623                 0.1054                 0.0595
 IR Inten    --      4.6430                 0.9117                20.4120

                     10                     11                     12
                      A                      A                      A
 Frequencies --    292.7944               303.4102               341.9222
 Red. masses --      2.2281                 3.1968                 4.7910
 Frc consts  --      0.1125                 0.1734                 0.3300
 IR Inten    --      6.4864                 1.6232                 1.9013

                     13                     14                     15
                      A                      A                      A
 Frequencies --    404.2654               417.8113               431.6527
 Red. masses --      6.7241                 7.8871                 6.4369
 Frc consts  --      0.6475                 0.8112                 0.7066
 IR Inten    --      0.4927                 0.6800                 0.5281

                     16                     17                     18
                      A                      A                      A
 Frequencies --    496.6866               522.4361               566.3913
 Red. masses --      4.7511                 7.0920                 5.4367
 Frc consts  --      0.6906                 1.1405                 1.0276
 IR Inten    --      4.0709                 1.8931                10.8958

                     19                     20                     21
                      A                      A                      A
 Frequencies --    576.7407               588.9744               628.0288
 Red. masses --      4.9116                 1.6259                 3.7125
 Frc consts  --      0.9626                 0.3323                 0.8627
 IR Inten    --      5.0009               274.7219                 9.4546

                     22                     23                     24
                      A                      A                      A
 Frequencies --    650.4113               654.2066               702.1681
 Red. masses --      3.8204                 2.9034                 4.8941
 Frc consts  --      0.9522                 0.7321                 1.4217
 IR Inten    --     40.5076               107.8491                 4.3424

                     25                     26                     27
                      A                      A                      A
 Frequencies --    722.8354               732.5248               807.4114
 Red. masses --      6.0990                 4.0062                 1.1829
 Frc consts  --      1.8775                 1.2666                 0.4543
 IR Inten    --      6.7320                 4.3580                 1.0435

                     28                     29                     30
                      A                      A                      A
 Frequencies --    830.6414               866.5484               877.2190
 Red. masses --      1.4408                 1.4979                 1.5444
 Frc consts  --      0.5857                 0.6627                 0.7002
 IR Inten    --     10.0141                19.0469                29.1168

                     31                     32                     33
                      A                      A                      A
 Frequencies --    941.9219              1008.7676              1049.8111
 Red. masses --      2.6039                 2.8987                 2.9179
 Frc consts  --      1.3611                 1.7379                 1.8947
 IR Inten    --      1.7578                 1.7783                 0.4460

                     34                     35                     36
                      A                      A                      A
 Frequencies --   1090.3757              1103.2063              1126.3382
 Red. masses --      3.2073                 2.1961                 1.6605
 Frc consts  --      2.2467                 1.5747                 1.2411
 IR Inten    --      3.1567                 6.9662                11.2317

                     37                     38                     39
                      A                      A                      A
 Frequencies --   1133.0555              1146.1024              1208.0388
 Red. masses --      2.1368                 2.2458                 1.5814
 Frc consts  --      1.6163                 1.7381                 1.3598
 IR Inten    --      4.0308                 5.7105                27.4668

                     40                     41                     42
                      A                      A                      A
 Frequencies --   1256.1647              1290.7656              1303.6431
 Red. masses --      1.6354                 1.5227                 1.4376
 Frc consts  --      1.5204                 1.4947                 1.4394
 IR Inten    --     24.9004                15.6175                11.2906

                     43                     44                     45
                      A                      A                      A
 Frequencies --   1367.1035              1389.6768              1397.6194
 Red. masses --      1.5527                 4.7133                 4.0891
 Frc consts  --      1.7098                 5.3630                 4.7060
 IR Inten    --     11.7810                18.8777                31.2599

                     46                     47                     48
                      A                      A                      A
 Frequencies --   1438.8669              1474.3401              1511.1010
 Red. masses --      1.2278                 3.7516                 3.9945
 Frc consts  --      1.4976                 4.8046                 5.3740
 IR Inten    --      2.6189                55.4550                 2.1043

                     49                     50                     51
                      A                      A                      A
 Frequencies --   1520.4643              1527.3465              1539.9591
 Red. masses --      1.0790                 1.0408                 1.0909
 Frc consts  --      1.4697                 1.4305                 1.5242
 IR Inten    --      1.2923                 7.1331                 4.4912

                     52                     53                     54
                      A                      A                      A
 Frequencies --   1579.4676              1622.4194              1664.8066
 Red. masses --      5.9005                 6.9893                 4.2162
 Frc consts  --      8.6728                10.8395                 6.8848
 IR Inten    --     32.2127                 9.8263                70.1413

                     55                     56                     57
                      A                      A                      A
 Frequencies --   1696.3945              2339.7974              3043.3834
 Red. masses --      1.2322                12.6657                 1.0635
 Frc consts  --      2.0892                40.8540                 5.8038
 IR Inten    --    128.5405                74.7305                20.2365

                     58                     59                     60
                      A                      A                      A
 Frequencies --   3056.1356              3086.5634              3126.1718
 Red. masses --      1.0347                 1.1002                 1.1033
 Frc consts  --      5.6938                 6.1753                 6.3528
 IR Inten    --     29.1488                12.9107                32.5017

                     61                     62                     63
                      A                      A                      A
 Frequencies --   3131.9001              3172.5300              3188.9058
 Red. masses --      1.1030                 1.0895                 1.0905
 Frc consts  --      6.3745                 6.4608                 6.5335
 IR Inten    --     31.6201                16.7322                14.5140

                     64                     65                     66
                      A                      A                      A
 Frequencies --   3236.1130              3554.3873              3652.9095
 Red. masses --      1.0938                 1.0479                 1.0982
 Frc consts  --      6.7490                 7.8004                 8.6343
 IR Inten    --      1.5015                17.6651                 9.4557

 - Thermochemistry -
 -------------------
 Temperature   298.150 Kelvin.  Pressure   1.00000 Atm.
 Atom     1 has atomic number  6 and mass  12.00000

 Molecular mass:   202.05647 amu.
 Principal axes and moments of inertia in atomic units:
                           1         2         3
     Eigenvalues --  1841.358044047.661335723.21575
           X            0.99992  -0.01191  -0.00312
           Y            0.01192   0.99992   0.00311
           Z            0.00308  -0.00314   0.99999
 This molecule is an asymmetric top.
 Rotational symmetry number  1.
 Warning -- assumption of classical behavior for rotation
           may cause significant error
 Rotational temperatures (Kelvin)      0.04704     0.02140     0.01513
 Rotational constants (GHZ):           0.98011     0.44587     0.31534
 Zero-point vibrational energy     489799.7 (Joules/Mol)
                                  117.06493 (Kcal/Mol)
 Warning -- explicit consideration of  20 degrees of freedom as
           vibrations may cause significant error
 Vibrational temperatures:     93.51   106.13   148.99   170.71   216.27
          (Kelvin)            288.29   328.28   386.62   414.29   421.27
                              436.54   491.95   581.65   601.14   621.05
                              714.62   751.67   814.91   829.80   847.40
                              903.59   935.80   941.26  1010.26  1040.00
                             1053.94  1161.68  1195.11  1246.77  1262.12
                             1355.22  1451.39  1510.44  1568.81  1587.27
                             1620.55  1630.21  1648.99  1738.10  1807.34
                             1857.12  1875.65  1966.96  1999.43  2010.86
                             2070.21  2121.25  2174.14  2187.61  2197.51
                             2215.66  2272.50  2334.30  2395.29  2440.73
                             3366.45  4378.75  4397.10  4440.88  4497.86
                             4506.11  4564.56  4588.12  4656.04  5113.97
                             5255.72

 Zero-point correction=                           0.186555 (Hartree/Particle)
 Thermal correction to Energy=                    0.199407
 Thermal correction to Enthalpy=                  0.200351
 Thermal correction to Gibbs Free Energy=         0.147314
 Sum of electronic and zero-point Energies=           -932.747443
 Sum of electronic and thermal Energies=              -932.734591
 Sum of electronic and thermal Enthalpies=            -932.733647
 Sum of electronic and thermal Free Energies=         -932.786684

                     E (Thermal)             CV                S
                      KCal/Mol        Cal/Mol-Kelvin    Cal/Mol-Kelvin
 Total                  125.130             49.302            111.626
 Electronic               0.000              0.000              0.000
 Translational            0.889              2.981             41.815
 Rotational               0.889              2.981             32.123
 Vibrational            123.352             43.340             37.688
 Vibration     1          0.597              1.971              4.300
 Vibration     2          0.599              1.966              4.050
 Vibration     3          0.605              1.946              3.386
 Vibration     4          0.609              1.934              3.122
 Vibration     5          0.618              1.902              2.668
 Vibration     6          0.638              1.839              2.130
 Vibration     7          0.651              1.798              1.893
 Vibration     8          0.673              1.731              1.604
 Vibration     9          0.685              1.696              1.486
 Vibration    10          0.688              1.687              1.458
 Vibration    11          0.695              1.667              1.398
 Vibration    12          0.721              1.592              1.203
 Vibration    13          0.769              1.461              0.947
 Vibration    14          0.781              1.432              0.899
 Vibration    15          0.793              1.401              0.853
 Vibration    16          0.852              1.257              0.666
 Vibration    17          0.877              1.200              0.604
 Vibration    18          0.922              1.104              0.511
 Vibration    19          0.933              1.082              0.491
 Vibration    20          0.946              1.055              0.469

                           ! Non-Optimized Parameters !
 Normal termination of Gaussian 16 at Thu Dec 10 11:07:17 2020.

 ----------------------------------------------------------------------
 # B3LYP/6-311++G(d,p) empiricaldispersion=gd3bj scf=xqc pop=npa geom=c
 heck
 ----------------------------------------------------------------------

 ---------------------------------------
 CID_131098311_JID_4990_Energie_neutraal
 ---------------------------------------
 Structure from the checkpoint file:  "JID_4990.chk"
 Charge =  0 Multiplicity = 1

 SCF Done:  E(RB3LYP) =  -933.104214834     A.U. after   16 cycles
 Normal termination of Gaussian 16 at Thu Dec 10 11:10:31 2020.

 ----------------------------------------------------------------------
 # B3LYP/6-311++G(d,p) empiricaldispersion=gd3bj scf=xqc pop=npa geom=c
 heck
 ----------------------------------------------------------------------

 -------------------------------------
 CID_131098311_JID_4990_Energie_kation
 -------------------------------------
 Structure from the checkpoint file:  "JID_4990.chk"
 Charge =  1 Multiplicity = 2

 SCF Done:  E(UB3LYP) =  -932.820779518     A.U. after   27 cycles
 Normal termination of Gaussian 16 at Thu Dec 10 11:18:12 2020.
 Gaussian 16:  ES64L-G16RevA.03 25-Dec-2016

 ----------------------------------------------------------------------
 # B3LYP/6-311++G(d,p) empiricaldispersion=gd3bj scf=xqc pop=npa geom=c
 heck
 ----------------------------------------------------------------------

 ------------------------------------
 CID_131098311_JID_4990_Energie_anion
 ------------------------------------
 Structure from the checkpoint file:  "JID_4990.chk"
 Charge = -1 Multiplicity = 2

                         Standard orientation:
 ---------------------------------------------------------------------
 Center     Atomic      Atomic             Coordinates (Angstroms)
 Number     Number       Type             X           Y           Z
 ---------------------------------------------------------------------
      1          6           0       -1.380225    3.101647    0.832511
      2          6           0       -1.505862    2.325582   -0.489795
      3          6           0       -1.345639    0.835861   -0.302851
      4          6           0       -0.079612    0.244824   -0.164572
      5          6           0        0.068951   -1.147518    0.049196
      6          6           0       -1.068768   -1.966700    0.136543
      7          6           0       -2.333913   -1.398726    0.001949
      8          6           0       -2.448585   -0.004297   -0.217899
      9          7           0       -3.486060   -2.188086    0.016672
     10          6           0        1.446810   -1.527071    0.148735
     11          6           0        2.305481   -0.468486    0.016738
     12         16           0        1.472606    1.065474   -0.236858
     13          6           0        3.719431   -0.513716    0.067890
     14          7           0        4.883113   -0.541765    0.109628
     15          1           0       -2.153419    2.784995    1.540512
     16          1           0       -1.489515    4.178020    0.662249
     17          1           0       -0.406279    2.929385    1.301809
     18          1           0       -2.482600    2.529526   -0.942599
     19          1           0       -0.751638    2.689224   -1.200141
     20          1           0       -0.958512   -3.035716    0.297726
     21          1           0       -3.441770    0.424816   -0.332860
     22          1           0       -3.386209   -3.076954    0.490703
     23          1           0       -4.327949   -1.707433    0.307954
     24          1           0        1.788412   -2.542896    0.309604
 ---------------------------------------------------------------------

 SCF Done:  E(UB3LYP) =  -933.121811368     A.U. after   26 cycles

 The electronic state is 2-A.
 Alpha  occ. eigenvalues --  -88.72652 -14.20861 -14.14802 -10.08324 -10.06290
 Alpha  occ. eigenvalues --  -10.05829 -10.05768 -10.05615 -10.05295 -10.04796
 Alpha  occ. eigenvalues --  -10.04053 -10.02781 -10.02742 -10.02397  -7.81295
 Alpha  occ. eigenvalues --   -5.77627  -5.77274  -5.76811  -0.80541  -0.75706
 Alpha  occ. eigenvalues --   -0.74215  -0.69336  -0.66184  -0.61592  -0.59427
 Alpha  occ. eigenvalues --   -0.57063  -0.52529  -0.49594  -0.45774  -0.44067
 Alpha  occ. eigenvalues --   -0.40627  -0.37622  -0.35835  -0.34068  -0.33392
 Alpha  occ. eigenvalues --   -0.32452  -0.28985  -0.28386  -0.27889  -0.26533
 Alpha  occ. eigenvalues --   -0.25864  -0.25239  -0.24291  -0.23667  -0.21804
 Alpha  occ. eigenvalues --   -0.21377  -0.20530  -0.20017  -0.17829  -0.15519
 Alpha  occ. eigenvalues --   -0.14396  -0.09113  -0.07623   0.03988
 Alpha virt. eigenvalues --    0.06981   0.07904   0.09533   0.10046   0.10857
 Alpha virt. eigenvalues --    0.11646   0.12436   0.12553   0.13051   0.13504
 Alpha virt. eigenvalues --    0.14454   0.14728   0.15150   0.15730   0.16081

  Beta  occ. eigenvalues --  -88.72618 -14.20872 -14.14457 -10.08416 -10.06294
  Beta  occ. eigenvalues --  -10.05766 -10.05548 -10.05461 -10.05308 -10.04735
  Beta  occ. eigenvalues --  -10.04046 -10.02532 -10.02528 -10.02141  -7.81264
  Beta  occ. eigenvalues --   -5.77617  -5.77262  -5.76687  -0.80544  -0.75249
  Beta  occ. eigenvalues --   -0.73864  -0.69020  -0.65996  -0.61284  -0.58883
  Beta  occ. eigenvalues --   -0.56753  -0.52260  -0.49093  -0.45622  -0.43829
  Beta  occ. eigenvalues --   -0.40517  -0.37529  -0.35614  -0.33836  -0.33304
  Beta  occ. eigenvalues --   -0.32363  -0.28832  -0.28135  -0.27662  -0.26180
  Beta  occ. eigenvalues --   -0.25631  -0.25014  -0.23676  -0.23406  -0.21529
  Beta  occ. eigenvalues --   -0.20943  -0.19930  -0.19554  -0.17619  -0.14547
  Beta  occ. eigenvalues --   -0.13309  -0.07277  -0.06684
  Beta virt. eigenvalues --    0.06933   0.07831   0.09322   0.09511   0.10286
  Beta virt. eigenvalues --    0.10872   0.11630   0.12499   0.12845   0.13114
  Beta virt. eigenvalues --    0.13483   0.14535   0.14860   0.15558   0.15902

 Mulliken charges and spin densities:
               1          2
     1  C   -0.578113   0.004424
     2  C   -0.230037  -0.049652
     3  C    0.163977  -0.019104
     4  C   -0.772494   0.063426
     5  C    1.231434  -0.001198
     6  C   -0.639671   0.171382
     7  C   -0.464386  -0.053501
     8  C   -0.331296   0.223345
     9  N   -0.324020  -0.001705
    10  C    0.817213   0.234026
    11  C    1.191374   0.213171
    12  S   -0.928018   0.062873
    13  C   -1.080142  -0.040095
    14  N   -0.348005   0.182689
    15  H    0.126062  -0.000747
    16  H    0.082830   0.006234
    17  H    0.135300  -0.000240
    18  H    0.110827   0.022947
    19  H    0.106376   0.023556
    20  H    0.086584  -0.012246
    21  H    0.098773  -0.018152
    22  H    0.219020   0.000089
    23  H    0.215087   0.004460
    24  H    0.111326  -0.015982
 Sum of Mulliken charges =  -1.00000   1.00000

 Dipole moment (field-independent basis, Debye):
    X=             -9.3690    Y=              0.9001    Z=              1.0949  Tot=              9.4756
 Quadrupole moment (field-independent basis, Debye-Ang):
   XX=           -153.5361   YY=            -98.4796   ZZ=           -101.0189
   XY=              4.8667   XZ=             -5.2844   YZ=             -3.6971

 Summary of Natural Population Analysis:

                                       Natural Population
                Natural  -----------------------------------------------
    Atom  No    Charge         Core      Valence    Rydberg      Total
 -----------------------------------------------------------------------
      C    1   -0.28188      0.99967     2.27806    0.00415     3.28188
      C    2   -0.19543      0.99962     2.18800    0.00780     3.19543
      C    3   -0.01240      0.99936     2.00305    0.00999     3.01240
      C    4   -0.08490      0.99936     2.07483    0.01071     3.08490
      C    5   -0.03509      0.99948     2.02677    0.00884     3.03509
      C    6   -0.08306      0.99949     2.07562    0.00795     3.08306
      C    7    0.05848      0.99951     1.93200    0.01000     2.94152
      C    8   -0.07571      0.99943     2.06742    0.00886     3.07571
      N    9   -0.40747      0.99972     2.89783    0.00992     3.90747
      C   10   -0.05036      0.99947     2.04284    0.00806     3.05036
      C   11   -0.09679      0.99936     2.08235    0.01508     3.09679
      S   12    0.18569      4.99946     2.79462    0.02023     7.81431
      C   13    0.13289      0.99962     1.85047    0.01701     2.86711
      N   14   -0.15736      0.99979     2.64632    0.01126     3.65736
      H   15    0.09422      0.00000     0.40472    0.00107     0.40578
      H   16    0.08904      0.00000     0.40994    0.00102     0.41096
      H   17    0.10312      0.00000     0.39582    0.00106     0.39688
      H   18    0.09237      0.00000     0.40583    0.00180     0.40763
      H   19    0.09893      0.00000     0.39910    0.00197     0.40107
      H   20    0.08783      0.00000     0.41058    0.00160     0.41217
      H   21    0.08425      0.00000     0.41393    0.00182     0.41575
      H   22    0.17823      0.00000     0.32032    0.00145     0.32177
      H   23    0.17782      0.00000     0.32061    0.00156     0.32218
      H   24    0.09756      0.00000     0.40147    0.00097     0.40244
 =======================================================================
   * Total *    0.00001     17.99332    34.84250    0.16417    52.99999

 Normal termination of Gaussian 16 at Thu Dec 10 11:25:50 2020.
