 Gaussian 16, Revision A.03,

 -----------------------------------------------------------
 # opt freq B3LYP/6-31G(d) empiricaldispersion=gd3bj scf=xqc
 -----------------------------------------------------------

 ------------------------------
 CID_87851942_JID_6844_neutraal
 ------------------------------
 Symbolic Z-matrix:
 Charge =  0 Multiplicity = 1

 SCF Done:  E(RB3LYP) =  -766.677955402     A.U. after   15 cycles
 SCF Done:  E(RB3LYP) =  -766.681009999     A.U. after   13 cycles
 SCF Done:  E(RB3LYP) =  -766.680363742     A.U. after   13 cycles
 SCF Done:  E(RB3LYP) =  -766.682282401     A.U. after   13 cycles
 SCF Done:  E(RB3LYP) =  -766.682417171     A.U. after   12 cycles
 SCF Done:  E(RB3LYP) =  -766.682440206     A.U. after   11 cycles
 SCF Done:  E(RB3LYP) =  -766.682442431     A.U. after    9 cycles
 SCF Done:  E(RB3LYP) =  -766.682443816     A.U. after    9 cycles
 SCF Done:  E(RB3LYP) =  -766.682447149     A.U. after   10 cycles
 SCF Done:  E(RB3LYP) =  -766.682449153     A.U. after   10 cycles
 SCF Done:  E(RB3LYP) =  -766.682586761     A.U. after   10 cycles
 SCF Done:  E(RB3LYP) =  -766.682586958     A.U. after    7 cycles
 SCF Done:  E(RB3LYP) =  -766.682586983     A.U. after    7 cycles
 SCF Done:  E(RB3LYP) =  -766.682586985     A.U. after    7 cycles
 SCF Done:  E(RB3LYP) =  -766.682586983     A.U. after    7 cycles
 Optimization completed.
    -- Stationary point found.
 Normal termination of Gaussian 16 at Fri Dec 11 01:04:50 2020.

 --------------------------------------------------------------------
 #N Geom=AllCheck Guess=TCheck SCRF=Check GenChk RB3LYP/6-31G(d) Freq
 --------------------------------------------------------------------

 Structure from the checkpoint file:  "JID_6844.chk"
 ------------------------------
 CID_87851942_JID_6844_neutraal
 ------------------------------
 Charge =  0 Multiplicity = 1

 SCF Done:  E(RB3LYP) =  -766.682586983     A.U. after    1 cycles

  Exact polarizability: 172.513 -10.685 138.905  13.459  12.067  94.210
 Approx polarizability: 226.746  -9.600 228.131  32.903  22.904 145.233

                      1                      2                      3
                      A                      A                      A
 Frequencies --     14.1563                24.4514                40.2071
 Red. masses --      6.4486                 7.3985                 4.1188
 Frc consts  --      0.0008                 0.0026                 0.0039
 IR Inten    --      0.4048                 1.4741                 0.6451

                      4                      5                      6
                      A                      A                      A
 Frequencies --     61.5947                83.3499                98.6126
 Red. masses --      4.0590                 4.7100                 4.6311
 Frc consts  --      0.0091                 0.0193                 0.0265
 IR Inten    --      1.7490                 0.9900                 0.4955

                      7                      8                      9
                      A                      A                      A
 Frequencies --    123.0163               146.8566               182.8167
 Red. masses --      3.0407                 3.0616                 4.2805
 Frc consts  --      0.0271                 0.0389                 0.0843
 IR Inten    --      0.2760                 0.1735                 0.5180

                     10                     11                     12
                      A                      A                      A
 Frequencies --    213.9755               226.4672               252.6980
 Red. masses --      2.6865                 2.2487                 2.3220
 Frc consts  --      0.0725                 0.0679                 0.0874
 IR Inten    --      3.8150                 7.0523                 0.0841

                     13                     14                     15
                      A                      A                      A
 Frequencies --    320.6689               331.2170               345.6637
 Red. masses --      2.5553                 3.6482                 2.7499
 Frc consts  --      0.1548                 0.2358                 0.1936
 IR Inten    --     10.0944                 2.8168                17.3101

                     16                     17                     18
                      A                      A                      A
 Frequencies --    369.6072               415.2474               431.1256
 Red. masses --      3.0880                 3.3925                 3.3564
 Frc consts  --      0.2485                 0.3447                 0.3676
 IR Inten    --      7.2022                 8.2313                 1.3406

                     19                     20                     21
                      A                      A                      A
 Frequencies --    460.8172               487.0155               531.6299
 Red. masses --      3.4174                 4.2300                 4.7316
 Frc consts  --      0.4276                 0.5911                 0.7879
 IR Inten    --      0.7294                 5.0346                 3.7764

                     22                     23                     24
                      A                      A                      A
 Frequencies --    596.2383               685.6695               710.8572
 Red. masses --      3.7272                 5.8370                 2.3152
 Frc consts  --      0.7807                 1.6169                 0.6893
 IR Inten    --      8.9365                 4.3463                11.5715

                     25                     26                     27
                      A                      A                      A
 Frequencies --    758.0465               771.0090               795.7870
 Red. masses --      3.5712                 2.3377                 4.7543
 Frc consts  --      1.2091                 0.8187                 1.7739
 IR Inten    --     30.5320                 5.3373                 1.5808

                     28                     29                     30
                      A                      A                      A
 Frequencies --    828.2336               829.8347               844.1258
 Red. masses --      1.7647                 1.7770                 2.2857
 Frc consts  --      0.7132                 0.7210                 0.9596
 IR Inten    --      5.8740                 6.3273                 7.6826

                     31                     32                     33
                      A                      A                      A
 Frequencies --    886.0102               914.4972               928.4952
 Red. masses --      2.9928                 2.6157                 1.4840
 Frc consts  --      1.3842                 1.2889                 0.7538
 IR Inten    --      3.9546                 3.0215                 2.9715

                     34                     35                     36
                      A                      A                      A
 Frequencies --    950.6274               994.6927               998.6352
 Red. masses --      1.4030                 1.4058                 2.1895
 Frc consts  --      0.7470                 0.8195                 1.2865
 IR Inten    --      0.9896                 0.9796                 2.4355

                     37                     38                     39
                      A                      A                      A
 Frequencies --   1021.7939              1024.9308              1035.4508
 Red. masses --      2.9144                 4.7136                 1.6519
 Frc consts  --      1.7928                 2.9173                 1.0435
 IR Inten    --      6.8669                 6.1656                 0.5897

                     40                     41                     42
                      A                      A                      A
 Frequencies --   1044.6954              1087.9110              1120.9744
 Red. masses --      3.1898                 1.9758                 2.1599
 Frc consts  --      2.0511                 1.3778                 1.5991
 IR Inten    --     30.0534                 0.6855                66.7671

                     43                     44                     45
                      A                      A                      A
 Frequencies --   1131.1688              1144.4568              1203.2622
 Red. masses --      1.7645                 2.0436                 1.1812
 Frc consts  --      1.3302                 1.5771                 1.0076
 IR Inten    --     41.2264                77.7349                14.7914

                     46                     47                     48
                      A                      A                      A
 Frequencies --   1211.4242              1225.0047              1232.5011
 Red. masses --      1.6996                 6.2440                 1.8263
 Frc consts  --      1.4696                 5.5206                 1.6345
 IR Inten    --      9.2983               408.4070               174.3330

                     49                     50                     51
                      A                      A                      A
 Frequencies --   1238.8566              1284.4374              1315.1119
 Red. masses --      1.5407                 1.1775                 3.5717
 Frc consts  --      1.3931                 1.1445                 3.6396
 IR Inten    --     38.1580                10.3023               410.5794

                     52                     53                     54
                      A                      A                      A
 Frequencies --   1342.7317              1349.0533              1374.4365
 Red. masses --      1.1512                 1.3134                 5.3191
 Frc consts  --      1.2229                 1.4083                 5.9202
 IR Inten    --      3.3194                30.1308                 4.7052

                     55                     56                     57
                      A                      A                      A
 Frequencies --   1389.3288              1415.5771              1419.0683
 Red. masses --      1.5223                 1.3531                 1.1695
 Frc consts  --      1.7312                 1.5975                 1.3876
 IR Inten    --      6.9948                12.7087                 5.6663

                     58                     59                     60
                      A                      A                      A
 Frequencies --   1420.5109              1444.1080              1486.0913
 Red. masses --      1.3034                 1.3335                 2.9744
 Frc consts  --      1.5496                 1.6385                 3.8703
 IR Inten    --     16.6270                 9.4517                 5.2204

                     61                     62                     63
                      A                      A                      A
 Frequencies --   1508.3898              1515.5268              1518.7485
 Red. masses --      1.1074                 1.0543                 1.0801
 Frc consts  --      1.4844                 1.4267                 1.4679
 IR Inten    --      5.6595                13.0323                 5.7795

                     64                     65                     66
                      A                      A                      A
 Frequencies --   1531.6103              1537.8902              1539.8192
 Red. masses --      1.1540                 1.1728                 1.7993
 Frc consts  --      1.5950                 1.6342                 2.5135
 IR Inten    --      5.5466                 7.2364                 8.5809

                     67                     68                     69
                      A                      A                      A
 Frequencies --   1648.9304              1666.7777              1796.6343
 Red. masses --      5.7624                 5.8280                11.5718
 Frc consts  --      9.2311                 9.5396                22.0075
 IR Inten    --     18.5565                 3.7472               228.8272

                     70                     71                     72
                      A                      A                      A
 Frequencies --   1830.2556              3058.6247              3061.8286
 Red. masses --      9.1712                 1.0603                 1.0363
 Frc consts  --     18.1009                 5.8445                 5.7240
 IR Inten    --    305.3739                16.8939                19.2970

                     73                     74                     75
                      A                      A                      A
 Frequencies --   3067.6832              3077.5318              3094.5900
 Red. masses --      1.0912                 1.0602                 1.0589
 Frc consts  --      6.0504                 5.9164                 5.9746
 IR Inten    --     66.4639                18.5269                28.4800

                     76                     77                     78
                      A                      A                      A
 Frequencies --   3100.6988              3127.5016              3131.7835
 Red. masses --      1.1028                 1.1019                 1.1083
 Frc consts  --      6.2469                 6.3504                 6.4047
 IR Inten    --     14.4534                27.0660                28.9159

                     79                     80                     81
                      A                      A                      A
 Frequencies --   3141.0028              3160.2405              3193.7607
 Red. masses --      1.1043                 1.1072                 1.0871
 Frc consts  --      6.4190                 6.5148                 6.5332
 IR Inten    --      7.9969                25.9933                 7.6177

                     82                     83                     84
                      A                      A                      A
 Frequencies --   3210.0131              3217.3811              3230.9345
 Red. masses --      1.0934                 1.0902                 1.0932
 Frc consts  --      6.6381                 6.6493                 6.7240
 IR Inten    --     16.6058                 2.2948                 4.0655

 - Thermochemistry -
 -------------------
 Temperature   298.150 Kelvin.  Pressure   1.00000 Atm.
 Atom     1 has atomic number  6 and mass  12.00000

 Molecular mass:   222.08921 amu.
 Principal axes and moments of inertia in atomic units:
                           1         2         3
     Eigenvalues --  1848.174468028.396288807.46807
           X            0.99988  -0.01565   0.00161
           Y            0.01558   0.99932   0.03356
           Z           -0.00213  -0.03353   0.99944
 This molecule is an asymmetric top.
 Rotational symmetry number  1.
 Warning -- assumption of classical behavior for rotation
           may cause significant error
 Rotational temperatures (Kelvin)      0.04686     0.01079     0.00983
 Rotational constants (GHZ):           0.97650     0.22479     0.20491
 Zero-point vibrational energy     643501.2 (Joules/Mol)
                                  153.80047 (Kcal/Mol)
 Warning -- explicit consideration of  22 degrees of freedom as
           vibrations may cause significant error
 Vibrational temperatures:     20.37    35.18    57.85    88.62   119.92
          (Kelvin)            141.88   176.99   211.29   263.03   307.86
                              325.84   363.58   461.37   476.55   497.33
                              531.78   597.45   620.29   663.01   700.71
                              764.90   857.85   986.53  1022.76  1090.66
                             1109.31  1144.96  1191.64  1193.95  1214.51
                             1274.77  1315.76  1335.90  1367.74  1431.14
                             1436.81  1470.13  1474.65  1489.78  1503.08
                             1565.26  1612.83  1627.50  1646.62  1731.23
                             1742.97  1762.51  1773.29  1782.44  1848.02
                             1892.15  1931.89  1940.99  1977.51  1998.93
                             2036.70  2041.72  2043.80  2077.75  2138.15
                             2170.24  2180.50  2185.14  2203.65  2212.68
                             2215.46  2372.44  2398.12  2584.96  2633.33
                             4400.68  4405.29  4413.71  4427.88  4452.42
                             4461.21  4499.78  4505.94  4519.20  4546.88
                             4595.11  4618.49  4629.09  4648.59

 Zero-point correction=                           0.245097 (Hartree/Particle)
 Thermal correction to Energy=                    0.260675
 Thermal correction to Enthalpy=                  0.261619
 Thermal correction to Gibbs Free Energy=         0.198800
 Sum of electronic and zero-point Energies=           -766.437490
 Sum of electronic and thermal Energies=              -766.421912
 Sum of electronic and thermal Enthalpies=            -766.420968
 Sum of electronic and thermal Free Energies=         -766.483787

                     E (Thermal)             CV                S
                      KCal/Mol        Cal/Mol-Kelvin    Cal/Mol-Kelvin
 Total                  163.576             56.281            132.214
 Electronic               0.000              0.000              0.000
 Translational            0.889              2.981             42.096
 Rotational               0.889              2.981             33.235
 Vibrational            161.798             50.319             56.882
 Vibration     1          0.593              1.986              7.321
 Vibration     2          0.593              1.985              6.235
 Vibration     3          0.594              1.981              5.249
 Vibration     4          0.597              1.973              4.405
 Vibration     5          0.600              1.961              3.810
 Vibration     6          0.604              1.950              3.482
 Vibration     7          0.610              1.930              3.052
 Vibration     8          0.617              1.906              2.713
 Vibration     9          0.630              1.863              2.299
 Vibration    10          0.644              1.820              2.009
 Vibration    11          0.650              1.801              1.907
 Vibration    12          0.664              1.758              1.712
 Vibration    13          0.706              1.634              1.307
 Vibration    14          0.714              1.613              1.254
 Vibration    15          0.724              1.584              1.186
 Vibration    16          0.742              1.535              1.081
 Vibration    17          0.779              1.437              0.908
 Vibration    18          0.792              1.402              0.855
 Vibration    19          0.819              1.337              0.764
 Vibration    20          0.843              1.279              0.691
 Vibration    21          0.887              1.180              0.584
 Vibration    22          0.954              1.040              0.456

 Optimization completed.
    -- Stationary point found.
 Normal termination of Gaussian 16 at Fri Dec 11 01:13:07 2020.

 ----------------------------------------------------------------------
 # B3LYP/6-311++G(d,p) empiricaldispersion=gd3bj scf=xqc pop=npa geom=c
 heck
 ----------------------------------------------------------------------

 --------------------------------------
 CID_87851942_JID_6844_Energie_neutraal
 --------------------------------------
 Structure from the checkpoint file:  "JID_6844.chk"
 Charge =  0 Multiplicity = 1

 SCF Done:  E(RB3LYP) =  -766.901371245     A.U. after   15 cycles
 Normal termination of Gaussian 16 at Fri Dec 11 01:16:32 2020.

 ----------------------------------------------------------------------
 # B3LYP/6-311++G(d,p) empiricaldispersion=gd3bj scf=xqc pop=npa geom=c
 heck
 ----------------------------------------------------------------------

 ------------------------------------
 CID_87851942_JID_6844_Energie_kation
 ------------------------------------
 Structure from the checkpoint file:  "JID_6844.chk"
 Charge =  1 Multiplicity = 2

 SCF Done:  E(UB3LYP) =  -766.570143829     A.U. after   30 cycles
 Normal termination of Gaussian 16 at Fri Dec 11 01:26:01 2020.
 Gaussian 16:  ES64L-G16RevA.03 25-Dec-2016

 ----------------------------------------------------------------------
 # B3LYP/6-311++G(d,p) empiricaldispersion=gd3bj scf=xqc pop=npa geom=c
 heck
 ----------------------------------------------------------------------

 -----------------------------------
 CID_87851942_JID_6844_Energie_anion
 -----------------------------------
 Structure from the checkpoint file:  "JID_6844.chk"
 Charge = -1 Multiplicity = 2

                         Standard orientation:
 ---------------------------------------------------------------------
 Center     Atomic      Atomic             Coordinates (Angstroms)
 Number     Number       Type             X           Y           Z
 ---------------------------------------------------------------------
      1          6           0        5.065192   -1.213935   -0.592823
      2          6           0        4.030030   -1.569102    0.462378
      3          8           0        2.736475   -1.013828    0.133646
      4          6           0        2.536973    0.279409    0.477237
      5          8           0        3.369350    0.959757    1.046331
      6          6           0        1.186245    0.765712    0.083893
      7          6           0        0.850654    2.088496    0.393546
      8          6           0       -0.401448    2.582522    0.039710
      9          6           0       -1.316883    1.762891   -0.621160
     10          6           0       -0.993941    0.437404   -0.939574
     11          6           0        0.263860   -0.051352   -0.580401
     12          6           0       -2.000584   -0.464472   -1.617353
     13          6           0       -2.956171   -1.132389   -0.634092
     14          8           0       -3.765911   -0.092743   -0.036797
     15          6           0       -4.548178   -0.476053    0.983880
     16          8           0       -4.641985   -1.595497    1.423162
     17          1           0        4.736135   -1.541864   -1.584172
     18          1           0        6.016141   -1.707777   -0.363243
     19          1           0        5.233264   -0.134090   -0.613157
     20          1           0        3.855697   -2.646543    0.509737
     21          1           0        4.328254   -1.204269    1.448016
     22          1           0        1.581136    2.705480    0.905112
     23          1           0       -0.666779    3.608734    0.276593
     24          1           0       -2.295531    2.149003   -0.890280
     25          1           0        0.538287   -1.073630   -0.818174
     26          1           0       -2.588855    0.097746   -2.351796
     27          1           0       -1.481891   -1.261500   -2.163125
     28          1           0       -3.617974   -1.845408   -1.136201
     29          1           0       -2.417824   -1.661614    0.157044
     30          1           0       -5.097982    0.399443    1.361461
 ---------------------------------------------------------------------

 SCF Done:  E(UB3LYP) =  -766.903276018     A.U. after   33 cycles
 SCF Done:  E(UB3LYP) =  -766.903276018     a.u. after    1 cycles

 The electronic state is 2-A.
 Alpha  occ. eigenvalues --  -19.08167 -19.03449 -19.02235 -18.94652 -10.21575
 Alpha  occ. eigenvalues --  -10.13026 -10.12937 -10.11203 -10.06779 -10.05937
 Alpha  occ. eigenvalues --  -10.04314 -10.03356 -10.03039 -10.02434 -10.02358
 Alpha  occ. eigenvalues --  -10.02120  -1.02150  -0.95937  -0.94049  -0.86628
 Alpha  occ. eigenvalues --   -0.72462  -0.68429  -0.65886  -0.61682  -0.61160
 Alpha  occ. eigenvalues --   -0.55489  -0.54252  -0.49418  -0.48220  -0.45309
 Alpha  occ. eigenvalues --   -0.44254  -0.42326  -0.40339  -0.39018  -0.38271
 Alpha  occ. eigenvalues --   -0.35747  -0.35044  -0.33675  -0.32439  -0.32288
 Alpha  occ. eigenvalues --   -0.31284  -0.30703  -0.29300  -0.29020  -0.27670
 Alpha  occ. eigenvalues --   -0.26853  -0.26836  -0.25688  -0.25520  -0.22534
 Alpha  occ. eigenvalues --   -0.22030  -0.21749  -0.21206  -0.20336  -0.20093
 Alpha  occ. eigenvalues --   -0.17090  -0.13036  -0.12101  -0.11540   0.04841
 Alpha virt. eigenvalues --    0.06829   0.07264   0.07891   0.08275   0.09333
 Alpha virt. eigenvalues --    0.09817   0.10127   0.10403   0.11507   0.11952
 Alpha virt. eigenvalues --    0.12086   0.12497   0.12893   0.13724   0.14316

  Beta  occ. eigenvalues --  -19.08165 -19.03447 -19.02173 -18.94383 -10.21571
  Beta  occ. eigenvalues --  -10.12920 -10.12771 -10.11206 -10.06768 -10.05916
  Beta  occ. eigenvalues --  -10.04354 -10.03414 -10.02937 -10.02261 -10.02189
  Beta  occ. eigenvalues --  -10.01776  -1.02144  -0.95673  -0.94045  -0.86211
  Beta  occ. eigenvalues --   -0.72202  -0.68294  -0.65778  -0.61408  -0.60797
  Beta  occ. eigenvalues --   -0.55325  -0.54043  -0.49344  -0.47681  -0.45223
  Beta  occ. eigenvalues --   -0.44223  -0.42156  -0.40273  -0.39001  -0.38186
  Beta  occ. eigenvalues --   -0.35623  -0.34703  -0.33397  -0.32321  -0.32122
  Beta  occ. eigenvalues --   -0.31093  -0.30615  -0.29177  -0.28825  -0.27547
  Beta  occ. eigenvalues --   -0.26774  -0.26214  -0.25612  -0.25212  -0.22473
  Beta  occ. eigenvalues --   -0.21844  -0.21045  -0.21019  -0.20315  -0.19984
  Beta  occ. eigenvalues --   -0.16175  -0.12757  -0.11148  -0.10099
  Beta virt. eigenvalues --    0.07092   0.07260   0.07818   0.08227   0.09405
  Beta virt. eigenvalues --    0.09697   0.10065   0.10410   0.10640   0.11444
  Beta virt. eigenvalues --    0.11957   0.12232   0.12621   0.12913   0.13646

 Mulliken charges and spin densities:
               1          2
     1  C    0.025548  -0.355944
     2  C   -0.311240   0.129230
     3  O   -0.016966   0.010859
     4  C   -0.283656   0.059197
     5  O   -0.360305   0.099734
     6  C    0.749195   0.030880
     7  C   -0.577447   0.136716
     8  C   -0.448477  -0.057407
     9  C   -0.375234   0.437818
    10  C    0.733308   0.311310
    11  C   -0.563824  -0.173031
    12  C   -0.338651  -0.196630
    13  C   -0.094894  -0.476740
    14  O   -0.032666   0.010504
    15  C    0.168828  -0.026077
    16  O   -0.302885   0.003857
    17  H    0.085129   0.042972
    18  H   -0.084631   0.195068
    19  H    0.087207   0.089316
    20  H    0.087025   0.044371
    21  H    0.171651  -0.011117
    22  H    0.155599  -0.011410
    23  H    0.109066   0.011860
    24  H    0.082758   0.026140
    25  H    0.167264   0.006724
    26  H   -0.116805   0.298949
    27  H    0.132133   0.024486
    28  H   -0.116388   0.282872
    29  H    0.166662   0.050805
    30  H    0.102696   0.004688
 Sum of Mulliken charges =  -1.00000   1.00000

 Dipole moment (field-independent basis, Debye):
    X=             -2.6618    Y=             -1.4642    Z=             -0.5430  Tot=              3.0861
 Quadrupole moment (field-independent basis, Debye-Ang):
   XX=           -157.1193   YY=           -116.4935   ZZ=           -113.4105
   XY=            -14.5242   XZ=             -3.6498   YZ=              2.7713

 Summary of Natural Population Analysis:

                                       Natural Population
                Natural  -----------------------------------------------
    Atom  No    Charge         Core      Valence    Rydberg      Total
 -----------------------------------------------------------------------
      C    1   -0.29868      0.99966     2.29450    0.00452     3.29868
      C    2   -0.01872      0.99959     2.00599    0.01314     3.01872
      O    3   -0.28533      0.99986     3.27763    0.00784     4.28533
      C    4    0.43146      0.99963     1.54558    0.02333     2.56854
      O    5   -0.30487      0.99987     3.29993    0.00507     4.30487
      C    6   -0.05241      0.99946     2.04159    0.01137     3.05241
      C    7   -0.04928      0.99954     2.04184    0.00791     3.04928
      C    8   -0.12314      0.99957     2.11531    0.00826     3.12314
      C    9   -0.03505      0.99952     2.02563    0.00990     3.03505
      C   10   -0.04396      0.99950     2.03364    0.01081     3.04396
      C   11   -0.06505      0.99949     2.05836    0.00720     3.06505
      C   12   -0.20462      0.99959     2.19358    0.01144     3.20462
      C   13   -0.01442      0.99956     2.00283    0.01202     3.01442
      O   14   -0.27113      0.99987     3.26241    0.00885     4.27113
      C   15    0.33606      0.99978     1.64005    0.02410     2.66394
      O   16   -0.30056      0.99988     3.29457    0.00611     4.30056
      H   17    0.09615      0.00000     0.40241    0.00144     0.40385
      H   18    0.09375      0.00000     0.40481    0.00144     0.40625
      H   19    0.10857      0.00000     0.38990    0.00153     0.39143
      H   20    0.08230      0.00000     0.41657    0.00113     0.41770
      H   21    0.09377      0.00000     0.40481    0.00142     0.40623
      H   22    0.10334      0.00000     0.39573    0.00092     0.39666
      H   23    0.08994      0.00000     0.40864    0.00142     0.41006
      H   24    0.08920      0.00000     0.40924    0.00156     0.41080
      H   25    0.09942      0.00000     0.39949    0.00109     0.40058
      H   26    0.10241      0.00000     0.39615    0.00144     0.39759
      H   27    0.10297      0.00000     0.39612    0.00091     0.39703
      H   28    0.08805      0.00000     0.41040    0.00155     0.41195
      H   29    0.09645      0.00000     0.40248    0.00107     0.40355
      H   30    0.05337      0.00000     0.44507    0.00156     0.44663
 =======================================================================
   * Total *   -0.00000     15.99439    42.81527    0.19034    59.00000

 Normal termination of Gaussian 16 at Fri Dec 11 01:36:20 2020.
