 Gaussian 16, Revision A.03,

 -----------------------------------------------------------
 # opt freq B3LYP/6-31G(d) empiricaldispersion=gd3bj scf=xqc
 -----------------------------------------------------------

 -------------------------------
 CID_146838561_JID_1519_neutraal
 -------------------------------
 Symbolic Z-matrix:
 Charge =  0 Multiplicity = 1

 SCF Done:  E(RB3LYP) =  -504.280655093     A.U. after   13 cycles
 SCF Done:  E(RB3LYP) =  -504.282930581     A.U. after   10 cycles
 SCF Done:  E(RB3LYP) =  -504.282971819     A.U. after   11 cycles
 SCF Done:  E(RB3LYP) =  -504.283450441     A.U. after   10 cycles
 SCF Done:  E(RB3LYP) =  -504.283507583     A.U. after   10 cycles
 SCF Done:  E(RB3LYP) =  -504.283517671     A.U. after   10 cycles
 SCF Done:  E(RB3LYP) =  -504.283519901     A.U. after    8 cycles
 SCF Done:  E(RB3LYP) =  -504.283521429     A.U. after    7 cycles
 SCF Done:  E(RB3LYP) =  -504.283521842     A.U. after    7 cycles
 SCF Done:  E(RB3LYP) =  -504.283521956     A.U. after    7 cycles
 SCF Done:  E(RB3LYP) =  -504.283521978     A.U. after    6 cycles
 Optimization completed.
    -- Stationary point found.

 1\1\GINC-NODE201\FOpt\RB3LYP\6-31G(d)\C9H18O2\VSC10255\08-Dec-2020\0\\
 # opt freq B3LYP/6-31G(d) empiricaldispersion=gd3bj scf=xqc\\CID_14683
 8561_JID_1519_neutraal\\0,1\C,0.9948122354,-0.0456596865,0.1535779612\
 C,0.1547548994,1.2193834735,-0.0804832063\C,-0.8438385212,1.5259865307
 ,1.0569904116\C,-0.2055467223,2.1532628508,2.3139124533\C,0.7011454843
 ,3.3095033278,1.8664249625\O,1.6463771628,2.8933735096,0.893083134\C,1
 .0172489746,2.4741585513,-0.3227310535\C,2.119938158,2.3028487248,-1.3
 553161804\C,0.5538411385,1.152515914,3.2142287355\C,0.8043341285,1.707

 Normal termination of Gaussian 16 at Tue Dec  8 19:44:05 2020.

 --------------------------------------------------------------------
 #N Geom=AllCheck Guess=TCheck SCRF=Check GenChk RB3LYP/6-31G(d) Freq
 --------------------------------------------------------------------

 Structure from the checkpoint file:  "JID_1519.chk"
 -------------------------------
 CID_146838561_JID_1519_neutraal
 -------------------------------
 Charge =  0 Multiplicity = 1

 SCF Done:  E(RB3LYP) =  -504.283521978     A.U. after    1 cycles

  Exact polarizability: 112.081   2.933  94.956  -1.018  -0.775  88.938
 Approx polarizability: 138.318   1.512 134.733  -1.726   0.155 135.055

                      1                      2                      3
                      A                      A                      A
 Frequencies --     59.2347                78.5379               123.2030
 Red. masses --      3.3935                 3.0378                 2.4980
 Frc consts  --      0.0070                 0.0110                 0.0223
 IR Inten    --      1.3031                 0.3246                 1.0219

                      4                      5                      6
                      A                      A                      A
 Frequencies --    199.3819               219.5178               239.4867
 Red. masses --      1.6519                 2.1172                 1.0825
 Frc consts  --      0.0387                 0.0601                 0.0366
 IR Inten    --      1.1611                 0.0068                 0.4975

                      7                      8                      9
                      A                      A                      A
 Frequencies --    252.8260               267.4232               287.3199
 Red. masses --      1.5459                 2.0224                 1.9787
 Frc consts  --      0.0582                 0.0852                 0.0962
 IR Inten    --      0.6884                 0.0503                 0.2319

                     10                     11                     12
                      A                      A                      A
 Frequencies --    313.9622               316.1235               341.6779
 Red. masses --      2.7263                 1.1288                 2.2912
 Frc consts  --      0.1583                 0.0665                 0.1576
 IR Inten    --      7.6389                93.6478                12.3637

                     13                     14                     15
                      A                      A                      A
 Frequencies --    382.4159               409.7661               445.6463
 Red. masses --      2.2545                 1.9304                 2.9661
 Frc consts  --      0.1943                 0.1910                 0.3471
 IR Inten    --      4.8995                 1.6487                 5.3861

                     16                     17                     18
                      A                      A                      A
 Frequencies --    457.4659               525.3066               546.4193
 Red. masses --      3.5485                 3.0629                 3.5175
 Frc consts  --      0.4375                 0.4980                 0.6188
 IR Inten    --     22.6026                 8.8697                 6.4916

                     19                     20                     21
                      A                      A                      A
 Frequencies --    623.7374               727.9516               764.6524
 Red. masses --      3.0328                 3.0090                 2.4872
 Frc consts  --      0.6952                 0.9395                 0.8568
 IR Inten    --      0.3934                 3.8286                 3.0512

                     22                     23                     24
                      A                      A                      A
 Frequencies --    836.5408               853.7044               897.3250
 Red. masses --      2.5036                 2.4061                 1.8970
 Frc consts  --      1.0322                 1.0332                 0.9000
 IR Inten    --      2.3085                 6.1516                13.5064

                     25                     26                     27
                      A                      A                      A
 Frequencies --    900.6535               948.3434               967.2231
 Red. masses --      2.2271                 1.9373                 1.7090
 Frc consts  --      1.0644                 1.0266                 0.9420
 IR Inten    --      3.2432                10.5637                 1.9517

                     28                     29                     30
                      A                      A                      A
 Frequencies --    976.5279              1017.8263              1036.6916
 Red. masses --      1.8796                 1.3623                 1.7490
 Frc consts  --      1.0560                 0.8315                 1.1075
 IR Inten    --      5.6079                17.3756                 3.0071

                     31                     32                     33
                      A                      A                      A
 Frequencies --   1066.0446              1080.5479              1104.4286
 Red. masses --      2.2401                 1.6299                 1.8142
 Frc consts  --      1.4999                 1.1212                 1.3038
 IR Inten    --     41.9837                12.2994                19.3746

                     34                     35                     36
                      A                      A                      A
 Frequencies --   1115.9390              1118.8779              1139.2094
 Red. masses --      2.6733                 1.9389                 2.0919
 Frc consts  --      1.9614                 1.4301                 1.5996
 IR Inten    --     94.7038                35.3740                26.0158

                     37                     38                     39
                      A                      A                      A
 Frequencies --   1168.1269              1184.6275              1203.7087
 Red. masses --      2.0802                 1.7912                 2.1654
 Frc consts  --      1.6724                 1.4810                 1.8485
 IR Inten    --     28.2261                 3.7395                 7.7072

                     40                     41                     42
                      A                      A                      A
 Frequencies --   1255.7749              1271.8667              1309.1531
 Red. masses --      1.4454                 1.6351                 1.3230
 Frc consts  --      1.3429                 1.5584                 1.3359
 IR Inten    --     25.8434                 7.0835                 6.4975

                     43                     44                     45
                      A                      A                      A
 Frequencies --   1321.8895              1349.9457              1359.2585
 Red. masses --      1.2369                 1.4514                 1.3494
 Frc consts  --      1.2735                 1.5583                 1.4689
 IR Inten    --      9.9248                 6.3581                 0.9602

                     46                     47                     48
                      A                      A                      A
 Frequencies --   1371.2541              1393.6444              1401.4721
 Red. masses --      1.4033                 1.4298                 1.3702
 Frc consts  --      1.5547                 1.6362                 1.5857
 IR Inten    --      2.8628                 0.2783                 8.5002

                     49                     50                     51
                      A                      A                      A
 Frequencies --   1409.9236              1422.2462              1430.5024
 Red. masses --      1.2920                 1.4062                 1.2690
 Frc consts  --      1.5133                 1.6759                 1.5300
 IR Inten    --      8.2262                 6.8300                 1.5832

                     52                     53                     54
                      A                      A                      A
 Frequencies --   1437.2648              1442.0766              1445.8910
 Red. masses --      1.2358                 1.3686                 1.2827
 Frc consts  --      1.5041                 1.6769                 1.5799
 IR Inten    --     34.1803                11.4438                22.9263

                     55                     56                     57
                      A                      A                      A
 Frequencies --   1447.8292              1509.4138              1511.8772
 Red. masses --      1.2620                 1.0808                 1.0504
 Frc consts  --      1.5586                 1.4508                 1.4147
 IR Inten    --      9.9262                 2.1469                 3.2947

                     58                     59                     60
                      A                      A                      A
 Frequencies --   1519.7840              1522.9847              1527.6958
 Red. masses --      1.0648                 1.0561                 1.0509
 Frc consts  --      1.4490                 1.4432                 1.4450
 IR Inten    --      1.2369                 1.0480                19.9495

                     61                     62                     63
                      A                      A                      A
 Frequencies --   1533.3005              1534.4069              1548.1101
 Red. masses --      1.0552                 1.0732                 1.0543
 Frc consts  --      1.4617                 1.4888                 1.4887
 IR Inten    --      7.0535                 2.6573                 5.0866

                     64                     65                     66
                      A                      A                      A
 Frequencies --   2949.5430              2976.2216              2992.7018
 Red. masses --      1.0829                 1.0737                 1.0810
 Frc consts  --      5.5509                 5.6037                 5.7046
 IR Inten    --     41.8949                47.8976                55.1785

                     67                     68                     69
                      A                      A                      A
 Frequencies --   3016.3659              3035.5152              3037.4440
 Red. masses --      1.0814                 1.0621                 1.0560
 Frc consts  --      5.7969                 5.7660                 5.7403
 IR Inten    --     23.6254                53.0537                55.4884

                     70                     71                     72
                      A                      A                      A
 Frequencies --   3060.9702              3065.0879              3100.3566
 Red. masses --      1.0364                 1.0378                 1.0906
 Frc consts  --      5.7212                 5.7442                 6.1764
 IR Inten    --     10.4696                27.2813                 3.5991

                     73                     74                     75
                      A                      A                      A
 Frequencies --   3108.2801              3109.0851              3122.9328
 Red. masses --      1.0906                 1.0903                 1.0938
 Frc consts  --      6.2079                 6.2095                 6.2853
 IR Inten    --     43.8287                34.2089                46.2295

                     76                     77                     78
                      A                      A                      A
 Frequencies --   3129.6586              3131.0720              3137.0626
 Red. masses --      1.0971                 1.1016                 1.1020
 Frc consts  --      6.3310                 6.3630                 6.3899
 IR Inten    --     14.2970                26.8550                28.2975

                     79                     80                     81
                      A                      A                      A
 Frequencies --   3142.2000              3145.9644              3715.3969
 Red. masses --      1.1021                 1.1004                 1.0658
 Frc consts  --      6.4110                 6.4164                 8.6685
 IR Inten    --     21.7806                30.0758                 7.5519

 - Thermochemistry -
 -------------------
 Temperature   298.150 Kelvin.  Pressure   1.00000 Atm.
 Atom     1 has atomic number  6 and mass  12.00000

 Molecular mass:   158.13068 amu.
 Principal axes and moments of inertia in atomic units:
                           1         2         3
     Eigenvalues --  1017.312282257.815542651.25042
           X            0.99951   0.03091  -0.00442
           Y           -0.03096   0.99944  -0.01249
           Z            0.00404   0.01262   0.99991
 This molecule is an asymmetric top.
 Rotational symmetry number  1.
 Warning -- assumption of classical behavior for rotation
           may cause significant error
 Rotational temperatures (Kelvin)      0.08514     0.03836     0.03267
 Rotational constants (GHZ):           1.77403     0.79933     0.68071
 Zero-point vibrational energy     696536.6 (Joules/Mol)
                                  166.47624 (Kcal/Mol)
 Warning -- explicit consideration of  18 degrees of freedom as
           vibrations may cause significant error
 Vibrational temperatures:     85.23   113.00   177.26   286.87   315.84
          (Kelvin)            344.57   363.76   384.76   413.39   451.72
                              454.83   491.60   550.21   589.56   641.19
                              658.19   755.80   786.18   897.42  1047.36
                             1100.16  1203.60  1228.29  1291.05  1295.84
                             1364.45  1391.62  1405.01  1464.43  1491.57
                             1533.80  1554.67  1589.03  1605.59  1609.82
                             1639.07  1680.67  1704.41  1731.87  1806.78
                             1829.93  1883.58  1901.90  1942.27  1955.67
                             1972.93  2005.14  2016.41  2028.57  2046.30
                             2058.17  2067.90  2074.83  2080.31  2083.10
                             2171.71  2175.25  2186.63  2191.24  2198.01
                             2206.08  2207.67  2227.39  4243.73  4282.12
                             4305.83  4339.88  4367.43  4370.20  4404.05
                             4409.98  4460.72  4472.12  4473.28  4493.20
                             4502.88  4504.91  4513.53  4520.92  4526.34
                             5345.63

 Zero-point correction=                           0.265297 (Hartree/Particle)
 Thermal correction to Energy=                    0.277255
 Thermal correction to Enthalpy=                  0.278199
 Thermal correction to Gibbs Free Energy=         0.228324
 Sum of electronic and zero-point Energies=           -504.018225
 Sum of electronic and thermal Energies=              -504.006267
 Sum of electronic and thermal Enthalpies=            -504.005323
 Sum of electronic and thermal Free Energies=         -504.055198

                     E (Thermal)             CV                S
                      KCal/Mol        Cal/Mol-Kelvin    Cal/Mol-Kelvin
 Total                  173.980             46.637            104.972
 Electronic               0.000              0.000              0.000
 Translational            0.889              2.981             41.084
 Rotational               0.889              2.981             30.189
 Vibrational            172.203             40.675             33.699
 Vibration     1          0.597              1.974              4.483
 Vibration     2          0.600              1.964              3.927
 Vibration     3          0.610              1.930              3.050
 Vibration     4          0.638              1.841              2.139
 Vibration     5          0.647              1.811              1.963
 Vibration     6          0.657              1.780              1.807
 Vibration     7          0.664              1.758              1.711
 Vibration     8          0.673              1.733              1.613
 Vibration     9          0.684              1.697              1.490
 Vibration    10          0.702              1.647              1.341
 Vibration    11          0.703              1.643              1.330
 Vibration    12          0.721              1.592              1.204
 Vibration    13          0.752              1.508              1.030
 Vibration    14          0.774              1.449              0.927
 Vibration    15          0.805              1.370              0.809
 Vibration    16          0.816              1.344              0.774
 Vibration    17          0.880              1.194              0.598
 Vibration    18          0.902              1.148              0.552

 Optimization completed.
    -- Stationary point found.

 1\1\GINC-NODE201\Freq\RB3LYP\6-31G(d)\C9H18O2\VSC10255\08-Dec-2020\0\\
 #N Geom=AllCheck Guess=TCheck SCRF=Check GenChk RB3LYP/6-31G(d) Freq\\
 CID_146838561_JID_1519_neutraal\\0,1\C,0.9948122354,-0.0456596865,0.15
 35779612\C,0.1547548994,1.2193834735,-0.0804832063\C,-0.8438385212,1.5
 259865307,1.0569904116\C,-0.2055467223,2.1532628508,2.3139124533\C,0.7
 011454843,3.3095033278,1.8664249625\O,1.6463771628,2.8933735096,0.8930
 83134\C,1.0172489746,2.4741585513,-0.3227310535\C,2.119938158,2.302848
 7248,-1.3553161804\C,0.5538411385,1.152515914,3.2142287355\C,0.8043341

 Normal termination of Gaussian 16 at Tue Dec  8 19:51:22 2020.

 ----------------------------------------------------------------------
 # B3LYP/6-311++G(d,p) empiricaldispersion=gd3bj scf=xqc pop=npa geom=c
 heck
 ----------------------------------------------------------------------

 ---------------------------------------
 CID_146838561_JID_1519_Energie_neutraal
 ---------------------------------------
 Structure from the checkpoint file:  "JID_1519.chk"
 Charge =  0 Multiplicity = 1

 SCF Done:  E(RB3LYP) =  -504.436777370     A.U. after   13 cycles
 Normal termination of Gaussian 16 at Tue Dec  8 19:54:21 2020.

 ----------------------------------------------------------------------
 # B3LYP/6-311++G(d,p) empiricaldispersion=gd3bj scf=xqc pop=npa geom=c
 heck
 ----------------------------------------------------------------------

 -------------------------------------
 CID_146838561_JID_1519_Energie_kation
 -------------------------------------
 Structure from the checkpoint file:  "JID_1519.chk"
 Charge =  1 Multiplicity = 2

 SCF Done:  E(UB3LYP) =  -504.108335854     A.U. after   23 cycles
 Normal termination of Gaussian 16 at Tue Dec  8 20:01:32 2020.
 Gaussian 16:  ES64L-G16RevA.03 25-Dec-2016

 ------------------------------------
 CID_146838561_JID_1519_Energie_anion
 ------------------------------------
 Structure from the checkpoint file:  "JID_1519.chk"
 Charge = -1 Multiplicity = 2

                         Standard orientation:
 ---------------------------------------------------------------------
 Center     Atomic      Atomic             Coordinates (Angstroms)
 Number     Number       Type             X           Y           Z
 ---------------------------------------------------------------------
      1          6           0        1.013378    1.798359   -0.690185
      2          6           0        1.260242    0.925749    0.550147
      3          6           0       -0.010444    0.649956    1.383415
      4          6           0       -0.944847   -0.422355    0.785263
      5          6           0       -0.094148   -1.643789    0.406266
      6          8           0        0.987594   -1.291481   -0.442107
      7          6           0        1.922022   -0.424531    0.209805
      8          6           0        3.141714   -0.329631   -0.692884
      9          6           0       -1.799794    0.065400   -0.406329
     10          6           0       -2.980102   -0.864020   -0.694225
     11          8           0       -2.268751    1.405242   -0.222780
     12          1           0        1.948267    2.241669   -1.049061
     13          1           0        0.314511    2.608624   -0.464274
     14          1           0        0.588006    1.217331   -1.512775
     15          1           0        1.958116    1.467782    1.204758
     16          1           0        0.305577    0.290746    2.372995
     17          1           0       -0.562426    1.580631    1.541929
     18          1           0       -1.642510   -0.737331    1.578581
     19          1           0       -0.672482   -2.395149   -0.138972
     20          1           0        0.292480   -2.118653    1.324427
     21          1           0        2.218460   -0.900476    1.162538
     22          1           0        3.892400    0.337722   -0.255311
     23          1           0        3.588409   -1.319277   -0.827813
     24          1           0        2.865905    0.056243   -1.678368
     25          1           0       -1.165973    0.119600   -1.294292
     26          1           0       -3.644832   -0.924200    0.178865
     27          1           0       -3.559495   -0.480539   -1.539259
     28          1           0       -2.656137   -1.881839   -0.934786
     29          1           0       -2.867143    1.396199    0.542269
 ---------------------------------------------------------------------

 SCF Done:  E(UB3LYP) =  -504.421714558     A.U. after   26 cycles

 The electronic state is 2-A.
 Alpha  occ. eigenvalues --  -19.01586 -19.01091 -10.11240 -10.11094 -10.10637
 Alpha  occ. eigenvalues --  -10.06429 -10.06285 -10.05782 -10.05512 -10.05202
 Alpha  occ. eigenvalues --  -10.04741  -0.93142  -0.91321  -0.70429  -0.69142
 Alpha  occ. eigenvalues --   -0.63763  -0.60649  -0.57232  -0.53455  -0.51204
 Alpha  occ. eigenvalues --   -0.48716  -0.43503  -0.39332  -0.37744  -0.37227
 Alpha  occ. eigenvalues --   -0.35291  -0.34739  -0.33959  -0.31413  -0.30965
 Alpha  occ. eigenvalues --   -0.29497  -0.29121  -0.27535  -0.27294  -0.26959
 Alpha  occ. eigenvalues --   -0.26277  -0.25012  -0.23940  -0.22375  -0.21633
 Alpha  occ. eigenvalues --   -0.20085  -0.19577  -0.16528  -0.14765   0.04728
 Alpha virt. eigenvalues --    0.06793   0.08016   0.08081   0.09266   0.09678
 Alpha virt. eigenvalues --    0.09968   0.10553   0.11155   0.12045   0.12582
 Alpha virt. eigenvalues --    0.12764   0.13051   0.13925   0.14315   0.15123

  Beta  occ. eigenvalues --  -19.01578 -19.01058 -10.11227 -10.11091 -10.10618
  Beta  occ. eigenvalues --  -10.06420 -10.06266 -10.05762 -10.05477 -10.05179
  Beta  occ. eigenvalues --  -10.04730  -0.93126  -0.91253  -0.70391  -0.69107
  Beta  occ. eigenvalues --   -0.63720  -0.60608  -0.57190  -0.53396  -0.51145
  Beta  occ. eigenvalues --   -0.48663  -0.43456  -0.39283  -0.37688  -0.37181
  Beta  occ. eigenvalues --   -0.35254  -0.34683  -0.33920  -0.31385  -0.30931
  Beta  occ. eigenvalues --   -0.29452  -0.29095  -0.27509  -0.27245  -0.26918
  Beta  occ. eigenvalues --   -0.26245  -0.24978  -0.23906  -0.22341  -0.21594
  Beta  occ. eigenvalues --   -0.20045  -0.19532  -0.16493  -0.14726
  Beta virt. eigenvalues --    0.07061   0.07789   0.08591   0.08749   0.09956
  Beta virt. eigenvalues --    0.10072   0.10539   0.11019   0.11578   0.12496
  Beta virt. eigenvalues --    0.12973   0.13290   0.13357   0.14190   0.14665

 Mulliken charges and spin densities:
               1          2
     1  C   -0.193329  -0.477913
     2  C    0.189215   0.449342
     3  C    0.577483  -1.360496
     4  C   -0.645709   1.347850
     5  C    0.486486  -1.016730
     6  O   -0.107879   0.022442
     7  C   -0.495857   0.133807
     8  C    0.434872  -1.070850
     9  C   -0.095535  -0.317833
    10  C    1.315355  -1.964254
    11  O   -0.180104  -0.017057
    12  H   -0.185521   0.332973
    13  H    0.168641  -0.014068
    14  H    0.096029   0.067811
    15  H   -0.233455   0.440422
    16  H   -0.283374   0.448040
    17  H   -0.367553   0.515319
    18  H   -0.591262   0.812158
    19  H   -0.166943   0.326858
    20  H   -0.123219   0.264614
    21  H   -0.204768   0.354854
    22  H   -0.139428   0.281116
    23  H   -0.098174   0.250494
    24  H    0.128948   0.021519
    25  H    0.298517  -0.084801
    26  H   -0.438555   0.595458
    27  H    0.022510   0.117347
    28  H   -0.070584   0.195742
    29  H   -0.096808   0.345834
 Sum of Mulliken charges =  -1.00000   1.00000

 Dipole moment (field-independent basis, Debye):
    X=              2.0384    Y=             -0.1345    Z=             -4.3254  Tot=              4.7835
 Quadrupole moment (field-independent basis, Debye-Ang):
   XX=           -130.6706   YY=           -108.5389   ZZ=           -107.4959
   XY=             -0.8994   XZ=              3.8262   YZ=              0.4663

 Summary of Natural Population Analysis:

                                       Natural Population
                Natural  -----------------------------------------------
    Atom  No    Charge         Core      Valence    Rydberg      Total
 -----------------------------------------------------------------------
      C    1   -0.29097      0.99964     2.28461    0.00672     3.29097
      C    2   -0.12145      0.99957     2.10992    0.01196     3.12145
      C    3   -0.18768      0.99960     2.17593    0.01215     3.18768
      C    4   -0.13765      0.99956     2.12299    0.01510     3.13765
      C    5   -0.00433      0.99955     1.99149    0.01330     3.00433
      O    6   -0.30984      0.99988     3.30063    0.00932     4.30984
      C    7    0.06895      0.99953     1.91659    0.01493     2.93105
      C    8   -0.29077      0.99964     2.28456    0.00657     3.29077
      C    9    0.06171      0.99953     1.92547    0.01328     2.93829
      C   10   -0.29505      0.99964     2.28969    0.00571     3.29505
      O   11   -0.37274      0.99990     3.36618    0.00665     4.37274
      H   12    0.09584      0.00000     0.40344    0.00072     0.40416
      H   13    0.10668      0.00000     0.39244    0.00089     0.39332
      H   14    0.09807      0.00000     0.40076    0.00117     0.40193
      H   15    0.09878      0.00000     0.39942    0.00180     0.40122
      H   16    0.10089      0.00000     0.39709    0.00202     0.39911
      H   17    0.10783      0.00000     0.39050    0.00168     0.39217
      H   18    0.10315      0.00000     0.39264    0.00421     0.39685
      H   19    0.09045      0.00000     0.40815    0.00139     0.40955
      H   20    0.08103      0.00000     0.41740    0.00157     0.41897
      H   21    0.08059      0.00000     0.41753    0.00188     0.41941
      H   22    0.10062      0.00000     0.39848    0.00090     0.39938
      H   23    0.10116      0.00000     0.39781    0.00103     0.39884
      H   24    0.10039      0.00000     0.39861    0.00100     0.39961
      H   25    0.08734      0.00000     0.41010    0.00256     0.41266
      H   26    0.09932      0.00000     0.39886    0.00181     0.40068
      H   27    0.10060      0.00000     0.39857    0.00083     0.39940
      H   28    0.09936      0.00000     0.39966    0.00098     0.40064
      H   29    0.22770      0.00000     0.26792    0.00438     0.27230
 =======================================================================
   * Total *   -0.00000     10.99604    32.85747    0.14649    44.00000

 Normal termination of Gaussian 16 at Tue Dec  8 20:09:35 2020.
