 Gaussian 16, Revision A.03,

 -----------------------------------------------------------
 # opt freq B3LYP/6-31G(d) empiricaldispersion=gd3bj scf=xqc
 -----------------------------------------------------------

 ------------------------------
 CID_20098806_JID_3083_neutraal
 ------------------------------
 Symbolic Z-matrix:
 Charge =  0 Multiplicity = 1

 SCF Done:  E(RB3LYP) =  -631.225364469     A.U. after   15 cycles
 SCF Done:  E(RB3LYP) =  -631.228435313     A.U. after   12 cycles
 SCF Done:  E(RB3LYP) =  -631.228849822     A.U. after   12 cycles
 SCF Done:  E(RB3LYP) =  -631.228916467     A.U. after   11 cycles
 SCF Done:  E(RB3LYP) =  -631.228960478     A.U. after   10 cycles
 SCF Done:  E(RB3LYP) =  -631.228982746     A.U. after   10 cycles
 SCF Done:  E(RB3LYP) =  -631.229006357     A.U. after   11 cycles
 SCF Done:  E(RB3LYP) =  -631.229016855     A.U. after   11 cycles
 SCF Done:  E(RB3LYP) =  -631.229030766     A.U. after   10 cycles
 SCF Done:  E(RB3LYP) =  -631.229039823     A.U. after   10 cycles
 SCF Done:  E(RB3LYP) =  -631.229040331     A.U. after    8 cycles
 SCF Done:  E(RB3LYP) =  -631.229040381     A.U. after    7 cycles
 Optimization completed.
    -- Stationary point found.
 Normal termination of Gaussian 16 at Wed Dec  9 22:22:46 2020.

 --------------------------------------------------------------------
 #N Geom=AllCheck Guess=TCheck SCRF=Check GenChk RB3LYP/6-31G(d) Freq
 --------------------------------------------------------------------

 Structure from the checkpoint file:  "JID_3083.chk"
 ------------------------------
 CID_20098806_JID_3083_neutraal
 ------------------------------
 Charge =  0 Multiplicity = 1

 SCF Done:  E(RB3LYP) =  -631.229040381     A.U. after    1 cycles

  Exact polarizability: 145.125  12.175 102.580   6.132 -12.484  85.622
 Approx polarizability: 179.548  21.499 161.485  12.081 -37.344 138.210

                      1                      2                      3
                      A                      A                      A
 Frequencies --     21.2508                43.0317                71.9979
 Red. masses --      4.1820                 4.5662                 1.9320
 Frc consts  --      0.0011                 0.0050                 0.0059
 IR Inten    --      1.1499                 1.5395                 0.3091

                      4                      5                      6
                      A                      A                      A
 Frequencies --     87.2883               100.7093               115.0036
 Red. masses --      2.9795                 2.7461                 4.1036
 Frc consts  --      0.0134                 0.0164                 0.0320
 IR Inten    --      0.4079                 2.5326                 0.3761

                      7                      8                      9
                      A                      A                      A
 Frequencies --    135.0084               174.1592               200.3898
 Red. masses --      1.2942                 3.6240                 4.5583
 Frc consts  --      0.0139                 0.0648                 0.1078
 IR Inten    --      0.1275                 2.6787                 2.7141

                     10                     11                     12
                      A                      A                      A
 Frequencies --    254.2913               261.3704               301.4994
 Red. masses --      3.5863                 1.2199                 2.8047
 Frc consts  --      0.1366                 0.0491                 0.1502
 IR Inten    --      3.8838                 0.8148                 7.0820

                     13                     14                     15
                      A                      A                      A
 Frequencies --    329.5577               367.4267               399.3866
 Red. masses --      3.6719                 2.8663                 4.8562
 Frc consts  --      0.2350                 0.2280                 0.4564
 IR Inten    --     10.7100                 4.9202                 0.5999

                     16                     17                     18
                      A                      A                      A
 Frequencies --    505.7862               523.7147               617.3767
 Red. masses --      5.3735                 3.9498                 5.0767
 Frc consts  --      0.8099                 0.6383                 1.1401
 IR Inten    --      2.6950                 3.1853                 2.8696

                     19                     20                     21
                      A                      A                      A
 Frequencies --    644.5040               734.9115               753.1808
 Red. masses --      5.0939                 2.5019                 5.8957
 Frc consts  --      1.2467                 0.7961                 1.9705
 IR Inten    --      1.9754                27.5163                24.8531

                     22                     23                     24
                      A                      A                      A
 Frequencies --    802.4921               807.8693               815.6865
 Red. masses --      1.7200                 3.3886                 1.4160
 Frc consts  --      0.6526                 1.3030                 0.5551
 IR Inten    --     87.3613                10.9806                23.4110

                     25                     26                     27
                      A                      A                      A
 Frequencies --    833.2050               880.1493               891.1536
 Red. masses --      1.3800                 1.4252                 1.6652
 Frc consts  --      0.5644                 0.6505                 0.7792
 IR Inten    --     14.2698                 7.4490                21.7425

                     28                     29                     30
                      A                      A                      A
 Frequencies --    956.7668               979.0366               997.4036
 Red. masses --      5.5158                 2.1364                 3.0783
 Frc consts  --      2.9749                 1.2065                 1.8043
 IR Inten    --      2.6917                 5.8740                 5.4142

                     31                     32                     33
                      A                      A                      A
 Frequencies --   1033.6114              1048.6955              1052.9470
 Red. masses --      3.8685                 2.7900                 1.4730
 Frc consts  --      2.4350                 1.8078                 0.9622
 IR Inten    --     32.6982                 1.2238                16.1501

                     34                     35                     36
                      A                      A                      A
 Frequencies --   1136.6057              1151.6028              1171.9074
 Red. masses --      2.5306                 1.9455                 2.1103
 Frc consts  --      1.9262                 1.5202                 1.7076
 IR Inten    --     26.9373                28.4373                49.4470

                     37                     38                     39
                      A                      A                      A
 Frequencies --   1186.0679              1187.8622              1224.9132
 Red. masses --      1.2710                 2.4012                 1.7311
 Frc consts  --      1.0534                 1.9962                 1.5303
 IR Inten    --      0.8327               133.8789               143.5835

                     40                     41                     42
                      A                      A                      A
 Frequencies --   1239.0989              1252.3471              1294.0190
 Red. masses --      2.3927                 3.1189                 1.3799
 Frc consts  --      2.1645                 2.8821                 1.3613
 IR Inten    --    194.4510                 3.1319                 4.3056

                     43                     44                     45
                      A                      A                      A
 Frequencies --   1337.8453              1342.6607              1381.7875
 Red. masses --      1.3312                 3.9974                 1.3179
 Frc consts  --      1.4038                 4.2458                 1.4826
 IR Inten    --     23.7813               239.1449                14.3963

                     46                     47                     48
                      A                      A                      A
 Frequencies --   1409.4603              1430.3197              1444.4496
 Red. masses --      1.4204                 2.5795                 1.3516
 Frc consts  --      1.6625                 3.1093                 1.6615
 IR Inten    --      6.0859                21.8060                 9.3654

                     49                     50                     51
                      A                      A                      A
 Frequencies --   1490.2710              1492.5735              1512.0626
 Red. masses --      1.0809                 1.2282                 1.1057
 Frc consts  --      1.4144                 1.6121                 1.4895
 IR Inten    --      1.0459                11.8253                17.0889

                     52                     53                     54
                      A                      A                      A
 Frequencies --   1512.0980              1526.1784              1528.3434
 Red. masses --      1.0585                 1.0549                 1.0507
 Frc consts  --      1.4260                 1.4477                 1.4460
 IR Inten    --      1.1325                17.6974                12.4495

                     55                     56                     57
                      A                      A                      A
 Frequencies --   1532.8411              1553.0489              1566.1242
 Red. masses --      1.1240                 1.0902                 7.3348
 Frc consts  --      1.5561                 1.5492                10.5996
 IR Inten    --     11.5355                 4.0818               116.5380

                     58                     59                     60
                      A                      A                      A
 Frequencies --   1636.8032              1813.8999              2965.8534
 Red. masses --      6.2026                11.8295                 1.0721
 Frc consts  --      9.7908                22.9321                 5.5565
 IR Inten    --      6.8858               275.5257                58.0055

                     61                     62                     63
                      A                      A                      A
 Frequencies --   3046.7650              3051.4245              3052.2385
 Red. masses --      1.0627                 1.0580                 1.0652
 Frc consts  --      5.8122                 5.8040                 5.8466
 IR Inten    --     15.6873                16.4310                53.1233

                     64                     65                     66
                      A                      A                      A
 Frequencies --   3074.0875              3098.8209              3113.6067
 Red. masses --      1.0297                 1.1035                 1.0999
 Frc consts  --      5.7331                 6.2435                 6.2824
 IR Inten    --     39.0823                15.6578                42.0315

                     67                     68                     69
                      A                      A                      A
 Frequencies --   3133.5928              3147.2875              3181.5781
 Red. masses --      1.1033                 1.1074                 1.1068
 Frc consts  --      6.3829                 6.4630                 6.6012
 IR Inten    --     27.2493                22.0593                18.4045

                     70                     71                     72
                      A                      A                      A
 Frequencies --   3269.0241              3289.7854              3483.9316
 Red. masses --      1.0947                 1.0997                 1.0737
 Frc consts  --      6.8923                 7.0122                 7.6787
 IR Inten    --      3.8049                 0.1835                 0.0646

 - Thermochemistry -
 -------------------
 Temperature   298.150 Kelvin.  Pressure   1.00000 Atm.
 Atom     1 has atomic number  6 and mass  12.00000

 Molecular mass:   183.08954 amu.
 Principal axes and moments of inertia in atomic units:
                           1         2         3
     Eigenvalues --  1178.342234824.149015324.94446
           X            0.99997  -0.00777  -0.00267
           Y            0.00784   0.99959   0.02737
           Z            0.00246  -0.02739   0.99962
 This molecule is an asymmetric top.
 Rotational symmetry number  1.
 Warning -- assumption of classical behavior for rotation
           may cause significant error
 Rotational temperatures (Kelvin)      0.07350     0.01795     0.01627
 Rotational constants (GHZ):           1.53159     0.37411     0.33892
 Zero-point vibrational energy     568250.4 (Joules/Mol)
                                  135.81511 (Kcal/Mol)
 Warning -- explicit consideration of  18 degrees of freedom as
           vibrations may cause significant error
 Vibrational temperatures:     30.58    61.91   103.59   125.59   144.90
          (Kelvin)            165.46   194.25   250.58   288.32   365.87
                              376.05   433.79   474.16   528.65   574.63
                              727.71   753.51   888.27   927.30  1057.37
                             1083.66  1154.61  1162.34  1173.59  1198.80
                             1266.34  1282.17  1376.57  1408.62  1435.04
                             1487.14  1508.84  1514.96  1635.32  1656.90
                             1686.11  1706.49  1709.07  1762.38  1782.79
                             1801.85  1861.80  1924.86  1931.79  1988.08
                             2027.90  2057.91  2078.24  2144.17  2147.48
                             2175.52  2175.57  2195.83  2198.95  2205.42
                             2234.49  2253.30  2354.99  2609.80  4267.20
                             4383.62  4390.32  4391.49  4422.93  4458.51
                             4479.79  4508.54  4528.24  4577.58  4703.40
                             4733.27  5012.60

 Zero-point correction=                           0.216435 (Hartree/Particle)
 Thermal correction to Energy=                    0.230014
 Thermal correction to Enthalpy=                  0.230959
 Thermal correction to Gibbs Free Energy=         0.174125
 Sum of electronic and zero-point Energies=           -631.012605
 Sum of electronic and thermal Energies=              -630.999026
 Sum of electronic and thermal Enthalpies=            -630.998082
 Sum of electronic and thermal Free Energies=         -631.054916

                     E (Thermal)             CV                S
                      KCal/Mol        Cal/Mol-Kelvin    Cal/Mol-Kelvin
 Total                  144.336             47.965            119.617
 Electronic               0.000              0.000              0.000
 Translational            0.889              2.981             41.521
 Rotational               0.889              2.981             31.782
 Vibrational            142.559             42.004             46.315
 Vibration     1          0.593              1.985              6.514
 Vibration     2          0.595              1.980              5.114
 Vibration     3          0.598              1.967              4.098
 Vibration     4          0.601              1.958              3.720
 Vibration     5          0.604              1.949              3.441
 Vibration     6          0.608              1.937              3.183
 Vibration     7          0.613              1.918              2.873
 Vibration     8          0.627              1.874              2.390
 Vibration     9          0.638              1.839              2.130
 Vibration    10          0.665              1.756              1.701
 Vibration    11          0.669              1.743              1.653
 Vibration    12          0.693              1.671              1.409
 Vibration    13          0.712              1.616              1.262
 Vibration    14          0.740              1.539              1.091
 Vibration    15          0.765              1.471              0.965
 Vibration    16          0.861              1.237              0.644
 Vibration    17          0.879              1.197              0.601
 Vibration    18          0.977              0.995              0.421

 Optimization completed.
    -- Stationary point found.
 Normal termination of Gaussian 16 at Wed Dec  9 22:28:14 2020.

 ----------------------------------------------------------------------
 # B3LYP/6-311++G(d,p) empiricaldispersion=gd3bj scf=xqc pop=npa geom=c
 heck
 ----------------------------------------------------------------------

 --------------------------------------
 CID_20098806_JID_3083_Energie_neutraal
 --------------------------------------
 Structure from the checkpoint file:  "JID_3083.chk"
 Charge =  0 Multiplicity = 1

 SCF Done:  E(RB3LYP) =  -631.413980594     A.U. after   14 cycles
 Normal termination of Gaussian 16 at Wed Dec  9 22:30:35 2020.

 ----------------------------------------------------------------------
 # B3LYP/6-311++G(d,p) empiricaldispersion=gd3bj scf=xqc pop=npa geom=c
 heck
 ----------------------------------------------------------------------

 ------------------------------------
 CID_20098806_JID_3083_Energie_kation
 ------------------------------------
 Structure from the checkpoint file:  "JID_3083.chk"
 Charge =  1 Multiplicity = 2

 SCF Done:  E(UB3LYP) =  -631.108505193     A.U. after   21 cycles
 Normal termination of Gaussian 16 at Wed Dec  9 22:35:34 2020.
 Gaussian 16:  ES64L-G16RevA.03 25-Dec-2016

 ----------------------------------------------------------------------
 # B3LYP/6-311++G(d,p) empiricaldispersion=gd3bj scf=xqc pop=npa geom=c
 heck
 ----------------------------------------------------------------------

 -----------------------------------
 CID_20098806_JID_3083_Energie_anion
 -----------------------------------
 Structure from the checkpoint file:  "JID_3083.chk"
 Charge = -1 Multiplicity = 2

                         Standard orientation:
 ---------------------------------------------------------------------
 Center     Atomic      Atomic             Coordinates (Angstroms)
 Number     Number       Type             X           Y           Z
 ---------------------------------------------------------------------
      1          6           0        3.915752   -1.889584   -0.852797
      2          6           0        3.215665   -0.545330   -0.684978
      3          7           0        2.987471   -0.263071    0.733480
      4          6           0        2.308816    1.007938    0.984647
      5          6           0        0.956077    1.145738    0.352579
      6          6           0        0.417916    1.995319   -0.578387
      7          6           0       -0.923479    1.564380   -0.796135
      8          6           0       -1.113324    0.473621    0.010912
      9          8           0        0.031748    0.213748    0.716342
     10          6           0       -2.246024   -0.421217    0.243102
     11          8           0       -2.248408   -1.373084    0.996289
     12          8           0       -3.308613   -0.040544   -0.508941
     13          6           0       -4.475384   -0.860343   -0.354618
     14          1           0        4.856657   -1.905599   -0.293804
     15          1           0        4.129017   -2.088428   -1.908510
     16          1           0        3.286263   -2.707807   -0.481216
     17          1           0        3.851189    0.258366   -1.080767
     18          1           0        2.286602   -0.531217   -1.282437
     19          1           0        2.425288   -1.013713    1.133588
     20          1           0        2.219848    1.130793    2.071177
     21          1           0        2.940836    1.824394    0.616978
     22          1           0        0.925279    2.825996   -1.048566
     23          1           0       -1.659498    1.990578   -1.461763
     24          1           0       -4.260767   -1.893234   -0.641800
     25          1           0       -4.820841   -0.846555    0.682575
     26          1           0       -5.226088   -0.426165   -1.015280
 ---------------------------------------------------------------------

 SCF Done:  E(UB3LYP) =  -631.408162491     A.U. after   33 cycles
 SCF Done:  E(UB3LYP) =  -631.408162491     a.u. after    1 cycles

 The electronic state is 2-A.
 Alpha  occ. eigenvalues --  -19.03448 -19.02546 -18.94699 -14.18185 -10.13335
 Alpha  occ. eigenvalues --  -10.11053 -10.08177 -10.07868 -10.07740 -10.07177
 Alpha  occ. eigenvalues --  -10.05410 -10.03591 -10.02723  -0.97160  -0.95844
 Alpha  occ. eigenvalues --   -0.86791  -0.79145  -0.66418  -0.65467  -0.62851
 Alpha  occ. eigenvalues --   -0.59756  -0.54491  -0.49854  -0.47040  -0.45955
 Alpha  occ. eigenvalues --   -0.41410  -0.40409  -0.36734  -0.35922  -0.35295
 Alpha  occ. eigenvalues --   -0.34726  -0.33115  -0.31973  -0.31055  -0.29566
 Alpha  occ. eigenvalues --   -0.28292  -0.27709  -0.26428  -0.26229  -0.25082
 Alpha  occ. eigenvalues --   -0.24356  -0.24239  -0.23274  -0.22662  -0.17417
 Alpha  occ. eigenvalues --   -0.15007  -0.13367  -0.11808  -0.09561   0.05441
 Alpha virt. eigenvalues --    0.07256   0.07769   0.08423   0.09534   0.10070
 Alpha virt. eigenvalues --    0.10820   0.11188   0.11875   0.12013   0.12594
 Alpha virt. eigenvalues --    0.13005   0.14578   0.14692   0.15149   0.16089

  Beta  occ. eigenvalues --  -19.03196 -19.02467 -18.94380 -14.18157 -10.13074
  Beta  occ. eigenvalues --  -10.11056 -10.08188 -10.07722 -10.07615 -10.07075
  Beta  occ. eigenvalues --  -10.05390 -10.03679 -10.02527  -0.96760  -0.95536
  Beta  occ. eigenvalues --   -0.86300  -0.79080  -0.66139  -0.65232  -0.62610
  Beta  occ. eigenvalues --   -0.59590  -0.54330  -0.49721  -0.46724  -0.45732
  Beta  occ. eigenvalues --   -0.41153  -0.40247  -0.36667  -0.35488  -0.35155
  Beta  occ. eigenvalues --   -0.34460  -0.32884  -0.31739  -0.30263  -0.29367
  Beta  occ. eigenvalues --   -0.28177  -0.27617  -0.26307  -0.25393  -0.24904
  Beta  occ. eigenvalues --   -0.24173  -0.24017  -0.23152  -0.22441  -0.16340
  Beta  occ. eigenvalues --   -0.14082  -0.13069  -0.11683  -0.08244
  Beta virt. eigenvalues --    0.07546   0.07765   0.08621   0.09641   0.10168
  Beta virt. eigenvalues --    0.10866   0.10957   0.11428   0.11869   0.11977
  Beta virt. eigenvalues --    0.12645   0.13048   0.14551   0.14690   0.15217

 Mulliken charges and spin densities:
               1          2
     1  C    0.276317  -0.791949
     2  C   -0.260097  -0.051992
     3  N   -0.105120   0.062501
     4  C   -0.039298  -0.592160
     5  C    0.134937   0.438716
     6  C   -0.377381   0.030858
     7  C   -0.217876   0.160942
     8  C   -0.450710   0.140510
     9  O   -0.042030   0.049024
    10  C    0.390477  -0.078088
    11  O   -0.367758   0.105413
    12  O   -0.151220   0.014999
    13  C   -0.153787  -0.064276
    14  H   -0.070135   0.217815
    15  H   -0.209699   0.329511
    16  H    0.034592   0.094458
    17  H   -0.140285   0.273212
    18  H    0.225543  -0.079179
    19  H    0.226554  -0.010053
    20  H   -0.092793   0.280544
    21  H    0.028894   0.111031
    22  H   -0.109671   0.246686
    23  H    0.101141   0.047751
    24  H    0.121262   0.038023
    25  H    0.146223   0.010512
    26  H    0.101919   0.015191
 Sum of Mulliken charges =  -1.00000   1.00000

 Dipole moment (field-independent basis, Debye):
    X=             -3.0651    Y=              0.8949    Z=             -1.2479  Tot=              3.4282
 Quadrupole moment (field-independent basis, Debye-Ang):
   XX=           -128.7540   YY=           -100.3028   ZZ=            -97.7270
   XY=              2.6991   XZ=              5.2381   YZ=              1.2170

 Summary of Natural Population Analysis:

                                       Natural Population
                Natural  -----------------------------------------------
    Atom  No    Charge         Core      Valence    Rydberg      Total
 -----------------------------------------------------------------------
      C    1   -0.28613      0.99967     2.28191    0.00456     3.28613
      C    2   -0.09042      0.99964     2.07919    0.01159     3.09042
      N    3   -0.33802      0.99975     2.82528    0.01299     3.83802
      C    4   -0.10994      0.99958     2.09728    0.01308     3.10994
      C    5    0.19004      0.99948     1.79675    0.01373     2.80996
      C    6   -0.18187      0.99950     2.17412    0.00826     3.18187
      C    7   -0.09551      0.99953     2.08684    0.00913     3.09551
      C    8    0.10550      0.99941     1.88122    0.01386     2.89450
      O    9   -0.21186      0.99985     3.20373    0.00829     4.21186
      C   10    0.40506      0.99963     1.57182    0.02350     2.59494
      O   11   -0.28959      0.99987     3.28425    0.00547     4.28959
      O   12   -0.28053      0.99987     3.27278    0.00789     4.28053
      C   13   -0.10493      0.99961     2.09647    0.00885     3.10493
      H   14    0.09716      0.00000     0.40107    0.00176     0.40284
      H   15    0.09739      0.00000     0.40141    0.00120     0.40261
      H   16    0.09380      0.00000     0.40494    0.00127     0.40620
      H   17    0.08643      0.00000     0.41188    0.00169     0.41357
      H   18    0.08538      0.00000     0.41298    0.00164     0.41462
      H   19    0.17238      0.00000     0.32445    0.00317     0.32762
      H   20    0.10165      0.00000     0.39705    0.00130     0.39835
      H   21    0.09520      0.00000     0.40368    0.00111     0.40480
      H   22    0.10116      0.00000     0.39792    0.00091     0.39884
      H   23    0.10300      0.00000     0.39585    0.00115     0.39700
      H   24    0.08665      0.00000     0.41152    0.00183     0.41335
      H   25    0.08612      0.00000     0.41215    0.00173     0.41388
      H   26    0.08189      0.00000     0.41699    0.00112     0.41811
 =======================================================================
   * Total *   -0.00000     12.99540    35.84352    0.16107    49.00000

 Normal termination of Gaussian 16 at Wed Dec  9 22:43:45 2020.
