 Gaussian 16, Revision A.03,

 -----------------------------------------------------------
 # opt freq B3LYP/6-31G(d) empiricaldispersion=gd3bj scf=xqc
 -----------------------------------------------------------

 ------------------------------
 CID_43085336_JID_3609_neutraal
 ------------------------------
 Symbolic Z-matrix:
 Charge =  0 Multiplicity = 1

 SCF Done:  E(RB3LYP) =  -899.643990533     A.U. after   15 cycles
 SCF Done:  E(RB3LYP) =  -899.648173375     A.U. after   12 cycles
 SCF Done:  E(RB3LYP) =  -899.648752772     A.U. after   12 cycles
 SCF Done:  E(RB3LYP) =  -899.648905106     A.U. after   11 cycles
 SCF Done:  E(RB3LYP) =  -899.649004577     A.U. after   11 cycles
 SCF Done:  E(RB3LYP) =  -899.649157977     A.U. after   12 cycles
 SCF Done:  E(RB3LYP) =  -899.648822486     A.U. after   14 cycles
 SCF Done:  E(RB3LYP) =  -899.650415712     A.U. after   13 cycles
 SCF Done:  E(RB3LYP) =  -899.650925745     A.U. after   12 cycles
 SCF Done:  E(RB3LYP) =  -899.650853054     A.U. after   12 cycles
 SCF Done:  E(RB3LYP) =  -899.651194844     A.U. after   10 cycles
 SCF Done:  E(RB3LYP) =  -899.651199462     A.U. after   10 cycles
 SCF Done:  E(RB3LYP) =  -899.651201522     A.U. after   10 cycles
 SCF Done:  E(RB3LYP) =  -899.651201849     A.U. after    8 cycles
 SCF Done:  E(RB3LYP) =  -899.651201984     A.U. after    8 cycles
 Optimization completed.
    -- Stationary point found.
 Normal termination of Gaussian 16 at Wed Dec  9 23:47:37 2020.

 --------------------------------------------------------------------
 #N Geom=AllCheck Guess=TCheck SCRF=Check GenChk RB3LYP/6-31G(d) Freq
 --------------------------------------------------------------------

 Structure from the checkpoint file:  "JID_3609.chk"
 ------------------------------
 CID_43085336_JID_3609_neutraal
 ------------------------------
 Charge =  0 Multiplicity = 1

 SCF Done:  E(RB3LYP) =  -899.651201984     A.U. after    1 cycles

  Exact polarizability: 175.888  -0.837 131.053   1.514  -6.725  94.349
 Approx polarizability: 217.547  -5.668 218.003   4.844 -22.342 150.756

                      1                      2                      3
                      A                      A                      A
 Frequencies --     26.3150                33.7261                61.4531
 Red. masses --      3.7673                 3.4148                 3.1104
 Frc consts  --      0.0015                 0.0023                 0.0069
 IR Inten    --      0.2021                 0.3199                 0.1666

                      4                      5                      6
                      A                      A                      A
 Frequencies --     63.6664                77.4891               126.3827
 Red. masses --      1.0928                 3.0231                 2.8132
 Frc consts  --      0.0026                 0.0107                 0.0265
 IR Inten    --      0.2729                 0.1640                 1.0903

                      7                      8                      9
                      A                      A                      A
 Frequencies --    195.6884               205.9337               215.6632
 Red. masses --      2.5717                 2.6200                 2.1789
 Frc consts  --      0.0580                 0.0655                 0.0597
 IR Inten    --      0.6662                 5.1858                 1.7694

                     10                     11                     12
                      A                      A                      A
 Frequencies --    218.4444               231.8546               253.1257
 Red. masses --      1.0559                 1.5072                 1.8393
 Frc consts  --      0.0297                 0.0477                 0.0694
 IR Inten    --      0.1075                 0.1485                 0.1134

                     13                     14                     15
                      A                      A                      A
 Frequencies --    261.9273               308.3807               360.4237
 Red. masses --      2.6401                 2.3101                 2.3567
 Frc consts  --      0.1067                 0.1294                 0.1804
 IR Inten    --      0.1032                 2.7940                 1.0452

                     16                     17                     18
                      A                      A                      A
 Frequencies --    379.0394               399.2030               445.3677
 Red. masses --      2.1571                 2.5170                 2.6184
 Frc consts  --      0.1826                 0.2363                 0.3060
 IR Inten    --      0.2169                 3.6400                 0.2560

                     19                     20                     21
                      A                      A                      A
 Frequencies --    480.0230               514.9354               530.9031
 Red. masses --      3.3026                 4.1925                 2.7446
 Frc consts  --      0.4484                 0.6550                 0.4558
 IR Inten    --      0.4015                 0.1617                 5.3923

                     22                     23                     24
                      A                      A                      A
 Frequencies --    571.3922               640.6730               653.8111
 Red. masses --      7.1052                 4.6817                 5.1526
 Frc consts  --      1.3668                 1.1322                 1.2977
 IR Inten    --      1.0800                 8.6929                 5.7806

                     25                     26                     27
                      A                      A                      A
 Frequencies --    685.1282               770.2008               782.9526
 Red. masses --      4.5034                 1.3134                 1.5002
 Frc consts  --      1.2455                 0.4590                 0.5418
 IR Inten    --      1.6645                40.2039                45.8190

                     28                     29                     30
                      A                      A                      A
 Frequencies --    823.4702               864.8816               906.6901
 Red. masses --      1.7310                 3.7362                 2.0886
 Frc consts  --      0.6916                 1.6466                 1.0116
 IR Inten    --     15.9587                 6.5888                 2.3765

                     31                     32                     33
                      A                      A                      A
 Frequencies --    939.5569               956.6403               975.7446
 Red. masses --      1.2643                 1.6588                 1.5499
 Frc consts  --      0.6576                 0.8944                 0.8694
 IR Inten    --      2.2771                 0.3902                 6.3330

                     34                     35                     36
                      A                      A                      A
 Frequencies --    984.6588              1001.7367              1018.9694
 Red. masses --      2.3614                 1.5220                 1.7302
 Frc consts  --      1.3490                 0.8999                 1.0585
 IR Inten    --     15.5438                 1.2229                 6.1849

                     37                     38                     39
                      A                      A                      A
 Frequencies --   1035.7181              1064.0870              1068.6105
 Red. masses --      1.8030                 1.4177                 3.0283
 Frc consts  --      1.1396                 0.9458                 2.0375
 IR Inten    --     14.5143                 0.9569                 6.1037

                     40                     41                     42
                      A                      A                      A
 Frequencies --   1131.8314              1150.2466              1159.0697
 Red. masses --      2.0948                 1.7674                 2.6195
 Frc consts  --      1.5811                 1.3777                 2.0734
 IR Inten    --     10.8803                22.4732                42.9282

                     43                     44                     45
                      A                      A                      A
 Frequencies --   1186.2082              1202.9046              1206.4499
 Red. masses --      1.9220                 1.9679                 2.7881
 Frc consts  --      1.5934                 1.6777                 2.3910
 IR Inten    --     27.2703                19.6558                37.8488

                     46                     47                     48
                      A                      A                      A
 Frequencies --   1215.0223              1263.8752              1297.0778
 Red. masses --      1.7113                 1.4548                 2.1522
 Frc consts  --      1.4885                 1.3692                 2.1334
 IR Inten    --      7.2493                 1.5641                49.3902

                     49                     50                     51
                      A                      A                      A
 Frequencies --   1331.0781              1360.6310              1373.8594
 Red. masses --      1.4844                 1.3482                 1.3608
 Frc consts  --      1.5496                 1.4705                 1.5133
 IR Inten    --      5.6683                 2.9930                 2.4374

                     52                     53                     54
                      A                      A                      A
 Frequencies --   1399.6016              1422.4893              1430.2363
 Red. masses --      1.5068                 1.2954                 1.4194
 Frc consts  --      1.7391                 1.5444                 1.7107
 IR Inten    --      1.3317                 4.5418                 1.5584

                     55                     56                     57
                      A                      A                      A
 Frequencies --   1433.9759              1438.9981              1446.3524
 Red. masses --      1.2904                 1.3856                 1.2361
 Frc consts  --      1.5634                 1.6904                 1.5235
 IR Inten    --      5.8323                 6.6250                 3.3938

                     58                     59                     60
                      A                      A                      A
 Frequencies --   1504.0464              1506.4741              1508.2616
 Red. masses --      1.2041                 1.1709                 1.0456
 Frc consts  --      1.6048                 1.5656                 1.4014
 IR Inten    --     11.9840                43.0679                 9.0091

                     61                     62                     63
                      A                      A                      A
 Frequencies --   1517.7733              1520.6083              1525.1010
 Red. masses --      1.0606                 1.0570                 1.0682
 Frc consts  --      1.4396                 1.4400                 1.4638
 IR Inten    --      3.2687                 0.4051                 5.6681

                     64                     65                     66
                      A                      A                      A
 Frequencies --   1529.2188              1534.8137              1540.5428
 Red. masses --      1.1251                 1.0711                 1.0562
 Frc consts  --      1.5502                 1.4866                 1.4769
 IR Inten    --      3.2389                14.2241                 7.7851

                     67                     68                     69
                      A                      A                      A
 Frequencies --   1551.4825              1562.8477              1595.0351
 Red. masses --      1.0524                 4.3240                 6.0460
 Frc consts  --      1.4925                 6.2226                 9.0627
 IR Inten    --      8.4505                 8.8210                47.7878

                     70                     71                     72
                      A                      A                      A
 Frequencies --   2972.7062              2989.7745              3020.5962
 Red. masses --      1.0707                 1.0817                 1.0838
 Frc consts  --      5.5745                 5.6966                 5.8262
 IR Inten    --     46.6771                16.3631                16.1861

                     73                     74                     75
                      A                      A                      A
 Frequencies --   3039.7796              3040.3502              3043.6213
 Red. masses --      1.0415                 1.0784                 1.0485
 Frc consts  --      5.6703                 5.8730                 5.7226
 IR Inten    --     15.7224                 8.6505                49.1247

                     76                     77                     78
                      A                      A                      A
 Frequencies --   3045.6593              3055.9947              3099.5875
 Red. masses --      1.0411                 1.0371                 1.0998
 Frc consts  --      5.6900                 5.7068                 6.2256
 IR Inten    --     46.4883                20.1546                 6.8346

                     79                     80                     81
                      A                      A                      A
 Frequencies --   3107.0416              3110.6377              3112.1830
 Red. masses --      1.0990                 1.1016                 1.0959
 Frc consts  --      6.2507                 6.2801                 6.2537
 IR Inten    --     61.7024                11.3749                41.1418

                     82                     83                     84
                      A                      A                      A
 Frequencies --   3122.9398              3132.9146              3150.8619
 Red. masses --      1.1019                 1.1000                 1.0982
 Frc consts  --      6.3319                 6.3614                 6.4237
 IR Inten    --     44.9934                30.7285                22.6980

                     85                     86                     87
                      A                      A                      A
 Frequencies --   3158.0531              3296.7957              3469.3411
 Red. masses --      1.1008                 1.0941                 1.0732
 Frc consts  --      6.4684                 7.0061                 7.6105
 IR Inten    --      5.1273                 1.6665                 0.3653

 - Thermochemistry -
 -------------------
 Temperature   298.150 Kelvin.  Pressure   1.00000 Atm.
 Atom     1 has atomic number  6 and mass  12.00000

 Molecular mass:   198.11907 amu.
 Principal axes and moments of inertia in atomic units:
                           1         2         3
     Eigenvalues --   991.165536838.189287601.54117
           X            0.99995   0.00955  -0.00138
           Y           -0.00953   0.99981   0.01706
           Z            0.00155  -0.01705   0.99985
 This molecule is an asymmetric top.
 Rotational symmetry number  1.
 Warning -- assumption of classical behavior for rotation
           may cause significant error
 Rotational temperatures (Kelvin)      0.08739     0.01267     0.01139
 Rotational constants (GHZ):           1.82083     0.26392     0.23742
 Zero-point vibrational energy     711477.9 (Joules/Mol)
                                  170.04730 (Kcal/Mol)
 Warning -- explicit consideration of  22 degrees of freedom as
           vibrations may cause significant error
 Vibrational temperatures:     37.86    48.52    88.42    91.60   111.49
          (Kelvin)            181.84   281.55   296.29   310.29   314.29
                              333.59   364.19   376.86   443.69   518.57
                              545.35   574.36   640.78   690.65   740.88
                              763.85   822.11   921.79   940.69   985.75
                             1108.15  1126.49  1184.79  1244.37  1304.52
                             1351.81  1376.39  1403.88  1416.70  1441.28
                             1466.07  1490.17  1530.98  1537.49  1628.45
                             1654.95  1667.64  1706.69  1730.71  1735.81
                             1748.15  1818.43  1866.21  1915.12  1957.64
                             1976.68  2013.71  2046.64  2057.79  2063.17
                             2070.40  2080.98  2163.99  2167.48  2170.05
                             2183.74  2187.82  2194.28  2200.20  2208.25
                             2216.50  2232.24  2248.59  2294.90  4277.06
                             4301.62  4345.96  4373.56  4374.39  4379.09
                             4382.02  4396.89  4459.62  4470.34  4475.51
                             4477.74  4493.21  4507.57  4533.39  4543.73
                             4743.35  4991.61

 Zero-point correction=                           0.270988 (Hartree/Particle)
 Thermal correction to Energy=                    0.286156
 Thermal correction to Enthalpy=                  0.287101
 Thermal correction to Gibbs Free Energy=         0.227167
 Sum of electronic and zero-point Energies=           -899.380214
 Sum of electronic and thermal Energies=              -899.365046
 Sum of electronic and thermal Enthalpies=            -899.364101
 Sum of electronic and thermal Free Energies=         -899.424035

                     E (Thermal)             CV                S
                      KCal/Mol        Cal/Mol-Kelvin    Cal/Mol-Kelvin
 Total                  179.566             55.453            126.141
 Electronic               0.000              0.000              0.000
 Translational            0.889              2.981             41.756
 Rotational               0.889              2.981             32.310
 Vibrational            177.788             49.491             52.075
 Vibration     1          0.593              1.985              6.089
 Vibration     2          0.594              1.983              5.597
 Vibration     3          0.597              1.973              4.410
 Vibration     4          0.597              1.972              4.340
 Vibration     5          0.599              1.964              3.953
 Vibration     6          0.611              1.927              3.000
 Vibration     7          0.636              1.846              2.173
 Vibration     8          0.640              1.831              2.079
 Vibration     9          0.645              1.817              1.995
 Vibration    10          0.646              1.813              1.972
 Vibration    11          0.653              1.792              1.865
 Vibration    12          0.664              1.758              1.709
 Vibration    13          0.669              1.743              1.649
 Vibration    14          0.698              1.658              1.371
 Vibration    15          0.735              1.554              1.120
 Vibration    16          0.749              1.515              1.043
 Vibration    17          0.765              1.472              0.966
 Vibration    18          0.805              1.371              0.810
 Vibration    19          0.836              1.294              0.710
 Vibration    20          0.870              1.217              0.622
 Vibration    21          0.886              1.182              0.585
 Vibration    22          0.928              1.093              0.502

                           ! Non-Optimized Parameters !
 Normal termination of Gaussian 16 at Wed Dec  9 23:54:18 2020.

 ----------------------------------------------------------------------
 # B3LYP/6-311++G(d,p) empiricaldispersion=gd3bj scf=xqc pop=npa geom=c
 heck
 ----------------------------------------------------------------------

 --------------------------------------
 CID_43085336_JID_3609_Energie_neutraal
 --------------------------------------
 Structure from the checkpoint file:  "JID_3609.chk"
 Charge =  0 Multiplicity = 1

 SCF Done:  E(RB3LYP) =  -899.817667636     A.U. after   16 cycles
 Normal termination of Gaussian 16 at Wed Dec  9 23:57:32 2020.

 ----------------------------------------------------------------------
 # B3LYP/6-311++G(d,p) empiricaldispersion=gd3bj scf=xqc pop=npa geom=c
 heck
 ----------------------------------------------------------------------

 ------------------------------------
 CID_43085336_JID_3609_Energie_kation
 ------------------------------------
 Structure from the checkpoint file:  "JID_3609.chk"
 Charge =  1 Multiplicity = 2

 SCF Done:  E(UB3LYP) =  -899.524072398     A.U. after   24 cycles
 Normal termination of Gaussian 16 at Thu Dec 10 00:04:02 2020.
 Gaussian 16:  ES64L-G16RevA.03 25-Dec-2016

 ----------------------------------------------------------------------
 # B3LYP/6-311++G(d,p) empiricaldispersion=gd3bj scf=xqc pop=npa geom=c
 heck
 ----------------------------------------------------------------------

 -----------------------------------
 CID_43085336_JID_3609_Energie_anion
 -----------------------------------
 Structure from the checkpoint file:  "JID_3609.chk"
 Charge = -1 Multiplicity = 2

                         Standard orientation:
 ---------------------------------------------------------------------
 Center     Atomic      Atomic             Coordinates (Angstroms)
 Number     Number       Type             X           Y           Z
 ---------------------------------------------------------------------
      1          6           0       -4.892323   -0.890275    0.178299
      2          6           0       -3.500224   -0.347036    0.090725
      3          7           0       -2.424114   -1.043443    0.314530
      4          6           0       -1.278104   -0.283227    0.163343
      5          6           0       -1.484051    1.019121   -0.188954
      6         16           0       -3.185293    1.334784   -0.341864
      7          6           0        0.059062   -0.929333    0.401783
      8          7           0        1.134619   -0.133703   -0.174972
      9          6           0        2.497860   -0.579533    0.146066
     10          6           0        2.851566   -1.929643   -0.499232
     11          6           0        3.488132    0.546860   -0.229179
     12          6           0        3.175577    1.832384    0.546418
     13          6           0        4.951656    0.138951   -0.013376
     14          1           0       -5.479012   -0.369421    0.943643
     15          1           0       -5.424635   -0.789338   -0.774279
     16          1           0       -4.835067   -1.949263    0.439665
     17          1           0       -0.738331    1.783193   -0.347626
     18          1           0        0.239570   -1.000040    1.483703
     19          1           0        0.001448   -1.969384    0.036861
     20          1           0        1.021751   -0.104145   -1.188350
     21          1           0        2.530632   -0.698446    1.239416
     22          1           0        2.926551   -1.827156   -1.590145
     23          1           0        3.803941   -2.324279   -0.132843
     24          1           0        2.083175   -2.679325   -0.284713
     25          1           0        3.348756    0.750414   -1.303744
     26          1           0        3.369180    1.689741    1.617873
     27          1           0        3.806552    2.660067    0.202821
     28          1           0        2.126464    2.112078    0.429056
     29          1           0        5.259024   -0.682458   -0.667402
     30          1           0        5.617013    0.986623   -0.211687
     31          1           0        5.119232   -0.175005    1.025323
 ---------------------------------------------------------------------

 SCF Done:  E(UB3LYP) =  -899.802126761     A.U. after   33 cycles
 SCF Done:  E(UB3LYP) =  -899.802126762     a.u. after    1 cycles

 The electronic state is 2-A.
 Alpha  occ. eigenvalues --  -88.77364 -14.20625 -14.20059 -10.13224 -10.10236
 Alpha  occ. eigenvalues --  -10.10155 -10.10112 -10.08884 -10.08252 -10.07614
 Alpha  occ. eigenvalues --  -10.06234 -10.05942 -10.05437  -7.86014  -5.82281
 Alpha  occ. eigenvalues --   -5.81941  -5.81625  -0.86070  -0.81542  -0.70887
 Alpha  occ. eigenvalues --   -0.69131  -0.67808  -0.63692  -0.60904  -0.58240
 Alpha  occ. eigenvalues --   -0.55689  -0.52312  -0.47703  -0.46957  -0.43504
 Alpha  occ. eigenvalues --   -0.39458  -0.37597  -0.36224  -0.35488  -0.34443
 Alpha  occ. eigenvalues --   -0.34065  -0.33656  -0.32278  -0.30921  -0.30714
 Alpha  occ. eigenvalues --   -0.28962  -0.28715  -0.28129  -0.27760  -0.26901
 Alpha  occ. eigenvalues --   -0.26052  -0.25390  -0.23624  -0.23299  -0.22109
 Alpha  occ. eigenvalues --   -0.18143  -0.17468  -0.13902  -0.12929   0.04485
 Alpha virt. eigenvalues --    0.05756   0.06591   0.07310   0.07543   0.07940
 Alpha virt. eigenvalues --    0.09364   0.09671   0.09902   0.10174   0.10475
 Alpha virt. eigenvalues --    0.10743   0.10936   0.11870   0.12073   0.12870

  Beta  occ. eigenvalues --  -88.77351 -14.20605 -14.20056 -10.13086 -10.10228
  Beta  occ. eigenvalues --  -10.10151 -10.10105 -10.08808 -10.08233 -10.07604
  Beta  occ. eigenvalues --  -10.06209 -10.05907 -10.05420  -7.86002  -5.82276
  Beta  occ. eigenvalues --   -5.81936  -5.81586  -0.85966  -0.81527  -0.70848
  Beta  occ. eigenvalues --   -0.69041  -0.67686  -0.63649  -0.60859  -0.58179
  Beta  occ. eigenvalues --   -0.55609  -0.52254  -0.47610  -0.46869  -0.43399
  Beta  occ. eigenvalues --   -0.39411  -0.37539  -0.36164  -0.35440  -0.34262
  Beta  occ. eigenvalues --   -0.33986  -0.33601  -0.32236  -0.30869  -0.30638
  Beta  occ. eigenvalues --   -0.28905  -0.28679  -0.28072  -0.27705  -0.26765
  Beta  occ. eigenvalues --   -0.26006  -0.25325  -0.23588  -0.23253  -0.22083
  Beta  occ. eigenvalues --   -0.17879  -0.17422  -0.13649  -0.12749
  Beta virt. eigenvalues --    0.06519   0.06805   0.07392   0.07784   0.07879
  Beta virt. eigenvalues --    0.08304   0.09627   0.09875   0.10243   0.10471
  Beta virt. eigenvalues --    0.10784   0.10929   0.11401   0.12006   0.12197

 Mulliken charges and spin densities:
               1          2
     1  C    2.337939  -2.396092
     2  C   -0.463456   1.154884
     3  N    0.014600   0.080874
     4  C    0.650909  -1.728767
     5  C    0.646775   0.477636
     6  S   -0.476412  -0.169842
     7  C   -2.735669   1.342581
     8  N    0.113268  -0.008561
     9  C    0.009139  -0.417644
    10  C    0.997436  -1.628484
    11  C   -1.834177   2.340698
    12  C    0.063048  -0.580042
    13  C    1.046313  -1.783078
    14  H    0.010578   0.140671
    15  H   -0.462256   0.638830
    16  H   -0.044500   0.203334
    17  H   -0.059809   0.387038
    18  H    0.065330   0.110805
    19  H    0.067584   0.104019
    20  H    0.199972   0.017681
    21  H    0.072352   0.073688
    22  H   -0.139158   0.296305
    23  H   -0.122437   0.271443
    24  H   -0.084054   0.211185
    25  H   -0.067324   0.202467
    26  H   -0.050172   0.171629
    27  H   -0.249734   0.386264
    28  H    0.295128  -0.141145
    29  H   -0.251795   0.395824
    30  H   -0.416895   0.566803
    31  H   -0.132523   0.278994
 Sum of Mulliken charges =  -1.00000   1.00000

 Dipole moment (field-independent basis, Debye):
    X=             -2.5528    Y=              1.1941    Z=              1.4863  Tot=              3.1862
 Quadrupole moment (field-independent basis, Debye-Ang):
   XX=           -212.6624   YY=           -125.7551   ZZ=           -114.9453
   XY=             -8.7243   XZ=             -5.1767   YZ=             -2.0423

 Summary of Natural Population Analysis:

                                       Natural Population
                Natural  -----------------------------------------------
    Atom  No    Charge         Core      Valence    Rydberg      Total
 -----------------------------------------------------------------------
      C    1   -0.30882      0.99961     2.30273    0.00648     3.30882
      C    2    0.06303      0.99963     1.91986    0.01748     2.93697
      N    3   -0.25076      0.99963     2.73969    0.01144     3.75076
      C    4    0.06060      0.99948     1.92626    0.01366     2.93940
      C    5   -0.19752      0.99945     2.18875    0.00932     3.19752
      S    6    0.17355      4.99943     2.80737    0.01964     7.82645
      C    7   -0.09272      0.99958     2.08322    0.00993     3.09272
      N    8   -0.34046      0.99974     2.83053    0.01019     3.84046
      C    9   -0.00441      0.99958     1.99278    0.01205     3.00441
      C   10   -0.29676      0.99965     2.29103    0.00609     3.29676
      C   11   -0.11304      0.99960     2.10257    0.01087     3.11304
      C   12   -0.28365      0.99965     2.27895    0.00505     3.28365
      C   13   -0.28588      0.99965     2.28015    0.00608     3.28588
      H   14    0.10428      0.00000     0.39479    0.00093     0.39572
      H   15    0.11197      0.00000     0.38436    0.00367     0.38803
      H   16    0.11289      0.00000     0.38565    0.00146     0.38711
      H   17    0.11727      0.00000     0.38131    0.00142     0.38273
      H   18    0.09824      0.00000     0.40030    0.00146     0.40176
      H   19    0.08901      0.00000     0.40893    0.00206     0.41099
      H   20    0.17037      0.00000     0.32665    0.00298     0.32963
      H   21    0.08782      0.00000     0.41036    0.00182     0.41218
      H   22    0.09664      0.00000     0.40227    0.00109     0.40336
      H   23    0.10283      0.00000     0.39624    0.00093     0.39717
      H   24    0.09963      0.00000     0.39935    0.00102     0.40037
      H   25    0.08964      0.00000     0.40856    0.00179     0.41036
      H   26    0.09384      0.00000     0.40516    0.00100     0.40616
      H   27    0.09639      0.00000     0.40269    0.00092     0.40361
      H   28    0.10817      0.00000     0.39047    0.00136     0.39183
      H   29    0.10112      0.00000     0.39756    0.00132     0.39888
      H   30    0.10084      0.00000     0.39794    0.00122     0.39916
      H   31    0.09587      0.00000     0.40298    0.00115     0.40413
 =======================================================================
   * Total *    0.00000     16.99466    36.83947    0.16587    54.00000

 Normal termination of Gaussian 16 at Thu Dec 10 00:13:12 2020.
