 Gaussian 16, Revision A.03,

 -----------------------------------------------------------
 # opt freq B3LYP/6-31G(d) empiricaldispersion=gd3bj scf=xqc
 -----------------------------------------------------------

 ------------------------------
 CID_13360468_JID_7837_neutraal
 ------------------------------
 Symbolic Z-matrix:
 Charge =  0 Multiplicity = 1

 SCF Done:  E(RB3LYP) =  -800.854257884     A.U. after   17 cycles
 SCF Done:  E(RB3LYP) =  -800.862424872     A.U. after   14 cycles
 SCF Done:  E(RB3LYP) =  -800.866116493     A.U. after   16 cycles
 SCF Done:  E(RB3LYP) =  -800.867666289     A.U. after   14 cycles
 SCF Done:  E(RB3LYP) =  -800.868293900     A.U. after   14 cycles
 SCF Done:  E(RB3LYP) =  -800.869156754     A.U. after   13 cycles
 SCF Done:  E(RB3LYP) =  -800.870910727     A.U. after   14 cycles
 SCF Done:  E(RB3LYP) =  -800.872276145     A.U. after   16 cycles
 SCF Done:  E(RB3LYP) =  -800.872877603     A.U. after   14 cycles
 SCF Done:  E(RB3LYP) =  -800.873699591     A.U. after   13 cycles
 SCF Done:  E(RB3LYP) =  -800.874195973     A.U. after   12 cycles
 SCF Done:  E(RB3LYP) =  -800.874231005     A.U. after   12 cycles
 SCF Done:  E(RB3LYP) =  -800.874235590     A.U. after   11 cycles
 SCF Done:  E(RB3LYP) =  -800.874236549     A.U. after    9 cycles
 SCF Done:  E(RB3LYP) =  -800.874236825     A.U. after    7 cycles
 SCF Done:  E(RB3LYP) =  -800.874236838     A.U. after    6 cycles
 Optimization completed.
    -- Stationary point found.
 Normal termination of Gaussian 16 at Fri Dec 11 13:32:07 2020.

 --------------------------------------------------------------------
 #N Geom=AllCheck Guess=TCheck SCRF=Check GenChk RB3LYP/6-31G(d) Freq
 --------------------------------------------------------------------

 Structure from the checkpoint file:  "JID_7837.chk"
 ------------------------------
 CID_13360468_JID_7837_neutraal
 ------------------------------
 Charge =  0 Multiplicity = 1

 SCF Done:  E(RB3LYP) =  -800.874236838     A.U. after    1 cycles

  Exact polarizability: 339.590  -3.074 140.931  -0.678   6.259  80.040
 Approx polarizability: 441.374  -2.612 248.709   4.572  12.047 124.209

                      1                      2                      3
                      A                      A                      A
 Frequencies --     26.4497                29.3175                45.1255
 Red. masses --      4.2926                 4.0484                 4.6798
 Frc consts  --      0.0018                 0.0021                 0.0056
 IR Inten    --      0.2382                 1.7194                 0.2304

                      4                      5                      6
                      A                      A                      A
 Frequencies --     66.5728                86.7707               110.5557
 Red. masses --      3.7050                 3.0659                 1.7182
 Frc consts  --      0.0097                 0.0136                 0.0124
 IR Inten    --      0.1017                 0.2891                 1.9601

                      7                      8                      9
                      A                      A                      A
 Frequencies --    112.3182               131.5237               149.1208
 Red. masses --      1.8210                 4.5530                 1.1907
 Frc consts  --      0.0135                 0.0464                 0.0156
 IR Inten    --      1.3838                 1.7509                 0.0769

                     10                     11                     12
                      A                      A                      A
 Frequencies --    164.1132               182.4945               212.0858
 Red. masses --      4.7891                 3.7303                 3.3414
 Frc consts  --      0.0760                 0.0732                 0.0886
 IR Inten    --      0.5525                 1.2712                 0.8651

                     13                     14                     15
                      A                      A                      A
 Frequencies --    247.8557               263.6323               266.9189
 Red. masses --      2.4483                 3.3028                 1.9294
 Frc consts  --      0.0886                 0.1352                 0.0810
 IR Inten    --      3.4380                 2.0142                 4.5668

                     16                     17                     18
                      A                      A                      A
 Frequencies --    313.2147               338.5817               386.5475
 Red. masses --      4.0552                 4.3941                 5.2442
 Frc consts  --      0.2344                 0.2968                 0.4617
 IR Inten    --     21.0429                 3.8489                 3.8367

                     19                     20                     21
                      A                      A                      A
 Frequencies --    399.1218               434.6777               465.1581
 Red. masses --      5.3447                 3.5371                 7.1704
 Frc consts  --      0.5016                 0.3938                 0.9141
 IR Inten    --      2.7440                 1.9278                33.0746

                     22                     23                     24
                      A                      A                      A
 Frequencies --    490.7846               526.3629               565.5159
 Red. masses --      4.1152                 3.0458                 3.1730
 Frc consts  --      0.5840                 0.4972                 0.5979
 IR Inten    --      6.7182                17.8395                 3.4235

                     25                     26                     27
                      A                      A                      A
 Frequencies --    586.0475               631.4632               653.0107
 Red. masses --      3.8017                 4.6989                 6.6749
 Frc consts  --      0.7693                 1.1039                 1.6770
 IR Inten    --      2.6328                16.5381                 2.0850

                     28                     29                     30
                      A                      A                      A
 Frequencies --    729.3775               739.3129               746.9440
 Red. masses --      4.4065                 4.9540                 5.0888
 Frc consts  --      1.3812                 1.5954                 1.6728
 IR Inten    --      2.2264                 7.5864                 1.0783

                     31                     32                     33
                      A                      A                      A
 Frequencies --    796.0998               829.4043               847.7294
 Red. masses --      4.9213                 1.2617                 5.3517
 Frc consts  --      1.8377                 0.5114                 2.2660
 IR Inten    --      4.1058                 2.1298                10.6504

                     34                     35                     36
                      A                      A                      A
 Frequencies --    860.8170               884.7559               903.7521
 Red. masses --      1.6501                 3.1681                 1.9212
 Frc consts  --      0.7204                 1.4612                 0.9245
 IR Inten    --     48.9811                13.2737                20.6656

                     37                     38                     39
                      A                      A                      A
 Frequencies --    968.2332               977.7896               984.0598
 Red. masses --      3.4826                 1.3158                 1.3120
 Frc consts  --      1.9236                 0.7412                 0.7485
 IR Inten    --     22.1448                 0.0702                 0.8511

                     40                     41                     42
                      A                      A                      A
 Frequencies --   1026.3080              1028.7945              1069.8188
 Red. masses --      2.4955                 1.9505                 1.5732
 Frc consts  --      1.5487                 1.2163                 1.0608
 IR Inten    --      2.4073                28.1912                 3.5041

                     43                     44                     45
                      A                      A                      A
 Frequencies --   1075.7204              1089.5668              1137.7079
 Red. masses --      6.3795                 5.8464                 1.2414
 Frc consts  --      4.3495                 4.0893                 0.9467
 IR Inten    --     86.9893               120.7449                13.9601

                     46                     47                     48
                      A                      A                      A
 Frequencies --   1170.8572              1184.7991              1186.1695
 Red. masses --      1.8011                 1.2699                 1.2742
 Frc consts  --      1.4548                 1.0503                 1.0563
 IR Inten    --    282.5629                 0.7450                 0.8873

                     49                     50                     51
                      A                      A                      A
 Frequencies --   1195.8060              1218.0746              1220.4591
 Red. masses --      1.7299                 1.3961                 1.4996
 Frc consts  --      1.4574                 1.2205                 1.3160
 IR Inten    --     41.4335                21.9043                17.4713

                     52                     53                     54
                      A                      A                      A
 Frequencies --   1266.9712              1305.7892              1318.5353
 Red. masses --      3.0843                 3.4906                 3.8109
 Frc consts  --      2.9170                 3.5067                 3.9036
 IR Inten    --     74.3667              1208.7391                79.3796

                     55                     56                     57
                      A                      A                      A
 Frequencies --   1335.7444              1371.5308              1378.2877
 Red. masses --      1.3503                 4.9845                 2.3453
 Frc consts  --      1.4195                 5.5244                 2.6250
 IR Inten    --      1.0463               126.3401                15.6311

                     58                     59                     60
                      A                      A                      A
 Frequencies --   1438.4973              1474.2603              1491.5789
 Red. masses --      1.2813                 3.5342                 1.2013
 Frc consts  --      1.5622                 4.5257                 1.5747
 IR Inten    --     13.1638                23.2389                15.6602

                     61                     62                     63
                      A                      A                      A
 Frequencies --   1500.0036              1504.9132              1511.6178
 Red. masses --      1.2396                 1.0969                 1.0487
 Frc consts  --      1.6433                 1.4637                 1.4119
 IR Inten    --     11.1140                24.4568                 4.3801

                     64                     65                     66
                      A                      A                      A
 Frequencies --   1513.1350              1521.4747              1522.5640
 Red. masses --      1.0728                 4.0248                 1.0487
 Frc consts  --      1.4472                 5.4893                 1.4323
 IR Inten    --      6.5858               141.5259                 6.6488

                     67                     68                     69
                      A                      A                      A
 Frequencies --   1526.7647              1533.8542              1561.2534
 Red. masses --      1.0720                 1.1126                 2.6705
 Frc consts  --      1.4722                 1.5423                 3.8353
 IR Inten    --      4.3014                38.8485               177.4842

                     70                     71                     72
                      A                      A                      A
 Frequencies --   1628.0472              1665.2435              1669.0435
 Red. masses --      7.2483                 7.3606                 6.4117
 Frc consts  --     11.3193                12.0259                10.5234
 IR Inten    --      3.2693                14.8414               228.6502

                     73                     74                     75
                      A                      A                      A
 Frequencies --   1787.9592              3034.7773              3072.4362
 Red. masses --     10.6096                 1.0343                 1.0347
 Frc consts  --     19.9831                 5.6123                 5.7546
 IR Inten    --    364.2139                68.4528                14.9781

                     76                     77                     78
                      A                      A                      A
 Frequencies --   3073.1056              3097.5824              3136.3138
 Red. masses --      1.0295                 1.1071                 1.1004
 Frc consts  --      5.7285                 6.2587                 6.3775
 IR Inten    --     44.3947                37.0660                 6.4287

                     79                     80                     81
                      A                      A                      A
 Frequencies --   3146.3393              3154.9222              3167.5816
 Red. masses --      1.1072                 1.1044                 1.1006
 Frc consts  --      6.4580                 6.4768                 6.5061
 IR Inten    --     22.4916                13.6849                26.7338

                     82                     83                     84
                      A                      A                      A
 Frequencies --   3176.9562              3213.1817              3223.4126
 Red. masses --      1.1071                 1.0880                 1.0871
 Frc consts  --      6.5836                 6.6181                 6.6552
 IR Inten    --     19.6938                 3.6022                 6.3273

                     85                     86                     87
                      A                      A                      A
 Frequencies --   3227.6845              3231.4946              3236.4770
 Red. masses --      1.0952                 1.0887                 1.0936
 Frc consts  --      6.7222                 6.6981                 6.7493
 IR Inten    --      7.3917                 0.1400                 9.2859

 - Thermochemistry -
 -------------------
 Temperature   298.150 Kelvin.  Pressure   1.00000 Atm.
 Atom     1 has atomic number  6 and mass  12.00000

 Molecular mass:   234.10044 amu.
 Principal axes and moments of inertia in atomic units:
                           1         2         3
     Eigenvalues --   996.81346********************
           X            0.99999   0.00125  -0.00392
           Y           -0.00120   0.99991   0.01369
           Z            0.00393  -0.01368   0.99990
 This molecule is an asymmetric top.
 Rotational symmetry number  1.
 Warning -- assumption of classical behavior for rotation
           may cause significant error
 Rotational temperatures (Kelvin)      0.08689     0.00678     0.00642
 Rotational constants (GHZ):           1.81051     0.14130     0.13373
 Zero-point vibrational energy     650631.1 (Joules/Mol)
                                  155.50458 (Kcal/Mol)
 Warning -- explicit consideration of  25 degrees of freedom as
           vibrations may cause significant error
 Vibrational temperatures:     38.06    42.18    64.93    95.78   124.84
          (Kelvin)            159.06   161.60   189.23   214.55   236.12
                              262.57   305.14   356.61   379.31   384.04
                              450.65   487.14   556.16   574.25   625.40
                              669.26   706.13   757.32   813.65   843.19
                              908.53   939.54  1049.41  1063.71  1074.69
                             1145.41  1193.33  1219.69  1238.52  1272.97
                             1300.30  1393.07  1406.82  1415.84  1476.63
                             1480.21  1539.23  1547.72  1567.64  1636.91
                             1684.60  1704.66  1706.63  1720.50  1752.54
                             1755.97  1822.89  1878.74  1897.08  1921.84
                             1973.33  1983.05  2069.68  2121.13  2146.05
                             2158.17  2165.23  2174.88  2177.06  2189.06
                             2190.63  2196.67  2206.87  2246.30  2342.40
                             2395.91  2401.38  2572.47  4366.37  4420.55
                             4421.51  4456.73  4512.46  4526.88  4539.23
                             4557.44  4570.93  4623.05  4637.77  4643.92
                             4649.40  4656.57

 Zero-point correction=                           0.247812 (Hartree/Particle)
 Thermal correction to Energy=                    0.264934
 Thermal correction to Enthalpy=                  0.265878
 Thermal correction to Gibbs Free Energy=         0.200828
 Sum of electronic and zero-point Energies=           -800.626425
 Sum of electronic and thermal Energies=              -800.609303
 Sum of electronic and thermal Enthalpies=            -800.608358
 Sum of electronic and thermal Free Energies=         -800.673409

                     E (Thermal)             CV                S
                      KCal/Mol        Cal/Mol-Kelvin    Cal/Mol-Kelvin
 Total                  166.249             61.639            136.911
 Electronic               0.000              0.000              0.000
 Translational            0.889              2.981             42.253
 Rotational               0.889              2.981             33.507
 Vibrational            164.471             55.678             61.150
 Vibration     1          0.593              1.985              6.079
 Vibration     2          0.593              1.984              5.875
 Vibration     3          0.595              1.979              5.020
 Vibration     4          0.598              1.970              4.252
 Vibration     5          0.601              1.958              3.732
 Vibration     6          0.606              1.941              3.259
 Vibration     7          0.607              1.939              3.228
 Vibration     8          0.612              1.922              2.924
 Vibration     9          0.618              1.904              2.683
 Vibration    10          0.623              1.887              2.502
 Vibration    11          0.630              1.864              2.303
 Vibration    12          0.643              1.822              2.026
 Vibration    13          0.661              1.766              1.746
 Vibration    14          0.670              1.740              1.638
 Vibration    15          0.672              1.734              1.616
 Vibration    16          0.701              1.648              1.345
 Vibration    17          0.719              1.598              1.219
 Vibration    18          0.755              1.499              1.013
 Vibration    19          0.765              1.472              0.966
 Vibration    20          0.795              1.395              0.844
 Vibration    21          0.823              1.327              0.751
 Vibration    22          0.847              1.270              0.682
 Vibration    23          0.881              1.192              0.595
 Vibration    24          0.921              1.106              0.513
 Vibration    25          0.943              1.062              0.474

 Optimization completed.
    -- Stationary point found.
 Normal termination of Gaussian 16 at Fri Dec 11 13:40:23 2020.

 ----------------------------------------------------------------------
 # B3LYP/6-311++G(d,p) empiricaldispersion=gd3bj scf=xqc pop=npa geom=c
 heck
 ----------------------------------------------------------------------

 --------------------------------------
 CID_13360468_JID_7837_Energie_neutraal
 --------------------------------------
 Structure from the checkpoint file:  "JID_7837.chk"
 Charge =  0 Multiplicity = 1

 SCF Done:  E(RB3LYP) =  -801.097559118     A.U. after   18 cycles
 Normal termination of Gaussian 16 at Fri Dec 11 13:45:17 2020.

 ----------------------------------------------------------------------
 # B3LYP/6-311++G(d,p) empiricaldispersion=gd3bj scf=xqc pop=npa geom=c
 heck
 ----------------------------------------------------------------------

 ------------------------------------
 CID_13360468_JID_7837_Energie_kation
 ------------------------------------
 Structure from the checkpoint file:  "JID_7837.chk"
 Charge =  1 Multiplicity = 2

 SCF Done:  E(UB3LYP) =  -800.808430191     A.U. after   28 cycles
 Normal termination of Gaussian 16 at Fri Dec 11 13:55:52 2020.
 Gaussian 16:  ES64L-G16RevA.03 25-Dec-2016

 ----------------------------------------------------------------------
 # B3LYP/6-311++G(d,p) empiricaldispersion=gd3bj scf=xqc pop=npa geom=c
 heck
 ----------------------------------------------------------------------

 -----------------------------------
 CID_13360468_JID_7837_Energie_anion
 -----------------------------------
 Structure from the checkpoint file:  "JID_7837.chk"
 Charge = -1 Multiplicity = 2

                         Standard orientation:
 ---------------------------------------------------------------------
 Center     Atomic      Atomic             Coordinates (Angstroms)
 Number     Number       Type             X           Y           Z
 ---------------------------------------------------------------------
      1          6           0       -2.647977   -1.998216    0.554931
      2          6           0       -2.006428   -0.694685    0.162464
      3          6           0       -2.624317    0.448308   -0.214889
      4          6           0       -4.064338    0.716454   -0.304753
      5          8           0       -4.525166    1.803355   -0.603089
      6          8           0       -4.848459   -0.357609   -0.021064
      7          6           0       -6.257754   -0.110314   -0.105326
      8          7           0       -0.593126   -0.784157    0.108555
      9          7           0        0.026578    0.273819    0.407280
     10          6           0        1.424499    0.213511    0.253827
     11          6           0        2.128570    1.371190    0.625168
     12          6           0        3.506960    1.425890    0.510647
     13          6           0        4.210737    0.314406    0.020321
     14          6           0        3.515498   -0.850131   -0.353099
     15          6           0        2.133405   -0.894722   -0.235632
     16          8           0        5.557580    0.458749   -0.057389
     17          6           0        6.327893   -0.630244   -0.547434
     18          1           0       -3.272583   -1.869027    1.443508
     19          1           0       -1.867657   -2.733756    0.764404
     20          1           0       -3.300668   -2.379800   -0.235216
     21          1           0       -2.007802    1.297369   -0.486725
     22          1           0       -6.555190    0.669056    0.601331
     23          1           0       -6.534099    0.207121   -1.114433
     24          1           0       -6.736268   -1.058082    0.143923
     25          1           0        1.562363    2.217546    1.000425
     26          1           0        4.067143    2.311370    0.790958
     27          1           0        4.046682   -1.714364   -0.733605
     28          1           0        1.580415   -1.783445   -0.517971
     29          1           0        6.215210   -1.517341    0.088213
     30          1           0        6.050630   -0.883901   -1.578184
     31          1           0        7.365534   -0.295030   -0.522485
 ---------------------------------------------------------------------

 SCF Done:  E(UB3LYP) =  -801.143973365     A.U. after   23 cycles

 The electronic state is 2-A.
 Alpha  occ. eigenvalues --  -19.05115 -19.03603 -18.96068 -14.17012 -14.16873
 Alpha  occ. eigenvalues --  -10.15075 -10.13896 -10.11725 -10.11055 -10.06040
 Alpha  occ. eigenvalues --  -10.05632 -10.05601 -10.05064 -10.04572 -10.04016
 Alpha  occ. eigenvalues --  -10.03391 -10.01024  -0.97244  -0.96947  -0.87790
 Alpha  occ. eigenvalues --   -0.86028  -0.73326  -0.68139  -0.64699  -0.63149
 Alpha  occ. eigenvalues --   -0.61930  -0.59312  -0.56339  -0.53431  -0.49521
 Alpha  occ. eigenvalues --   -0.46852  -0.44602  -0.42782  -0.41069  -0.38053
 Alpha  occ. eigenvalues --   -0.38033  -0.37026  -0.36502  -0.35790  -0.33283
 Alpha  occ. eigenvalues --   -0.32063  -0.31799  -0.30748  -0.30389  -0.29431
 Alpha  occ. eigenvalues --   -0.28124  -0.27807  -0.27063  -0.26397  -0.25860
 Alpha  occ. eigenvalues --   -0.24885  -0.23310  -0.22883  -0.22180  -0.21122
 Alpha  occ. eigenvalues --   -0.19799  -0.18217  -0.14310  -0.14006  -0.12805
 Alpha  occ. eigenvalues --   -0.09095  -0.06778   0.00950
 Alpha virt. eigenvalues --    0.06279   0.07620   0.08948   0.09618   0.10069
 Alpha virt. eigenvalues --    0.10134   0.10468   0.11240   0.11462   0.11683
 Alpha virt. eigenvalues --    0.12012   0.12333   0.13189   0.13579   0.13885

  Beta  occ. eigenvalues --  -19.05060 -19.03562 -18.95903 -14.16583 -14.16244
  Beta  occ. eigenvalues --  -10.15029 -10.13897 -10.11727 -10.10855 -10.05964
  Beta  occ. eigenvalues --  -10.05696 -10.05677 -10.05127 -10.04471 -10.03817
  Beta  occ. eigenvalues --  -10.03387 -10.00842  -0.97122  -0.96812  -0.87542
  Beta  occ. eigenvalues --   -0.84968  -0.73123  -0.67658  -0.64547  -0.62982
  Beta  occ. eigenvalues --   -0.61758  -0.59188  -0.56075  -0.52730  -0.49377
  Beta  occ. eigenvalues --   -0.46688  -0.44420  -0.42686  -0.40769  -0.37963
  Beta  occ. eigenvalues --   -0.37880  -0.36747  -0.36346  -0.35681  -0.33181
  Beta  occ. eigenvalues --   -0.31880  -0.31643  -0.30649  -0.30075  -0.29143
  Beta  occ. eigenvalues --   -0.27944  -0.27240  -0.26605  -0.26218  -0.25527
  Beta  occ. eigenvalues --   -0.23839  -0.23037  -0.22518  -0.21961  -0.20945
  Beta  occ. eigenvalues --   -0.18441  -0.17678  -0.14080  -0.13575  -0.11691
  Beta  occ. eigenvalues --   -0.07802  -0.06022
  Beta virt. eigenvalues --    0.06273   0.07268   0.07617   0.08938   0.09618
  Beta virt. eigenvalues --    0.10069   0.10293   0.10887   0.11339   0.11462
  Beta virt. eigenvalues --    0.11714   0.12343   0.12701   0.13293   0.13584

 Mulliken charges and spin densities:
               1          2
     1  C   -0.745779  -0.039091
     2  C   -0.236793   0.018010
     3  C    0.409888   0.181558
     4  C   -0.309492   0.055967
     5  O   -0.350084   0.052585
     6  O   -0.156770   0.006213
     7  C   -0.247328   0.000917
     8  N    0.117615   0.238000
     9  N   -0.083621   0.262743
    10  C   -0.370161  -0.108460
    11  C    0.130988   0.051214
    12  C   -0.327363  -0.052793
    13  C   -0.589305   0.126687
    14  C    0.205360  -0.056952
    15  C   -0.062574   0.250356
    16  O   -0.175355   0.010321
    17  C   -0.301471  -0.003119
    18  H    0.162920   0.000147
    19  H    0.113210   0.009217
    20  H    0.150960   0.015203
    21  H    0.205192  -0.009620
    22  H    0.163033   0.000849
    23  H    0.162221   0.000741
    24  H    0.114167  -0.000234
    25  H    0.149785  -0.006375
    26  H    0.149115   0.002362
    27  H    0.146324   0.003728
    28  H    0.151106  -0.017205
    29  H    0.136135   0.003544
    30  H    0.137140   0.003722
    31  H    0.150936  -0.000236
 Sum of Mulliken charges =  -1.00000   1.00000

 Dipole moment (field-independent basis, Debye):
    X=              3.7492    Y=             -3.5382    Z=             -0.1573  Tot=              5.1575
 Quadrupole moment (field-independent basis, Debye-Ang):
   XX=           -142.6712   YY=           -115.1839   ZZ=           -108.5409
   XY=              5.8409   XZ=             -7.7102   YZ=              3.5234

 Summary of Natural Population Analysis:

                                       Natural Population
                Natural  -----------------------------------------------
    Atom  No    Charge         Core      Valence    Rydberg      Total
 -----------------------------------------------------------------------
      C    1   -0.30132      0.99962     2.29728    0.00442     3.30132
      C    2    0.12111      0.99951     1.86570    0.01367     2.87889
      C    3   -0.14517      0.99942     2.13564    0.01011     3.14517
      C    4    0.38965      0.99966     1.58724    0.02345     2.61035
      O    5   -0.31169      0.99987     3.30565    0.00617     4.31169
      O    6   -0.28444      0.99987     3.27612    0.00846     4.28444
      C    7   -0.10556      0.99961     2.09731    0.00863     3.10556
      N    8   -0.07846      0.99969     2.55873    0.02004     3.57846
      N    9   -0.02796      0.99969     2.50625    0.02202     3.52796
      C   10    0.03129      0.99948     1.95553    0.01370     2.96871
      C   11   -0.06270      0.99953     2.05431    0.00885     3.06270
      C   12   -0.14930      0.99954     2.14093    0.00883     3.14930
      C   13    0.18916      0.99941     1.80006    0.01136     2.81084
      C   14   -0.16976      0.99954     2.16285    0.00738     3.16976
      C   15   -0.04880      0.99953     2.04035    0.00892     3.04880
      O   16   -0.27241      0.99985     3.26286    0.00971     4.27241
      C   17   -0.10030      0.99961     2.09257    0.00811     3.10030
      H   18    0.10263      0.00000     0.39642    0.00096     0.39737
      H   19    0.10135      0.00000     0.39706    0.00159     0.39865
      H   20    0.10440      0.00000     0.39452    0.00108     0.39560
      H   21    0.10970      0.00000     0.38825    0.00205     0.39030
      H   22    0.08724      0.00000     0.41151    0.00124     0.41276
      H   23    0.08708      0.00000     0.41167    0.00125     0.41292
      H   24    0.08288      0.00000     0.41630    0.00083     0.41712
      H   25    0.10111      0.00000     0.39704    0.00185     0.39889
      H   26    0.09861      0.00000     0.39991    0.00148     0.40139
      H   27    0.09535      0.00000     0.40359    0.00105     0.40465
      H   28    0.10624      0.00000     0.39150    0.00225     0.39376
      H   29    0.08134      0.00000     0.41706    0.00160     0.41866
      H   30    0.08153      0.00000     0.41687    0.00160     0.41847
      H   31    0.08719      0.00000     0.41201    0.00080     0.41281
 =======================================================================
   * Total *   -0.00000     16.99343    44.79311    0.21346    62.00000

 Normal termination of Gaussian 16 at Fri Dec 11 14:04:29 2020.
