 Gaussian 16, Revision A.03,

 -----------------------------------------------------------
 # opt freq B3LYP/6-31G(d) empiricaldispersion=gd3bj scf=xqc
 -----------------------------------------------------------

 ------------------------------
 CID_91163829_JID_7669_neutraal
 ------------------------------
 Symbolic Z-matrix:
 Charge =  0 Multiplicity = 1

 SCF Done:  E(RB3LYP) =  -1049.62168600     A.U. after   16 cycles
 SCF Done:  E(RB3LYP) =  -1049.63011958     A.U. after   13 cycles
 SCF Done:  E(RB3LYP) =  -1049.63250725     A.U. after   13 cycles
 SCF Done:  E(RB3LYP) =  -1049.63513382     A.U. after   13 cycles
 SCF Done:  E(RB3LYP) =  -1049.63749280     A.U. after   13 cycles
 SCF Done:  E(RB3LYP) =  -1049.64145686     A.U. after   15 cycles
 SCF Done:  E(RB3LYP) =  -1049.64320945     A.U. after   14 cycles
 SCF Done:  E(RB3LYP) =  -1049.64502431     A.U. after   13 cycles
 SCF Done:  E(RB3LYP) =  -1049.64567642     A.U. after   13 cycles
 SCF Done:  E(RB3LYP) =  -1049.64575774     A.U. after   11 cycles
 SCF Done:  E(RB3LYP) =  -1049.64594382     A.U. after    9 cycles
 SCF Done:  E(RB3LYP) =  -1049.64594407     A.U. after    8 cycles
 SCF Done:  E(RB3LYP) =  -1049.64594487     A.U. after    9 cycles
 SCF Done:  E(RB3LYP) =  -1049.64594512     A.U. after    8 cycles
 SCF Done:  E(RB3LYP) =  -1049.64594516     A.U. after    7 cycles
 Optimization completed.
    -- Stationary point found.
 Normal termination of Gaussian 16 at Sun Dec 13 16:15:12 2020.

 --------------------------------------------------------------------
 #N Geom=AllCheck Guess=TCheck SCRF=Check GenChk RB3LYP/6-31G(d) Freq
 --------------------------------------------------------------------

 Structure from the checkpoint file:  "JID_7669.chk"
 ------------------------------
 CID_91163829_JID_7669_neutraal
 ------------------------------
 Charge =  0 Multiplicity = 1

 SCF Done:  E(RB3LYP) =  -1049.64594516     A.U. after    1 cycles

  Exact polarizability: 191.278  -5.666 190.945   0.643 -11.054 121.507
 Approx polarizability: 257.649 -20.301 372.532   4.116 -36.153 210.770

                      1                      2                      3
                      A                      A                      A
 Frequencies --     15.6667                36.1848                40.1084
 Red. masses --      4.2109                 4.7350                 5.5041
 Frc consts  --      0.0006                 0.0037                 0.0052
 IR Inten    --      0.0236                 0.7623                 0.0714

                      4                      5                      6
                      A                      A                      A
 Frequencies --     66.7368               156.0966               162.1013
 Red. masses --      6.3400                 1.3820                 3.1969
 Frc consts  --      0.0166                 0.0198                 0.0495
 IR Inten    --      1.6183                 0.4367                 1.8382

                      7                      8                      9
                      A                      A                      A
 Frequencies --    181.0242               186.5083               237.8840
 Red. masses --      3.3291                 4.4377                 3.0308
 Frc consts  --      0.0643                 0.0910                 0.1010
 IR Inten    --      1.1319                 0.6306                 0.1936

                     10                     11                     12
                      A                      A                      A
 Frequencies --    244.6900               296.3670               323.4869
 Red. masses --      3.2436                 4.3675                 5.5843
 Frc consts  --      0.1144                 0.2260                 0.3443
 IR Inten    --      1.2561                 0.2347                 3.3741

                     13                     14                     15
                      A                      A                      A
 Frequencies --    351.3977               393.2890               414.9950
 Red. masses --      2.9698                 3.4406                 2.9524
 Frc consts  --      0.2161                 0.3136                 0.2996
 IR Inten    --      0.2407                 0.4788                 0.0449

                     16                     17                     18
                      A                      A                      A
 Frequencies --    459.5972               499.3300               511.3832
 Red. masses --      2.9580                 5.3003                 4.6916
 Frc consts  --      0.3681                 0.7786                 0.7229
 IR Inten    --      1.6444                 3.2878                 0.4309

                     19                     20                     21
                      A                      A                      A
 Frequencies --    533.1669               554.1831               585.6226
 Red. masses --      4.6131                 4.2003                 4.3521
 Frc consts  --      0.7726                 0.7600                 0.8794
 IR Inten    --      4.2393                 2.8886                 7.3970

                     22                     23                     24
                      A                      A                      A
 Frequencies --    616.1093               634.8410               638.2387
 Red. masses --      5.0757                 5.3599                 5.9374
 Frc consts  --      1.1352                 1.2727                 1.4250
 IR Inten    --      9.6751                 8.3629                 5.7228

                     25                     26                     27
                      A                      A                      A
 Frequencies --    712.8301               729.1049               764.3347
 Red. masses --      2.1123                 3.0717                 5.4139
 Frc consts  --      0.6324                 0.9621                 1.8635
 IR Inten    --     25.0089                29.6569                19.2831

                     28                     29                     30
                      A                      A                      A
 Frequencies --    778.0218               801.6700               813.5888
 Red. masses --      2.4754                 1.3013                 3.9550
 Frc consts  --      0.8828                 0.4928                 1.5424
 IR Inten    --     13.3661                16.2680                23.0689

                     31                     32                     33
                      A                      A                      A
 Frequencies --    831.4777               858.7206               897.1192
 Red. masses --      3.8695                 1.2520                 1.7517
 Frc consts  --      1.5762                 0.5439                 0.8306
 IR Inten    --      3.2249                 0.2957                11.5462

                     34                     35                     36
                      A                      A                      A
 Frequencies --    901.6219               926.4434               931.1295
 Red. masses --      2.4972                 1.4099                 1.4501
 Frc consts  --      1.1961                 0.7130                 0.7407
 IR Inten    --      8.3200                 3.2795                 0.8890

                     37                     38                     39
                      A                      A                      A
 Frequencies --    967.7572               971.0871               997.3506
 Red. masses --      1.4573                 2.0381                 1.7617
 Frc consts  --      0.8041                 1.1324                 1.0324
 IR Inten    --      0.8632                 3.8893                20.9612

                     40                     41                     42
                      A                      A                      A
 Frequencies --   1000.7986              1023.0131              1029.9618
 Red. masses --      1.9039                 5.8247                 1.9262
 Frc consts  --      1.1236                 3.5916                 1.2039
 IR Inten    --     17.5565                 1.5796                 3.7087

                     43                     44                     45
                      A                      A                      A
 Frequencies --   1060.3882              1075.3695              1088.4016
 Red. masses --      2.2507                 1.5521                 2.9533
 Frc consts  --      1.4911                 1.0575                 2.0612
 IR Inten    --      2.4819                 6.8920                15.1674

                     46                     47                     48
                      A                      A                      A
 Frequencies --   1114.8916              1134.6299              1195.3250
 Red. masses --      1.7522                 2.0947                 1.1028
 Frc consts  --      1.2832                 1.5888                 0.9283
 IR Inten    --     17.2389                41.1527                 0.2366

                     49                     50                     51
                      A                      A                      A
 Frequencies --   1200.4315              1214.7881              1217.2357
 Red. masses --      2.2154                 1.4742                 1.1551
 Frc consts  --      1.8809                 1.2817                 1.0083
 IR Inten    --     53.5530                26.6768                 0.2501

                     52                     53                     54
                      A                      A                      A
 Frequencies --   1224.8930              1233.0223              1288.1057
 Red. masses --      1.6895                 2.7911                 1.5095
 Frc consts  --      1.4935                 2.5001                 1.4756
 IR Inten    --     14.0971                16.6679                 9.1511

                     55                     56                     57
                      A                      A                      A
 Frequencies --   1325.9135              1356.5183              1370.3499
 Red. masses --      1.4949                 1.9476                 1.9659
 Frc consts  --      1.5484                 2.1116                 2.1751
 IR Inten    --     45.5526                 8.7490                 2.2330

                     58                     59                     60
                      A                      A                      A
 Frequencies --   1377.0290              1397.0676              1402.0876
 Red. masses --      1.9763                 1.6811                 2.0144
 Frc consts  --      2.2080                 1.9332                 2.3332
 IR Inten    --      0.9689                10.0155                18.2840

                     61                     62                     63
                      A                      A                      A
 Frequencies --   1434.2681              1439.4464              1444.8671
 Red. masses --      1.3344                 1.7668                 1.5156
 Frc consts  --      1.6174                 2.1569                 1.8642
 IR Inten    --     24.0769                34.3298                10.1963

                     64                     65                     66
                      A                      A                      A
 Frequencies --   1504.6467              1507.4681              1518.5954
 Red. masses --      2.0372                 1.0446                 1.1449
 Frc consts  --      2.7174                 1.3986                 1.5556
 IR Inten    --      4.6947                 7.4842                 9.0697

                     67                     68                     69
                      A                      A                      A
 Frequencies --   1519.9099              1549.2795              1617.2358
 Red. masses --      1.1064                 2.1739                 6.6800
 Frc consts  --      1.5059                 3.0743                10.2937
 IR Inten    --      8.4881                 4.0940               182.7150

                     70                     71                     72
                      A                      A                      A
 Frequencies --   1636.7275              1650.3103              1668.2026
 Red. masses --      5.9148                 5.5475                 5.5405
 Frc consts  --      9.3356                 8.9019                 9.0844
 IR Inten    --      7.5616                 1.0698                 0.4227

                     73                     74                     75
                      A                      A                      A
 Frequencies --   1683.7207              2983.1045              3039.5629
 Red. masses --      6.7457                 1.0835                 1.0380
 Frc consts  --     11.2673                 5.6809                 5.6503
 IR Inten    --     69.3038                34.1595                35.6192

                     76                     77                     78
                      A                      A                      A
 Frequencies --   3064.6529              3089.2004              3107.7218
 Red. masses --      1.0594                 1.1001                 1.1058
 Frc consts  --      5.8624                 6.1853                 6.2920
 IR Inten    --     22.7158                19.4007                 8.5653

                     79                     80                     81
                      A                      A                      A
 Frequencies --   3132.0677              3164.4560              3180.7337
 Red. masses --      1.1004                 1.0895                 1.0863
 Frc consts  --      6.3601                 6.4281                 6.4753
 IR Inten    --     17.5102                21.1830                 5.4497

                     82                     83                     84
                      A                      A                      A
 Frequencies --   3185.5138              3194.1056              3194.9502
 Red. masses --      1.0870                 1.0903                 1.0909
 Frc consts  --      6.4991                 6.5540                 6.5607
 IR Inten    --      1.3706                 9.6724                25.8761

                     85                     86                     87
                      A                      A                      A
 Frequencies --   3203.6280              3213.8568              3236.7549
 Red. masses --      1.0940                 1.0980                 1.0929
 Frc consts  --      6.6155                 6.6822                 6.7462
 IR Inten    --     28.6943                18.9578                 5.1215

 - Thermochemistry -
 -------------------
 Temperature   298.150 Kelvin.  Pressure   1.00000 Atm.
 Atom     1 has atomic number  6 and mass  12.00000

 Molecular mass:   242.08777 amu.
 Principal axes and moments of inertia in atomic units:
                           1         2         3
     Eigenvalues --  2348.761526154.085787200.72513
           X            0.99996   0.00376   0.00777
           Y           -0.00386   0.99991   0.01303
           Z           -0.00772  -0.01306   0.99988
 This molecule is an asymmetric top.
 Rotational symmetry number  1.
 Warning -- assumption of classical behavior for rotation
           may cause significant error
 Rotational temperatures (Kelvin)      0.03688     0.01407     0.01203
 Rotational constants (GHZ):           0.76838     0.29326     0.25063
 Zero-point vibrational energy     661035.3 (Joules/Mol)
                                  157.99123 (Kcal/Mol)
 Warning -- explicit consideration of  22 degrees of freedom as
           vibrations may cause significant error
 Vibrational temperatures:     22.54    52.06    57.71    96.02   224.59
          (Kelvin)            233.23   260.45   268.34   342.26   352.05
                              426.41   465.43   505.58   565.86   597.09
                              661.26   718.42   735.77   767.11   797.35
                              842.58   886.44   913.39   918.28  1025.60
                             1049.02  1099.71  1119.40  1153.42  1170.57
                             1196.31  1235.51  1290.75  1297.23  1332.95
                             1339.69  1392.39  1397.18  1434.97  1439.93
                             1471.89  1481.89  1525.66  1547.22  1565.97
                             1604.08  1632.48  1719.81  1727.15  1747.81
                             1751.33  1762.35  1774.04  1853.30  1907.69
                             1951.73  1971.63  1981.24  2010.07  2017.29
                             2063.59  2071.04  2078.84  2164.85  2168.91
                             2184.92  2186.81  2229.07  2326.84  2354.89
                             2374.43  2400.17  2422.50  4292.02  4373.25
                             4409.35  4444.67  4471.32  4506.35  4552.95
                             4576.37  4583.24  4595.61  4596.82  4609.31
                             4624.02  4656.97

 Zero-point correction=                           0.251775 (Hartree/Particle)
 Thermal correction to Energy=                    0.266372
 Thermal correction to Enthalpy=                  0.267317
 Thermal correction to Gibbs Free Energy=         0.207887
 Sum of electronic and zero-point Energies=          -1049.394170
 Sum of electronic and thermal Energies=             -1049.379573
 Sum of electronic and thermal Enthalpies=           -1049.378629
 Sum of electronic and thermal Free Energies=        -1049.438058

                     E (Thermal)             CV                S
                      KCal/Mol        Cal/Mol-Kelvin    Cal/Mol-Kelvin
 Total                  167.151             56.765            125.080
 Electronic               0.000              0.000              0.000
 Translational            0.889              2.981             42.353
 Rotational               0.889              2.981             33.009
 Vibrational            165.374             50.804             49.718
 Vibration     1          0.593              1.986              7.119
 Vibration     2          0.594              1.982              5.458
 Vibration     3          0.594              1.981              5.254
 Vibration     4          0.598              1.970              4.247
 Vibration     5          0.620              1.896              2.597
 Vibration     6          0.622              1.889              2.525
 Vibration     7          0.630              1.866              2.318
 Vibration     8          0.632              1.858              2.262
 Vibration     9          0.656              1.783              1.819
 Vibration    10          0.660              1.772              1.769
 Vibration    11          0.690              1.681              1.437
 Vibration    12          0.708              1.628              1.292
 Vibration    13          0.728              1.572              1.160
 Vibration    14          0.760              1.485              0.988
 Vibration    15          0.778              1.438              0.909
 Vibration    16          0.818              1.340              0.767
 Vibration    17          0.855              1.251              0.660
 Vibration    18          0.866              1.225              0.630
 Vibration    19          0.888              1.177              0.580
 Vibration    20          0.910              1.131              0.536
 Vibration    21          0.943              1.062              0.475
 Vibration    22          0.976              0.998              0.423

 Optimization completed.
    -- Stationary point found.
 Normal termination of Gaussian 16 at Sun Dec 13 16:26:39 2020.

 ----------------------------------------------------------------------
 # B3LYP/6-311++G(d,p) empiricaldispersion=gd3bj scf=xqc pop=npa geom=c
 heck
 ----------------------------------------------------------------------

 --------------------------------------
 CID_91163829_JID_7669_Energie_neutraal
 --------------------------------------
 Structure from the checkpoint file:  "JID_7669.chk"
 Charge =  0 Multiplicity = 1

 SCF Done:  E(RB3LYP) =  -1049.83899970     A.U. after   17 cycles
 Normal termination of Gaussian 16 at Sun Dec 13 16:33:00 2020.

 ----------------------------------------------------------------------
 # B3LYP/6-311++G(d,p) empiricaldispersion=gd3bj scf=xqc pop=npa geom=c
 heck
 ----------------------------------------------------------------------

 ------------------------------------
 CID_91163829_JID_7669_Energie_kation
 ------------------------------------
 Structure from the checkpoint file:  "JID_7669.chk"
 Charge =  1 Multiplicity = 2

 SCF Done:  E(UB3LYP) =  -1049.58548727     A.U. after   23 cycles
 Normal termination of Gaussian 16 at Sun Dec 13 16:45:30 2020.
 Gaussian 16:  ES64L-G16RevA.03 25-Dec-2016

 ----------------------------------------------------------------------
 # B3LYP/6-311++G(d,p) empiricaldispersion=gd3bj scf=xqc pop=npa geom=c
 heck
 ----------------------------------------------------------------------

 -----------------------------------
 CID_91163829_JID_7669_Energie_anion
 -----------------------------------
 Structure from the checkpoint file:  "JID_7669.chk"
 Charge = -1 Multiplicity = 2

                         Standard orientation:
 ---------------------------------------------------------------------
 Center     Atomic      Atomic             Coordinates (Angstroms)
 Number     Number       Type             X           Y           Z
 ---------------------------------------------------------------------
      1          6           0       -4.315935   -0.600023   -1.315107
      2          6           0       -2.996475   -0.735432   -0.614298
      3          6           0       -2.563590   -1.856366    0.005337
      4         16           0       -1.020498   -1.744261    0.870505
      5          6           0       -0.735958   -0.070054    0.048928
      6          6           0       -2.098695    0.388733   -0.407200
      7          6           0       -2.362331    1.713625   -0.455161
      8          7           0       -1.495700    2.685774    0.044250
      9          6           0       -0.483831    2.241709    0.714461
     10          7           0       -0.132613    0.927745    0.904313
     11          6           0        1.134154    0.584097    1.547649
     12          6           0        2.208462    0.178671    0.557516
     13          6           0        2.694537   -1.130679    0.532563
     14          6           0        3.667224   -1.508882   -0.394796
     15          6           0        4.156461   -0.578367   -1.310382
     16          6           0        3.669248    0.731313   -1.297433
     17          6           0        2.700263    1.105871   -0.369631
     18          1           0       -4.183620   -0.265750   -2.351472
     19          1           0       -4.947730    0.145849   -0.815423
     20          1           0       -4.859557   -1.548971   -1.326597
     21          1           0       -3.112537   -2.788877    0.068167
     22          1           0       -0.074250   -0.303248   -0.799654
     23          1           0       -3.307681    2.090022   -0.836264
     24          1           0        0.159823    2.952494    1.231759
     25          1           0        1.447595    1.455939    2.131160
     26          1           0        0.950796   -0.230826    2.256375
     27          1           0        2.303720   -1.859551    1.237747
     28          1           0        4.036011   -2.530504   -0.404220
     29          1           0        4.911414   -0.870743   -2.034591
     30          1           0        4.044690    1.459258   -2.010976
     31          1           0        2.316285    2.123152   -0.368700
 ---------------------------------------------------------------------

 SCF Done:  E(UB3LYP) =  -1049.83849904     A.U. after   33 cycles
 SCF Done:  E(UB3LYP) =  -1049.83849904     a.u. after    1 cycles

 The electronic state is 2-A.
 Alpha  occ. eigenvalues --  -88.71448 -14.21210 -14.14675 -10.10893 -10.09144
 Alpha  occ. eigenvalues --  -10.08406 -10.06403 -10.06347 -10.05860 -10.05836
 Alpha  occ. eigenvalues --  -10.05823 -10.05761 -10.05731 -10.05151 -10.04689
 Alpha  occ. eigenvalues --  -10.04076 -10.02584  -7.80083  -5.76417  -5.76119
 Alpha  occ. eigenvalues --   -5.75514  -0.85052  -0.76149  -0.74070  -0.72270
 Alpha  occ. eigenvalues --   -0.65417  -0.63567  -0.63276  -0.61570  -0.57686
 Alpha  occ. eigenvalues --   -0.55235  -0.50667  -0.49593  -0.49044  -0.47504
 Alpha  occ. eigenvalues --   -0.41963  -0.40199  -0.38938  -0.38219  -0.35549
 Alpha  occ. eigenvalues --   -0.35088  -0.33780  -0.33191  -0.31805  -0.31287
 Alpha  occ. eigenvalues --   -0.31085  -0.30376  -0.28480  -0.27997  -0.26165
 Alpha  occ. eigenvalues --   -0.26056  -0.25312  -0.23617  -0.23212  -0.22804
 Alpha  occ. eigenvalues --   -0.22015  -0.20043  -0.19140  -0.15365  -0.14659
 Alpha  occ. eigenvalues --   -0.13904  -0.12402  -0.09794  -0.05082   0.04991
 Alpha virt. eigenvalues --    0.07574   0.08186   0.08461   0.09031   0.09258
 Alpha virt. eigenvalues --    0.09618   0.10042   0.10720   0.11214   0.11515
 Alpha virt. eigenvalues --    0.11993   0.12731   0.13220   0.13731   0.14105

  Beta  occ. eigenvalues --  -88.71444 -14.21072 -14.14756 -10.10901 -10.09144
  Beta  occ. eigenvalues --  -10.08067 -10.06412 -10.06352 -10.05832 -10.05819
  Beta  occ. eigenvalues --  -10.05778 -10.05619 -10.05570 -10.04891 -10.04699
  Beta  occ. eigenvalues --  -10.03874 -10.02441  -7.80079  -5.76422  -5.76122
  Beta  occ. eigenvalues --   -5.75488  -0.84769  -0.75959  -0.73900  -0.72004
  Beta  occ. eigenvalues --   -0.65180  -0.63459  -0.63181  -0.61198  -0.57468
  Beta  occ. eigenvalues --   -0.55074  -0.50354  -0.49511  -0.48682  -0.47265
  Beta  occ. eigenvalues --   -0.41745  -0.40080  -0.38699  -0.37981  -0.35393
  Beta  occ. eigenvalues --   -0.34908  -0.33663  -0.32964  -0.31701  -0.31246
  Beta  occ. eigenvalues --   -0.30943  -0.30330  -0.28354  -0.27855  -0.26037
  Beta  occ. eigenvalues --   -0.25721  -0.24904  -0.23487  -0.23132  -0.22282
  Beta  occ. eigenvalues --   -0.21854  -0.19840  -0.18351  -0.14475  -0.14317
  Beta  occ. eigenvalues --   -0.13064  -0.12354  -0.09433  -0.04256
  Beta virt. eigenvalues --    0.07505   0.08114   0.08701   0.08876   0.09426
  Beta virt. eigenvalues --    0.09720   0.09980   0.10692   0.10764   0.11183
  Beta virt. eigenvalues --    0.11482   0.12256   0.12766   0.13155   0.13720

 Mulliken charges and spin densities:
               1          2
     1  C   -0.721306   0.054783
     2  C   -0.855260  -0.035226
     3  C   -0.011385   0.215336
     4  S   -0.670850  -0.010974
     5  C   -0.488750   0.003174
     6  C    1.648554   0.009410
     7  C   -0.537975   0.189075
     8  N   -0.107917  -0.044881
     9  C   -0.194556   0.209232
    10  N    0.340127   0.024632
    11  C   -0.503536  -0.442266
    12  C    0.790463   0.294043
    13  C   -0.089842   0.027208
    14  C   -0.306422  -0.030251
    15  C   -0.411127   0.087466
    16  C   -0.303605  -0.003112
    17  C   -0.248626   0.111101
    18  H    0.144420  -0.002116
    19  H    0.122909   0.013121
    20  H    0.125384   0.001439
    21  H    0.213384  -0.013207
    22  H    0.215777   0.001175
    23  H    0.125433  -0.006785
    24  H    0.083668   0.020858
    25  H   -0.003438   0.187928
    26  H    0.031845   0.093485
    27  H    0.084233   0.040987
    28  H    0.131659   0.013680
    29  H    0.105956  -0.007847
    30  H    0.141893   0.007030
    31  H    0.148891  -0.008498
 Sum of Mulliken charges =  -1.00000   1.00000

 Dipole moment (field-independent basis, Debye):
    X=              1.8123    Y=             -2.4202    Z=             -0.8607  Tot=              3.1437
 Quadrupole moment (field-independent basis, Debye-Ang):
   XX=           -145.6620   YY=           -136.5834   ZZ=           -123.5001
   XY=              6.6749   XZ=              0.6380   YZ=             -0.3480

 Summary of Natural Population Analysis:

                                       Natural Population
                Natural  -----------------------------------------------
    Atom  No    Charge         Core      Valence    Rydberg      Total
 -----------------------------------------------------------------------
      C    1   -0.28652      0.99963     2.28243    0.00445     3.28652
      C    2   -0.05062      0.99943     2.04118    0.01002     3.05062
      C    3   -0.12024      0.99942     2.11109    0.00972     3.12024
      S    4    0.08444      4.99958     2.89713    0.01884     7.91556
      C    5   -0.03883      0.99951     2.02316    0.01615     3.03883
      C    6   -0.04201      0.99945     2.03260    0.00996     3.04201
      C    7    0.03570      0.99945     1.95151    0.01334     2.96430
      N    8   -0.29937      0.99971     2.78892    0.01075     3.79937
      C    9    0.21131      0.99962     1.76853    0.02054     2.78869
      N   10   -0.23347      0.99963     2.72044    0.01340     3.73347
      C   11   -0.08827      0.99958     2.07529    0.01339     3.08827
      C   12   -0.00713      0.99950     1.99739    0.01024     3.00713
      C   13   -0.09391      0.99951     2.08356    0.01084     3.09391
      C   14   -0.10597      0.99957     2.09784    0.00856     3.10597
      C   15   -0.08228      0.99957     2.07397    0.00874     3.08228
      C   16   -0.10606      0.99957     2.09804    0.00844     3.10606
      C   17   -0.09192      0.99951     2.08237    0.01003     3.09192
      H   18    0.09768      0.00000     0.40078    0.00155     0.40232
      H   19    0.09845      0.00000     0.39989    0.00166     0.40155
      H   20    0.09609      0.00000     0.40299    0.00092     0.40391
      H   21    0.09362      0.00000     0.40536    0.00102     0.40638
      H   22    0.09028      0.00000     0.40775    0.00197     0.40972
      H   23    0.08306      0.00000     0.41581    0.00113     0.41694
      H   24    0.07357      0.00000     0.42454    0.00189     0.42643
      H   25    0.10254      0.00000     0.39617    0.00130     0.39746
      H   26    0.09978      0.00000     0.39805    0.00217     0.40022
      H   27    0.09957      0.00000     0.39905    0.00138     0.40043
      H   28    0.09369      0.00000     0.40493    0.00137     0.40631
      H   29    0.09147      0.00000     0.40756    0.00097     0.40853
      H   30    0.09449      0.00000     0.40464    0.00087     0.40551
      H   31    0.10086      0.00000     0.39804    0.00110     0.39914
 =======================================================================
   * Total *    0.00000     20.99227    42.79102    0.21671    64.00000

 Normal termination of Gaussian 16 at Sun Dec 13 17:02:55 2020.
