 Gaussian 16, Revision A.03,

 -----------------------------------------------------------
 # opt freq B3LYP/6-31G(d) empiricaldispersion=gd3bj scf=xqc
 -----------------------------------------------------------

 ------------------------------
 CID_153159365_JID_812_neutraal
 ------------------------------
 Symbolic Z-matrix:
 Charge =  0 Multiplicity = 1

 SCF Done:  E(RB3LYP) =  -820.011711488     A.U. after   15 cycles
 SCF Done:  E(RB3LYP) =  -820.011552036     A.U. after   13 cycles
 SCF Done:  E(RB3LYP) =  -820.014903463     A.U. after   12 cycles
 SCF Done:  E(RB3LYP) =  -820.015601829     A.U. after   12 cycles
 SCF Done:  E(RB3LYP) =  -820.016206805     A.U. after   12 cycles
 SCF Done:  E(RB3LYP) =  -820.016254412     A.U. after   12 cycles
 SCF Done:  E(RB3LYP) =  -820.016311988     A.U. after   11 cycles
 SCF Done:  E(RB3LYP) =  -820.016360747     A.U. after   11 cycles
 SCF Done:  E(RB3LYP) =  -820.016373837     A.U. after    9 cycles
 SCF Done:  E(RB3LYP) =  -820.016375882     A.U. after    9 cycles
 SCF Done:  E(RB3LYP) =  -820.016376582     A.U. after    8 cycles
 SCF Done:  E(RB3LYP) =  -820.016376782     A.U. after    7 cycles
 SCF Done:  E(RB3LYP) =  -820.016376888     A.U. after    7 cycles
 Optimization completed.
    -- Stationary point found.
 Normal termination of Gaussian 16 at Tue Dec  8 12:43:17 2020.

 --------------------------------------------------------------------
 #N Geom=AllCheck Guess=TCheck SCRF=Check GenChk RB3LYP/6-31G(d) Freq
 --------------------------------------------------------------------

 Structure from the checkpoint file:  "JID_812.chk"
 ------------------------------
 CID_153159365_JID_812_neutraal
 ------------------------------
 Charge =  0 Multiplicity = 1

 SCF Done:  E(RB3LYP) =  -820.016376888     A.U. after    1 cycles

  Exact polarizability: 105.472   5.954  96.761  -4.212  -2.478  80.331
 Approx polarizability: 138.203  14.734 148.733  -6.407  -9.442 120.291

                      1                      2                      3
                      A                      A                      A
 Frequencies --     38.0453                92.4130               108.9551
 Red. masses --      4.9014                 4.1682                 5.8192
 Frc consts  --      0.0042                 0.0210                 0.0407
 IR Inten    --      2.4792                 2.5167                 0.8809

                      4                      5                      6
                      A                      A                      A
 Frequencies --    150.9134               197.9600               206.8293
 Red. masses --      2.6783                 3.5278                 5.9313
 Frc consts  --      0.0359                 0.0815                 0.1495
 IR Inten    --      0.4502                 1.1016                 0.2049

                      7                      8                      9
                      A                      A                      A
 Frequencies --    247.4329               273.8431               286.5432
 Red. masses --      1.1211                 2.5145                 1.1872
 Frc consts  --      0.0404                 0.1111                 0.0574
 IR Inten    --      0.4435                 6.1065                 3.0063

                     10                     11                     12
                      A                      A                      A
 Frequencies --    304.0236               323.2336               348.1698
 Red. masses --      2.1380                 1.2512                 1.3741
 Frc consts  --      0.1164                 0.0770                 0.0981
 IR Inten    --      7.7644                14.1193                58.1360

                     13                     14                     15
                      A                      A                      A
 Frequencies --    365.0935               404.1038               423.6223
 Red. masses --      1.6430                 2.2631                 2.2033
 Frc consts  --      0.1290                 0.2177                 0.2330
 IR Inten    --     28.1938                 1.3862                 7.0442

                     16                     17                     18
                      A                      A                      A
 Frequencies --    482.4682               494.0491               531.5547
 Red. masses --      7.2200                 2.5289                 3.5577
 Frc consts  --      0.9902                 0.3637                 0.5923
 IR Inten    --     26.2459                 6.5736                 8.7036

                     19                     20                     21
                      A                      A                      A
 Frequencies --    627.3469               664.4591               781.4037
 Red. masses --      1.4658                 2.3702                 3.1238
 Frc consts  --      0.3399                 0.6165                 1.1238
 IR Inten    --     49.5867                39.3167                 7.0646

                     22                     23                     24
                      A                      A                      A
 Frequencies --    839.6762               889.0404               894.0476
 Red. masses --      5.9141                 1.6094                 1.7453
 Frc consts  --      2.4568                 0.7495                 0.8219
 IR Inten    --      9.7799                18.3208                45.3964

                     25                     26                     27
                      A                      A                      A
 Frequencies --    926.8700               941.6860               962.7028
 Red. masses --      2.0381                 1.8198                 1.5447
 Frc consts  --      1.0316                 0.9508                 0.8435
 IR Inten    --      4.9637                30.8488                31.2898

                     28                     29                     30
                      A                      A                      A
 Frequencies --    967.3531              1019.7391              1025.2634
 Red. masses --      1.7535                 1.6560                 1.3523
 Frc consts  --      0.9668                 1.0146                 0.8375
 IR Inten    --     22.9872                 4.1735                26.8347

                     31                     32                     33
                      A                      A                      A
 Frequencies --   1059.4290              1108.1466              1159.1938
 Red. masses --      1.4316                 2.3554                 1.4335
 Frc consts  --      0.9467                 1.7042                 1.1349
 IR Inten    --      6.6388                 7.8210                15.0735

                     34                     35                     36
                      A                      A                      A
 Frequencies --   1183.4660              1206.0849              1294.5128
 Red. masses --      1.4653                 2.3489                 1.9387
 Frc consts  --      1.2092                 2.0131                 1.9142
 IR Inten    --     49.6004                 1.4077                34.0855

                     37                     38                     39
                      A                      A                      A
 Frequencies --   1307.1267              1337.4707              1378.1506
 Red. masses --      2.5183                 1.4447                 1.3003
 Frc consts  --      2.5351                 1.5226                 1.4550
 IR Inten    --     71.1710                27.1228                16.4010

                     40                     41                     42
                      A                      A                      A
 Frequencies --   1394.1629              1399.8687              1427.9465
 Red. masses --      2.0935                 1.3014                 1.2466
 Frc consts  --      2.3975                 1.5026                 1.4976
 IR Inten    --    134.6626                12.0702                 3.6465

                     43                     44                     45
                      A                      A                      A
 Frequencies --   1436.9160              1463.0920              1505.3839
 Red. masses --      1.2738                 1.3005                 1.1061
 Frc consts  --      1.5496                 1.6402                 1.4768
 IR Inten    --      2.9055                 7.0813                12.9958

                     46                     47                     48
                      A                      A                      A
 Frequencies --   1514.7484              1518.4403              1531.1489
 Red. masses --      1.0645                 1.0526                 1.0716
 Frc consts  --      1.4391                 1.4299                 1.4801
 IR Inten    --      5.7441                 0.3698                 6.0113

                     49                     50                     51
                      A                      A                      A
 Frequencies --   1534.2523              1543.1273              1700.5854
 Red. masses --      1.0583                 1.0616                 1.1643
 Frc consts  --      1.4677                 1.4895                 1.9839
 IR Inten    --      4.1885                16.0117               124.7850

                     52                     53                     54
                      A                      A                      A
 Frequencies --   1775.6513              2609.8708              2954.2363
 Red. masses --      5.5033                 1.0398                 1.0720
 Frc consts  --     10.2232                 4.1728                 5.5122
 IR Inten    --    179.1053                31.6649                75.0012

                     55                     56                     57
                      A                      A                      A
 Frequencies --   3040.5642              3051.9072              3059.9170
 Red. masses --      1.0353                 1.0398                 1.0865
 Frc consts  --      5.6396                 5.7063                 5.9936
 IR Inten    --     25.1717                17.3373                42.6373

                     58                     59                     60
                      A                      A                      A
 Frequencies --   3074.1968              3107.1788              3109.6408
 Red. masses --      1.0592                 1.1020                 1.1025
 Frc consts  --      5.8978                 6.2683                 6.2813
 IR Inten    --     10.9527                25.9553                 1.3463

                     61                     62                     63
                      A                      A                      A
 Frequencies --   3115.2021              3124.9498              3145.6521
 Red. masses --      1.1019                 1.1034                 1.1001
 Frc consts  --      6.3002                 6.3484                 6.4134
 IR Inten    --     65.5687                20.9521                17.1224

                     64                     65                     66
                      A                      A                      A
 Frequencies --   3484.9358              3569.3490              3571.3068
 Red. masses --      1.0500                 1.0767                 1.0923
 Frc consts  --      7.5133                 8.0823                 8.2085
 IR Inten    --     22.6403                44.6646                 9.9976

 - Thermochemistry -
 -------------------
 Temperature   298.150 Kelvin.  Pressure   1.00000 Atm.
 Atom     1 has atomic number  6 and mass  12.00000

 Molecular mass:   162.08268 amu.
 Principal axes and moments of inertia in atomic units:
                           1         2         3
     Eigenvalues --  1190.585192282.269422810.06652
           X            0.99975  -0.02092  -0.00782
           Y            0.02110   0.99948   0.02443
           Z            0.00730  -0.02459   0.99967
 This molecule is an asymmetric top.
 Rotational symmetry number  1.
 Warning -- assumption of classical behavior for rotation
           may cause significant error
 Rotational temperatures (Kelvin)      0.07275     0.03795     0.03082
 Rotational constants (GHZ):           1.51584     0.79077     0.64224
 Zero-point vibrational energy     542008.0 (Joules/Mol)
                                  129.54301 (Kcal/Mol)
 Warning -- explicit consideration of  18 degrees of freedom as
           vibrations may cause significant error
 Vibrational temperatures:     54.74   132.96   156.76   217.13   284.82
          (Kelvin)            297.58   356.00   394.00   412.27   437.42
                              465.06   500.94   525.29   581.42   609.50
                              694.16   710.83   764.79   902.61   956.01
                             1124.27  1208.11  1279.13  1286.34  1333.56
                             1354.88  1385.11  1391.81  1467.18  1475.13
                             1524.28  1594.38  1667.82  1702.74  1735.29
                             1862.52  1880.66  1924.32  1982.85  2005.89
                             2014.10  2054.50  2067.40  2105.06  2165.91
                             2179.39  2184.70  2202.98  2207.45  2220.22
                             2446.76  2554.77  3755.02  4250.49  4374.69
                             4391.01  4402.54  4423.08  4470.54  4474.08
                             4482.08  4496.11  4525.89  5014.05  5135.50
                             5138.31

 Zero-point correction=                           0.206440 (Hartree/Particle)
 Thermal correction to Energy=                    0.218507
 Thermal correction to Enthalpy=                  0.219451
 Thermal correction to Gibbs Free Energy=         0.168674
 Sum of electronic and zero-point Energies=           -819.809937
 Sum of electronic and thermal Energies=              -819.797870
 Sum of electronic and thermal Enthalpies=            -819.796926
 Sum of electronic and thermal Free Energies=         -819.847703

                     E (Thermal)             CV                S
                      KCal/Mol        Cal/Mol-Kelvin    Cal/Mol-Kelvin
 Total                  137.115             44.997            106.869
 Electronic               0.000              0.000              0.000
 Translational            0.889              2.981             41.158
 Rotational               0.889              2.981             30.413
 Vibrational            135.338             39.035             35.298
 Vibration     1          0.594              1.982              5.358
 Vibration     2          0.602              1.955              3.608
 Vibration     3          0.606              1.942              3.287
 Vibration     4          0.618              1.902              2.661
 Vibration     5          0.637              1.843              2.152
 Vibration     6          0.641              1.830              2.071
 Vibration     7          0.661              1.767              1.749
 Vibration     8          0.676              1.722              1.572
 Vibration     9          0.684              1.699              1.494
 Vibration    10          0.695              1.666              1.395
 Vibration    11          0.708              1.629              1.294
 Vibration    12          0.726              1.579              1.174
 Vibration    13          0.738              1.544              1.100
 Vibration    14          0.769              1.461              0.948
 Vibration    15          0.786              1.419              0.880
 Vibration    16          0.839              1.289              0.703
 Vibration    17          0.850              1.263              0.673
 Vibration    18          0.887              1.180              0.584

                           ! Non-Optimized Parameters !
 Normal termination of Gaussian 16 at Tue Dec  8 13:04:04 2020.

 ----------------------------------------------------------------------
 # B3LYP/6-311++G(d,p) empiricaldispersion=gd3bj scf=xqc pop=npa geom=c
 heck
 ----------------------------------------------------------------------

 --------------------------------------
 CID_153159365_JID_812_Energie_neutraal
 --------------------------------------
 Structure from the checkpoint file:  "JID_812.chk"
 Charge =  0 Multiplicity = 1

 SCF Done:  E(RB3LYP) =  -820.182553860     A.U. after   15 cycles
 Normal termination of Gaussian 16 at Tue Dec  8 13:08:44 2020.

 ----------------------------------------------------------------------
 # B3LYP/6-311++G(d,p) empiricaldispersion=gd3bj scf=xqc pop=npa geom=c
 heck
 ----------------------------------------------------------------------

 ------------------------------------
 CID_153159365_JID_812_Energie_kation
 ------------------------------------
 Structure from the checkpoint file:  "JID_812.chk"
 Charge =  1 Multiplicity = 2

 SCF Done:  E(UB3LYP) =  -819.862659013     A.U. after   30 cycles
 Normal termination of Gaussian 16 at Tue Dec  8 13:23:33 2020.
 Gaussian 16:  ES64L-G16RevA.03 25-Dec-2016

 ----------------------------------------------------------------------
 # B3LYP/6-311++G(d,p) empiricaldispersion=gd3bj scf=xqc pop=npa geom=c
 heck
 ----------------------------------------------------------------------

 -----------------------------------
 CID_153159365_JID_812_Energie_anion
 -----------------------------------
 Structure from the checkpoint file:  "JID_812.chk"
 Charge = -1 Multiplicity = 2

                         Standard orientation:
 ---------------------------------------------------------------------
 Center     Atomic      Atomic             Coordinates (Angstroms)
 Number     Number       Type             X           Y           Z
 ---------------------------------------------------------------------
      1          6           0        0.698869   -1.190445    1.211572
      2          6           0        1.264742   -0.676005   -0.118961
      3          6           0        1.967791   -1.829489   -0.856757
      4          6           0        0.125842   -0.183537   -1.063158
      5          6           0       -0.700756    0.983372   -0.566986
      6          8           0       -0.351176    2.151640   -0.690539
      7          7           0       -1.912736    0.731720    0.058245
      8         16           0       -2.776448   -0.737244    0.211210
      9          6           0        2.323583    0.424408    0.141075
     10          7           0        1.881864    1.462244    1.073795
     11          1           0        0.003563   -2.020547    1.042902
     12          1           0        0.192646   -0.392187    1.759711
     13          1           0        1.511160   -1.555600    1.850312
     14          1           0        1.261117   -2.629430   -1.105599
     15          1           0        2.427657   -1.483566   -1.790565
     16          1           0        2.757823   -2.261643   -0.231904
     17          1           0        0.579082    0.158839   -1.999337
     18          1           0       -0.523766   -1.032964   -1.291536
     19          1           0       -2.392419    1.577959    0.348303
     20          1           0       -2.283490   -1.153220    1.404519
     21          1           0        3.193110   -0.070935    0.591423
     22          1           0        2.657002    0.815027   -0.837759
     23          1           0        2.691659    1.972814    1.417724
     24          1           0        1.293105    2.130670    0.581782
 ---------------------------------------------------------------------

 SCF Done:  E(UB3LYP) =  -820.168918849     A.U. after   33 cycles
 SCF Done:  E(UB3LYP) =  -820.168918849     a.u. after    1 cycles

 The electronic state is 2-A.
 Alpha  occ. eigenvalues --  -88.77070 -18.99293 -14.25232 -14.17604 -10.17609
 Alpha  occ. eigenvalues --  -10.08140 -10.08049 -10.06817 -10.05227 -10.03914
 Alpha  occ. eigenvalues --   -7.85545  -5.82087  -5.81517  -5.80823  -0.94438
 Alpha  occ. eigenvalues --   -0.82128  -0.77351  -0.70696  -0.62875  -0.60840
 Alpha  occ. eigenvalues --   -0.57643  -0.54939  -0.48399  -0.43018  -0.39833
 Alpha  occ. eigenvalues --   -0.39118  -0.37492  -0.35291  -0.34099  -0.33304
 Alpha  occ. eigenvalues --   -0.32721  -0.29759  -0.29435  -0.27596  -0.26953
 Alpha  occ. eigenvalues --   -0.26827  -0.25568  -0.22452  -0.22349  -0.21287
 Alpha  occ. eigenvalues --   -0.17301  -0.16607  -0.14852  -0.13133   0.04793
 Alpha virt. eigenvalues --    0.07239   0.07670   0.08191   0.09189   0.09598
 Alpha virt. eigenvalues --    0.10589   0.10888   0.11091   0.11592   0.12093
 Alpha virt. eigenvalues --    0.12979   0.13646   0.14340   0.14762   0.15550

  Beta  occ. eigenvalues --  -88.77033 -18.99271 -14.25220 -14.17591 -10.17578
  Beta  occ. eigenvalues --  -10.08138 -10.08028 -10.06797 -10.05194 -10.03869
  Beta  occ. eigenvalues --   -7.85504  -5.82013  -5.81484  -5.80795  -0.94392
  Beta  occ. eigenvalues --   -0.82084  -0.77331  -0.70668  -0.62739  -0.60749
  Beta  occ. eigenvalues --   -0.57568  -0.54877  -0.48318  -0.42937  -0.39690
  Beta  occ. eigenvalues --   -0.39045  -0.37446  -0.35245  -0.34032  -0.33224
  Beta  occ. eigenvalues --   -0.32684  -0.29693  -0.29378  -0.27479  -0.26912
  Beta  occ. eigenvalues --   -0.26757  -0.25528  -0.22405  -0.22309  -0.21241
  Beta  occ. eigenvalues --   -0.17243  -0.16525  -0.14788  -0.13103
  Beta virt. eigenvalues --    0.07210   0.08083   0.08285   0.08725   0.09660
  Beta virt. eigenvalues --    0.10104   0.11141   0.11349   0.11532   0.12115
  Beta virt. eigenvalues --    0.12449   0.13341   0.14109   0.14691   0.15130

 Mulliken charges and spin densities:
               1          2
     1  C    0.209385  -0.956943
     2  C   -1.882090   2.727678
     3  C    1.252545  -1.742852
     4  C    1.402840  -1.760504
     5  C   -0.435322   0.222882
     6  O   -0.362178   0.050571
     7  N   -0.439631   0.194990
     8  S    0.900007  -0.916863
     9  C    0.874868  -1.460851
    10  N   -0.483160   0.128598
    11  H   -0.235353   0.381912
    12  H    0.065329   0.127772
    13  H   -0.263269   0.409231
    14  H   -0.098266   0.238493
    15  H   -0.263786   0.396097
    16  H   -0.134193   0.269428
    17  H   -0.167133   0.365177
    18  H   -0.101543   0.248315
    19  H   -0.057563   0.410663
    20  H   -0.811634   0.911677
    21  H   -0.319912   0.482168
    22  H    0.020832   0.121894
    23  H    0.086352   0.144157
    24  H    0.242874   0.006312
 Sum of Mulliken charges =  -1.00000   1.00000

 Dipole moment (field-independent basis, Debye):
    X=             -0.1979    Y=              1.4818    Z=             -1.2215  Tot=              1.9306
 Quadrupole moment (field-independent basis, Debye-Ang):
   XX=           -118.1200   YY=           -106.8532   ZZ=           -107.0247
   XY=              3.6265   XZ=              3.2723   YZ=              4.0258

 Summary of Natural Population Analysis:

                                       Natural Population
                Natural  -----------------------------------------------
    Atom  No    Charge         Core      Valence    Rydberg      Total
 -----------------------------------------------------------------------
      C    1   -0.29069      0.99962     2.28203    0.00904     3.29069
      C    2   -0.04317      0.99957     2.03022    0.01338     3.04317
      C    3   -0.28314      0.99962     2.27562    0.00790     3.28314
      C    4   -0.23999      0.99953     2.22903    0.01142     3.23999
      C    5    0.35851      0.99964     1.61685    0.02500     2.64149
      O    6   -0.32528      0.99987     3.31953    0.00588     4.32528
      N    7   -0.39006      0.99967     2.87913    0.01127     3.89006
      S    8    0.09702      4.99964     2.88392    0.01942     7.90298
      C    9   -0.08612      0.99957     2.07418    0.01237     3.08612
      N   10   -0.43031      0.99976     2.92044    0.01011     3.93031
      H   11    0.09897      0.00000     0.39943    0.00160     0.40103
      H   12    0.11014      0.00000     0.38776    0.00210     0.38986
      H   13    0.10075      0.00000     0.39805    0.00119     0.39925
      H   14    0.10082      0.00000     0.39802    0.00115     0.39918
      H   15    0.09964      0.00000     0.39896    0.00140     0.40036
      H   16    0.10073      0.00000     0.39806    0.00122     0.39927
      H   17    0.11293      0.00000     0.38566    0.00141     0.38707
      H   18    0.11419      0.00000     0.38390    0.00191     0.38581
      H   19    0.19818      0.00000     0.29848    0.00334     0.30182
      H   20    0.06646      0.00000     0.42559    0.00796     0.43354
      H   21    0.09074      0.00000     0.40793    0.00133     0.40926
      H   22    0.08118      0.00000     0.41726    0.00157     0.41882
      H   23    0.17128      0.00000     0.32732    0.00140     0.32872
      H   24    0.18721      0.00000     0.31058    0.00221     0.31279
 =======================================================================
   * Total *    0.00000     13.99649    29.84794    0.15556    44.00000

 Normal termination of Gaussian 16 at Tue Dec  8 13:40:17 2020.
