 Gaussian 16, Revision A.03,

 -----------------------------------------------------------
 # opt freq B3LYP/6-31G(d) empiricaldispersion=gd3bj scf=xqc
 -----------------------------------------------------------

 -------------------------------
 CID_123823777_JID_2551_neutraal
 -------------------------------
 Symbolic Z-matrix:
 Charge =  0 Multiplicity = 1

 SCF Done:  E(RB3LYP) =  -517.647648047     A.U. after   14 cycles
 SCF Done:  E(RB3LYP) =  -517.650338652     A.U. after   12 cycles
 SCF Done:  E(RB3LYP) =  -517.650672947     A.U. after   12 cycles
 SCF Done:  E(RB3LYP) =  -517.650896693     A.U. after   12 cycles
 SCF Done:  E(RB3LYP) =  -517.651057072     A.U. after   11 cycles
 SCF Done:  E(RB3LYP) =  -517.651252432     A.U. after   12 cycles
 SCF Done:  E(RB3LYP) =  -517.651422125     A.U. after   12 cycles
 SCF Done:  E(RB3LYP) =  -517.651481765     A.U. after   12 cycles
 SCF Done:  E(RB3LYP) =  -517.651498400     A.U. after   10 cycles
 SCF Done:  E(RB3LYP) =  -517.651501531     A.U. after   10 cycles
 SCF Done:  E(RB3LYP) =  -517.651507296     A.U. after    9 cycles
 SCF Done:  E(RB3LYP) =  -517.651506405     A.U. after    8 cycles
 SCF Done:  E(RB3LYP) =  -517.651507387     A.U. after    7 cycles
 SCF Done:  E(RB3LYP) =  -517.651507514     A.U. after    7 cycles
 Optimization completed.
    -- Stationary point found.
 Normal termination of Gaussian 16 at Wed Dec  9 17:34:28 2020.

 --------------------------------------------------------------------
 #N Geom=AllCheck Guess=TCheck SCRF=Check GenChk RB3LYP/6-31G(d) Freq
 --------------------------------------------------------------------

 Structure from the checkpoint file:  "JID_2551.chk"
 -------------------------------
 CID_123823777_JID_2551_neutraal
 -------------------------------
 Charge =  0 Multiplicity = 1

 SCF Done:  E(RB3LYP) =  -517.651507514     A.U. after    1 cycles

  Exact polarizability: 165.828  -0.001  88.643  15.261   0.001  88.720
 Approx polarizability: 227.101  -0.008 149.998  39.751  -0.000 156.245

                      1                      2                      3
                      A                      A                      A
 Frequencies --     33.9214                40.7369                71.5830
 Red. masses --      3.9847                 4.2294                 4.5074
 Frc consts  --      0.0027                 0.0041                 0.0136
 IR Inten    --      1.9558                 0.2108                 1.6118

                      4                      5                      6
                      A                      A                      A
 Frequencies --    163.0902               184.4788               216.7217
 Red. masses --      2.1860                 4.2393                 4.0709
 Frc consts  --      0.0343                 0.0850                 0.1127
 IR Inten    --      0.0037                 0.7026                 1.8658

                      7                      8                      9
                      A                      A                      A
 Frequencies --    278.3790               332.8728               378.8445
 Red. masses --      1.0381                 4.3921                 4.6534
 Frc consts  --      0.0474                 0.2867                 0.3935
 IR Inten    --     22.2111                 1.3721                 2.4579

                     10                     11                     12
                      A                      A                      A
 Frequencies --    426.5836               429.3768               432.1569
 Red. masses --      3.1849                 3.2164                 2.9625
 Frc consts  --      0.3415                 0.3494                 0.3260
 IR Inten    --      0.2659                 1.9617                 3.2203

                     13                     14                     15
                      A                      A                      A
 Frequencies --    470.9572               493.6147               542.6663
 Red. masses --      1.7876                 2.9962                 2.4245
 Frc consts  --      0.2336                 0.4301                 0.4207
 IR Inten    --      0.0176                21.9739                25.2857

                     16                     17                     18
                      A                      A                      A
 Frequencies --    599.5690               646.6673               658.4836
 Red. masses --      3.4526                 1.4333                 6.3886
 Frc consts  --      0.7313                 0.3531                 1.6321
 IR Inten    --     66.7138               292.9634                 0.2469

                     19                     20                     21
                      A                      A                      A
 Frequencies --    718.1127               720.6743               764.4469
 Red. masses --      4.4190                 1.3523                 1.7240
 Frc consts  --      1.3427                 0.4138                 0.5936
 IR Inten    --     10.9654                 0.0024                 1.6537

                     22                     23                     24
                      A                      A                      A
 Frequencies --    797.2524               815.7339               831.4988
 Red. masses --      3.4847                 1.2576                 2.3905
 Frc consts  --      1.3050                 0.4930                 0.9738
 IR Inten    --      9.4938                 0.3849                20.6851

                     25                     26                     27
                      A                      A                      A
 Frequencies --    837.2468               866.0250               884.9071
 Red. masses --      1.4431                 2.6750                 3.0974
 Frc consts  --      0.5960                 1.1820                 1.4290
 IR Inten    --     53.3025                31.3090                 4.6299

                     28                     29                     30
                      A                      A                      A
 Frequencies --    935.5142               938.6563               940.2174
 Red. masses --      1.3053                 1.3705                 1.3357
 Frc consts  --      0.6731                 0.7114                 0.6957
 IR Inten    --      0.5454                29.6974                 0.1022

                     31                     32                     33
                      A                      A                      A
 Frequencies --    989.9345              1023.9402              1034.7303
 Red. masses --      2.3359                 1.0885                 2.5705
 Frc consts  --      1.3487                 0.6724                 1.6215
 IR Inten    --     45.1012                15.9518                 3.3870

                     34                     35                     36
                      A                      A                      A
 Frequencies --   1070.3296              1096.8451              1157.9891
 Red. masses --      1.4626                 1.4322                 1.1811
 Frc consts  --      0.9872                 1.0152                 0.9331
 IR Inten    --     29.4345                 3.9877                 7.8754

                     37                     38                     39
                      A                      A                      A
 Frequencies --   1196.1271              1267.2094              1322.9874
 Red. masses --      1.1392                 3.2600                 4.1282
 Frc consts  --      0.9603                 3.0844                 4.2572
 IR Inten    --      0.0982               238.0910                41.9086

                     40                     41                     42
                      A                      A                      A
 Frequencies --   1333.1645              1333.3107              1347.0360
 Red. masses --      1.6220                 1.3014                 3.4697
 Frc consts  --      1.6986                 1.3631                 3.7093
 IR Inten    --      0.3734                 0.5622               155.4666

                     43                     44                     45
                      A                      A                      A
 Frequencies --   1371.3478              1434.1523              1477.6705
 Red. masses --      3.4427                 1.2720                 1.2465
 Frc consts  --      3.8146                 1.5414                 1.6036
 IR Inten    --      5.4679                18.7906                 9.3710

                     46                     47                     48
                      A                      A                      A
 Frequencies --   1486.0486              1564.7265              1646.1115
 Red. masses --      2.9724                 2.7140                 6.5854
 Frc consts  --      3.8675                 3.9150                10.5136
 IR Inten    --      0.0326               192.4595                 0.0033

                     49                     50                     51
                      A                      A                      A
 Frequencies --   1671.1588              1676.3194              1697.5556
 Red. masses --      3.9244                 3.3300                 1.3714
 Frc consts  --      6.4574                 5.5133                 2.3284
 IR Inten    --     69.2278                 4.4386                86.7688

                     52                     53                     54
                      A                      A                      A
 Frequencies --   1730.9534              3177.5908              3180.7932
 Red. masses --      5.1139                 1.0635                 1.0893
 Frc consts  --      9.0276                 6.3266                 6.4931
 IR Inten    --     17.1080                 4.6013                14.2985

                     55                     56                     57
                      A                      A                      A
 Frequencies --   3181.2567              3189.6588              3203.7929
 Red. masses --      1.0886                 1.0858                 1.0601
 Frc consts  --      6.4909                 6.5089                 6.4109
 IR Inten    --     25.6477                 9.6997                 2.0334

                     58                     59                     60
                      A                      A                      A
 Frequencies --   3215.8738              3216.7896              3267.9265
 Red. masses --      1.0931                 1.0935                 1.1163
 Frc consts  --      6.6605                 6.6668                 7.0241
 IR Inten    --     10.6134                 2.3700                12.5504

                     61                     62                     63
                      A                      A                      A
 Frequencies --   3289.6633              3547.3341              3645.0697
 Red. masses --      1.1168                 1.0480                 1.0977
 Frc consts  --      7.1211                 7.7702                 8.5933
 IR Inten    --      6.7269                12.2951                 7.8300

 - Thermochemistry -
 -------------------
 Temperature   298.150 Kelvin.  Pressure   1.00000 Atm.
 Atom     1 has atomic number  6 and mass  12.00000

 Molecular mass:   161.08406 amu.
 Principal axes and moments of inertia in atomic units:
                           1         2         3
     Eigenvalues --   623.317584068.222984087.30392
           X            1.00000   0.00000  -0.00113
           Y           -0.00000   1.00000   0.00021
           Z            0.00113  -0.00021   1.00000
 This molecule is an asymmetric top.
 Rotational symmetry number  1.
 Warning -- assumption of classical behavior for rotation
           may cause significant error
 Rotational temperatures (Kelvin)      0.13896     0.02129     0.02119
 Rotational constants (GHZ):           2.89538     0.44362     0.44155
 Zero-point vibrational energy     493438.0 (Joules/Mol)
                                  117.93451 (Kcal/Mol)
 Warning -- explicit consideration of  16 degrees of freedom as
           vibrations may cause significant error
 Vibrational temperatures:     48.81    58.61   102.99   234.65   265.42
          (Kelvin)            311.81   400.53   478.93   545.07   613.76
                              617.78   621.78   677.60   710.20   780.78
                              862.65   930.41   947.41  1033.20  1036.89
                             1099.87  1147.07  1173.66  1196.34  1204.61
                             1246.02  1273.18  1346.00  1350.52  1352.76
                             1424.29  1473.22  1488.75  1539.97  1578.12
                             1666.09  1720.96  1823.23  1903.48  1918.13
                             1918.34  1938.08  1973.06  2063.43  2126.04
                             2138.09  2251.29  2368.39  2404.42  2411.85
                             2442.40  2490.46  4571.84  4576.45  4577.12
                             4589.21  4609.54  4626.93  4628.24  4701.82
                             4733.09  5103.82  5244.44

 Zero-point correction=                           0.187941 (Hartree/Particle)
 Thermal correction to Energy=                    0.199266
 Thermal correction to Enthalpy=                  0.200210
 Thermal correction to Gibbs Free Energy=         0.149808
 Sum of electronic and zero-point Energies=           -517.463567
 Sum of electronic and thermal Energies=              -517.452242
 Sum of electronic and thermal Enthalpies=            -517.451298
 Sum of electronic and thermal Free Energies=         -517.501699

                     E (Thermal)             CV                S
                      KCal/Mol        Cal/Mol-Kelvin    Cal/Mol-Kelvin
 Total                  125.041             43.745            106.079
 Electronic               0.000              0.000              0.000
 Translational            0.889              2.981             41.139
 Rotational               0.889              2.981             30.717
 Vibrational            123.264             37.783             34.223
 Vibration     1          0.594              1.983              5.586
 Vibration     2          0.594              1.981              5.223
 Vibration     3          0.598              1.968              4.109
 Vibration     4          0.623              1.888              2.514
 Vibration     5          0.631              1.861              2.283
 Vibration     6          0.646              1.816              1.986
 Vibration     7          0.679              1.714              1.544
 Vibration     8          0.715              1.610              1.246
 Vibration     9          0.749              1.515              1.044
 Vibration    10          0.788              1.412              0.870
 Vibration    11          0.791              1.406              0.861
 Vibration    12          0.793              1.400              0.852
 Vibration    13          0.828              1.314              0.735
 Vibration    14          0.849              1.264              0.674
 Vibration    15          0.898              1.156              0.560
 Vibration    16          0.958              1.033              0.450

 Optimization completed.
    -- Stationary point found.
 Normal termination of Gaussian 16 at Wed Dec  9 17:39:05 2020.

 ----------------------------------------------------------------------
 # B3LYP/6-311++G(d,p) empiricaldispersion=gd3bj scf=xqc pop=npa geom=c
 heck
 ----------------------------------------------------------------------

 ---------------------------------------
 CID_123823777_JID_2551_Energie_neutraal
 ---------------------------------------
 Structure from the checkpoint file:  "JID_2551.chk"
 Charge =  0 Multiplicity = 1

 SCF Done:  E(RB3LYP) =  -517.801856791     A.U. after   14 cycles
 Normal termination of Gaussian 16 at Wed Dec  9 17:41:31 2020.

 ----------------------------------------------------------------------
 # B3LYP/6-311++G(d,p) empiricaldispersion=gd3bj scf=xqc pop=npa geom=c
 heck
 ----------------------------------------------------------------------

 -------------------------------------
 CID_123823777_JID_2551_Energie_kation
 -------------------------------------
 Structure from the checkpoint file:  "JID_2551.chk"
 Charge =  1 Multiplicity = 2

 SCF Done:  E(UB3LYP) =  -517.521507451     A.U. after   30 cycles
 Normal termination of Gaussian 16 at Wed Dec  9 17:46:40 2020.
 Gaussian 16:  ES64L-G16RevA.03 25-Dec-2016

 ----------------------------------------------------------------------
 # B3LYP/6-311++G(d,p) empiricaldispersion=gd3bj scf=xqc pop=npa geom=c
 heck
 ----------------------------------------------------------------------

 ------------------------------------
 CID_123823777_JID_2551_Energie_anion
 ------------------------------------
 Structure from the checkpoint file:  "JID_2551.chk"
 Charge = -1 Multiplicity = 2

                         Standard orientation:
 ---------------------------------------------------------------------
 Center     Atomic      Atomic             Coordinates (Angstroms)
 Number     Number       Type             X           Y           Z
 ---------------------------------------------------------------------
      1          6           0       -4.036839    0.000008   -1.081707
      2          6           0       -3.578191   -0.000055    0.174692
      3          6           0       -2.163603   -0.000024    0.546485
      4          6           0       -1.740797   -0.000393    1.821036
      5          8           0       -1.335026    0.000385   -0.554212
      6          6           0        0.037356    0.000219   -0.342725
      7          6           0        0.726895   -1.207236   -0.266077
      8          6           0        2.110966   -1.207679   -0.118438
      9          6           0        2.824223   -0.000066   -0.041173
     10          6           0        2.111182    1.207684   -0.118023
     11          6           0        0.727095    1.207516   -0.265628
     12          7           0        4.208552   -0.000278    0.167378
     13          1           0       -3.360478    0.000107   -1.929677
     14          1           0       -5.102208   -0.000055   -1.289928
     15          1           0       -4.269870   -0.000166    1.013793
     16          1           0       -0.692040   -0.000404    2.087984
     17          1           0       -2.470275   -0.000688    2.621907
     18          1           0        0.173826   -2.138824   -0.329223
     19          1           0        2.647487   -2.151472   -0.059121
     20          1           0        2.647851    2.151379   -0.058460
     21          1           0        0.174161    2.139207   -0.328437
     22          1           0        4.681102    0.834222   -0.158060
     23          1           0        4.681066   -0.834286   -0.159368
 ---------------------------------------------------------------------

 SCF Done:  E(UB3LYP) =  -517.790603754     A.U. after   33 cycles
 SCF Done:  E(UB3LYP) =  -517.790603754     a.u. after    1 cycles

 The electronic state is 2-A.
 Alpha  occ. eigenvalues --  -19.04575 -14.20215 -10.12033 -10.11473 -10.10650
 Alpha  occ. eigenvalues --  -10.07058 -10.06972 -10.06542 -10.06422 -10.06203
 Alpha  occ. eigenvalues --  -10.04953 -10.04091  -0.96543  -0.80824  -0.73701
 Alpha  occ. eigenvalues --   -0.69000  -0.64617  -0.62598  -0.61426  -0.52304
 Alpha  occ. eigenvalues --   -0.51723  -0.48536  -0.45435  -0.40990  -0.40555
 Alpha  occ. eigenvalues --   -0.38218  -0.37506  -0.34553  -0.34057  -0.33079
 Alpha  occ. eigenvalues --   -0.32042  -0.29748  -0.28699  -0.27967  -0.27900
 Alpha  occ. eigenvalues --   -0.25901  -0.24685  -0.24249  -0.19802  -0.17525
 Alpha  occ. eigenvalues --   -0.15410  -0.11897  -0.09864   0.04770
 Alpha virt. eigenvalues --    0.06041   0.07680   0.08101   0.08870   0.09079
 Alpha virt. eigenvalues --    0.09372   0.10577   0.10939   0.11179   0.12193
 Alpha virt. eigenvalues --    0.13210   0.13737   0.13990   0.14373   0.15798

  Beta  occ. eigenvalues --  -19.04568 -14.20133 -10.11977 -10.11472 -10.10645
  Beta  occ. eigenvalues --  -10.07053 -10.06966 -10.06523 -10.06394 -10.06121
  Beta  occ. eigenvalues --  -10.04791 -10.03983  -0.96512  -0.80735  -0.73641
  Beta  occ. eigenvalues --   -0.68757  -0.64588  -0.62369  -0.61320  -0.52136
  Beta  occ. eigenvalues --   -0.51680  -0.48238  -0.45350  -0.40885  -0.40496
  Beta  occ. eigenvalues --   -0.38122  -0.37373  -0.34483  -0.33979  -0.33012
  Beta  occ. eigenvalues --   -0.32007  -0.29684  -0.28635  -0.27884  -0.27665
  Beta  occ. eigenvalues --   -0.25835  -0.24580  -0.24124  -0.19754  -0.16924
  Beta  occ. eigenvalues --   -0.15348  -0.11123  -0.09801
  Beta virt. eigenvalues --    0.07539   0.07818   0.07991   0.08911   0.09108
  Beta virt. eigenvalues --    0.09167   0.09713   0.10529   0.11322   0.11561
  Beta virt. eigenvalues --    0.12167   0.13457   0.13862   0.14418   0.14762

 Mulliken charges and spin densities:
               1          2
     1  C   -0.572050   0.160423
     2  C   -0.173085   0.083776
     3  C    0.524435   0.029576
     4  C   -0.664221   0.008644
     5  O   -0.055004   0.004006
     6  C    0.166423  -0.740232
     7  C    0.106119   0.070177
     8  C    0.314905  -0.353353
     9  C    0.982393  -1.454830
    10  C   -0.495413   0.452709
    11  C    0.036575   0.134551
    12  N   -0.229584  -0.061110
    13  H    0.124715  -0.012818
    14  H    0.111513  -0.004958
    15  H    0.108677   0.006898
    16  H    0.132671   0.006337
    17  H    0.120253  -0.009564
    18  H    0.017395   0.137537
    19  H   -0.505511   0.677039
    20  H   -0.386516   0.553580
    21  H    0.160802  -0.011723
    22  H   -0.419722   0.666829
    23  H   -0.405770   0.656504
 Sum of Mulliken charges =  -1.00000   1.00000

 Dipole moment (field-independent basis, Debye):
    X=             -8.7019    Y=              0.8284    Z=              0.9113  Tot=              8.7886
 Quadrupole moment (field-independent basis, Debye-Ang):
   XX=           -168.9015   YY=            -95.6811   ZZ=            -91.2670
   XY=              1.0451   XZ=             -0.0097   YZ=             -0.2851

 Summary of Natural Population Analysis:

                                       Natural Population
                Natural  -----------------------------------------------
    Atom  No    Charge         Core      Valence    Rydberg      Total
 -----------------------------------------------------------------------
      C    1   -0.15756      0.99959     2.15010    0.00787     3.15756
      C    2   -0.10767      0.99953     2.09914    0.00900     3.10767
      C    3    0.15470      0.99938     1.83201    0.01391     2.84530
      C    4   -0.22637      0.99954     2.22112    0.00571     3.22637
      O    5   -0.28016      0.99984     3.26869    0.01163     4.28016
      C    6    0.12764      0.99934     1.85933    0.01369     2.87236
      C    7   -0.10807      0.99950     2.09906    0.00951     3.10807
      C    8   -0.11852      0.99952     2.10888    0.01012     3.11852
      C    9    0.08251      0.99949     1.90623    0.01177     2.91749
      C   10   -0.12118      0.99953     2.11166    0.01000     3.12118
      C   11   -0.10928      0.99951     2.10074    0.00903     3.10928
      N   12   -0.39545      0.99972     2.88455    0.01118     3.89545
      H   13    0.09588      0.00000     0.40312    0.00100     0.40412
      H   14    0.08500      0.00000     0.41406    0.00093     0.41500
      H   15    0.09073      0.00000     0.40794    0.00132     0.40927
      H   16    0.10250      0.00000     0.39674    0.00076     0.39750
      H   17    0.09380      0.00000     0.40541    0.00078     0.40620
      H   18    0.10545      0.00000     0.39360    0.00095     0.39455
      H   19    0.10200      0.00000     0.39686    0.00114     0.39800
      H   20    0.10096      0.00000     0.39808    0.00096     0.39904
      H   21    0.10448      0.00000     0.39463    0.00089     0.39552
      H   22    0.18865      0.00000     0.30169    0.00966     0.31135
      H   23    0.18993      0.00000     0.29873    0.01134     0.31007
 =======================================================================
   * Total *    0.00000     11.99449    30.85238    0.15313    43.00000

 Normal termination of Gaussian 16 at Wed Dec  9 17:52:48 2020.
