 Gaussian 16, Revision A.03,

 -----------------------------------------------------------
 # opt freq B3LYP/6-31G(d) empiricaldispersion=gd3bj scf=xqc
 -----------------------------------------------------------

 -------------------------------
 CID_105770145_JID_8645_neutraal
 -------------------------------
 Symbolic Z-matrix:
 Charge =  0 Multiplicity = 1

 SCF Done:  E(RB3LYP) =  -802.892241731     A.U. after   14 cycles
 SCF Done:  E(RB3LYP) =  -802.900247776     A.U. after   12 cycles
 SCF Done:  E(RB3LYP) =  -802.903276675     A.U. after   12 cycles
 SCF Done:  E(RB3LYP) =  -802.905709765     A.U. after   13 cycles
 SCF Done:  E(RB3LYP) =  -802.906470344     A.U. after   12 cycles
 SCF Done:  E(RB3LYP) =  -802.906762441     A.U. after   11 cycles
 SCF Done:  E(RB3LYP) =  -802.906824860     A.U. after   10 cycles
 SCF Done:  E(RB3LYP) =  -802.906846879     A.U. after   10 cycles
 SCF Done:  E(RB3LYP) =  -802.906863426     A.U. after   10 cycles
 SCF Done:  E(RB3LYP) =  -802.906869516     A.U. after    9 cycles
 SCF Done:  E(RB3LYP) =  -802.906888599     A.U. after    7 cycles
 SCF Done:  E(RB3LYP) =  -802.906888798     A.U. after    7 cycles
 SCF Done:  E(RB3LYP) =  -802.906888880     A.U. after    7 cycles
 SCF Done:  E(RB3LYP) =  -802.906888905     A.U. after    6 cycles
 SCF Done:  E(RB3LYP) =  -802.906888921     A.U. after    6 cycles
 Optimization completed.
    -- Stationary point found.
 Normal termination of Gaussian 16 at Fri Dec 11 20:55:04 2020.

 --------------------------------------------------------------------
 #N Geom=AllCheck Guess=TCheck SCRF=Check GenChk RB3LYP/6-31G(d) Freq
 --------------------------------------------------------------------

 Structure from the checkpoint file:  "JID_8645.chk"
 -------------------------------
 CID_105770145_JID_8645_neutraal
 -------------------------------
 Charge =  0 Multiplicity = 1

 SCF Done:  E(RB3LYP) =  -802.906888921     A.U. after    1 cycles

  Exact polarizability: 210.501 -10.559 171.459  17.626   2.192 125.465
 Approx polarizability: 265.200 -20.450 267.464  35.334   3.324 187.181

                      1                      2                      3
                      A                      A                      A
 Frequencies --     18.4426                21.3981                26.6221
 Red. masses --      3.4043                 4.0949                 3.8069
 Frc consts  --      0.0007                 0.0011                 0.0016
 IR Inten    --      0.8319                 0.3122                 0.4707

                      4                      5                      6
                      A                      A                      A
 Frequencies --     44.7246                79.6383                89.9764
 Red. masses --      3.0468                 2.9395                 1.5568
 Frc consts  --      0.0036                 0.0110                 0.0074
 IR Inten    --      0.0287                 3.7002                 0.6672

                      7                      8                      9
                      A                      A                      A
 Frequencies --     99.7701               115.0328               128.0964
 Red. masses --      1.8762                 2.4641                 3.4607
 Frc consts  --      0.0110                 0.0192                 0.0335
 IR Inten    --      2.0563                 1.2331                 3.6239

                     10                     11                     12
                      A                      A                      A
 Frequencies --    145.3886               196.0955               202.4622
 Red. masses --      3.0543                 2.0047                 3.4151
 Frc consts  --      0.0380                 0.0454                 0.0825
 IR Inten    --      1.2527                 0.9345                 7.4983

                     13                     14                     15
                      A                      A                      A
 Frequencies --    207.1992               210.6342               233.5809
 Red. masses --      1.2918                 1.8426                 2.0521
 Frc consts  --      0.0327                 0.0482                 0.0660
 IR Inten    --      1.4656                 3.4403                 4.5016

                     16                     17                     18
                      A                      A                      A
 Frequencies --    242.6280               264.7112               307.9668
 Red. masses --      1.4345                 3.3382                 2.6723
 Frc consts  --      0.0498                 0.1378                 0.1493
 IR Inten    --      1.0685                 1.2971                 6.2246

                     19                     20                     21
                      A                      A                      A
 Frequencies --    329.3545               353.3937               362.9248
 Red. masses --      3.4136                 2.3760                 2.2256
 Frc consts  --      0.2182                 0.1748                 0.1727
 IR Inten    --      5.9096                25.6474                 0.2109

                     22                     23                     24
                      A                      A                      A
 Frequencies --    380.9672               403.6186               413.1583
 Red. masses --      1.8800                 2.1857                 1.8417
 Frc consts  --      0.1608                 0.2098                 0.1852
 IR Inten    --     28.7796                16.2567                45.2559

                     25                     26                     27
                      A                      A                      A
 Frequencies --    440.7330               458.0830               501.3036
 Red. masses --      2.1307                 2.6202                 2.9382
 Frc consts  --      0.2439                 0.3239                 0.4350
 IR Inten    --      2.0418                12.7887                 1.7408

                     28                     29                     30
                      A                      A                      A
 Frequencies --    526.6138               562.5033               592.7993
 Red. masses --      2.2360                 3.4303                 3.4462
 Frc consts  --      0.3653                 0.6395                 0.7135
 IR Inten    --     62.6612                41.2623                 5.7538

                     31                     32                     33
                      A                      A                      A
 Frequencies --    624.9218               679.7818               705.0463
 Red. masses --      2.3996                 2.8462                 5.6132
 Frc consts  --      0.5521                 0.7749                 1.6440
 IR Inten    --     36.5992                 9.3512                13.4924

                     34                     35                     36
                      A                      A                      A
 Frequencies --    710.9617               736.8046               786.3899
 Red. masses --      4.1503                 2.2135                 2.2454
 Frc consts  --      1.2360                 0.7080                 0.8181
 IR Inten    --      1.2215                17.0791                 9.3508

                     37                     38                     39
                      A                      A                      A
 Frequencies --    793.7216               828.9115               877.4169
 Red. masses --      2.1757                 8.8611                 1.6355
 Frc consts  --      0.8076                 3.5872                 0.7418
 IR Inten    --     26.9466                44.4266                 8.9416

                     40                     41                     42
                      A                      A                      A
 Frequencies --    926.0289               935.5284               949.2611
 Red. masses --      1.3241                 2.9755                 3.2066
 Frc consts  --      0.6690                 1.5343                 1.7024
 IR Inten    --      1.3932                 4.6405                28.2175

                     43                     44                     45
                      A                      A                      A
 Frequencies --    979.3499               985.0616               996.0417
 Red. masses --      1.6260                 1.8649                 9.2068
 Frc consts  --      0.9189                 1.0662                 5.3816
 IR Inten    --      2.8352                 3.7866                23.7771

                     46                     47                     48
                      A                      A                      A
 Frequencies --    998.1916              1018.0650              1038.6108
 Red. masses --      2.0817                 2.6164                 1.6692
 Frc consts  --      1.2220                 1.5978                 1.0609
 IR Inten    --      2.6013                 4.4896                 3.1912

                     49                     50                     51
                      A                      A                      A
 Frequencies --   1043.8782              1066.2272              1096.3695
 Red. masses --      1.9989                 1.3095                 1.5957
 Frc consts  --      1.2834                 0.8771                 1.1301
 IR Inten    --      9.2782                 3.0585                 1.0422

                     52                     53                     54
                      A                      A                      A
 Frequencies --   1130.7564              1132.8071              1138.6459
 Red. masses --      2.3864                 2.3795                 2.0081
 Frc consts  --      1.7978                 1.7991                 1.5340
 IR Inten    --     55.8090                35.9647                 1.2923

                     55                     56                     57
                      A                      A                      A
 Frequencies --   1156.2011              1160.7858              1169.5185
 Red. masses --      2.5200                 1.3843                 1.9886
 Frc consts  --      1.9848                 1.0989                 1.6025
 IR Inten    --     63.6020                10.5301                16.7502

                     58                     59                     60
                      A                      A                      A
 Frequencies --   1182.2625              1194.1206              1194.7592
 Red. masses --      1.6830                 2.1507                 1.2974
 Frc consts  --      1.3860                 1.8069                 1.0912
 IR Inten    --      3.5968                 8.6771                 2.3404

                     61                     62                     63
                      A                      A                      A
 Frequencies --   1224.3179              1255.6993              1275.9235
 Red. masses --      1.5455                 1.7016                 1.8319
 Frc consts  --      1.3649                 1.5808                 1.7571
 IR Inten    --     25.7193               122.9057                70.1217

                     64                     65                     66
                      A                      A                      A
 Frequencies --   1302.4102              1316.3159              1331.1524
 Red. masses --      2.8598                 1.5729                 1.5105
 Frc consts  --      2.8581                 1.6058                 1.5769
 IR Inten    --     13.7730                 3.4113                27.6921

                     67                     68                     69
                      A                      A                      A
 Frequencies --   1349.3166              1387.7882              1391.0940
 Red. masses --      1.7700                 1.4974                 1.8466
 Frc consts  --      1.8986                 1.6992                 2.1054
 IR Inten    --      2.9715                25.6739                48.7960

                     70                     71                     72
                      A                      A                      A
 Frequencies --   1431.8447              1439.0865              1443.6742
 Red. masses --      1.8828                 1.3805                 1.7510
 Frc consts  --      2.2743                 1.6844                 2.1501
 IR Inten    --     12.4748                 6.4412                36.7133

                     73                     74                     75
                      A                      A                      A
 Frequencies --   1450.9019              1455.8995              1462.4395
 Red. masses --      1.2762                 1.5715                 1.6887
 Frc consts  --      1.5829                 1.9626                 2.1280
 IR Inten    --      4.3736                19.4500                 7.9784

                     76                     77                     78
                      A                      A                      A
 Frequencies --   1488.0750              1495.3278              1506.4488
 Red. masses --      1.6596                 1.1201                 1.1063
 Frc consts  --      2.1652                 1.4756                 1.4792
 IR Inten    --     38.0369                 0.9832                37.9980

                     79                     80                     81
                      A                      A                      A
 Frequencies --   1507.8595              1511.4848              1513.4943
 Red. masses --      1.0946                 1.0618                 1.0885
 Frc consts  --      1.4664                 1.4293                 1.4690
 IR Inten    --      5.8645                 7.1691                 5.1994

                     82                     83                     84
                      A                      A                      A
 Frequencies --   1516.1320              1523.4467              1528.1128
 Red. masses --      1.1287                 1.1168                 1.1111
 Frc consts  --      1.5287                 1.5271                 1.5286
 IR Inten    --      2.7156                 2.9835                13.4792

                     85                     86                     87
                      A                      A                      A
 Frequencies --   1535.2408              1539.0860              1541.3185
 Red. masses --      1.1361                 1.2193                 1.0667
 Frc consts  --      1.5777                 1.7018                 1.4931
 IR Inten    --      3.9545                15.6113                10.2104

                     88                     89                     90
                      A                      A                      A
 Frequencies --   1545.7379              1557.4310              1588.2457
 Red. masses --      1.1586                 2.0456                 2.9215
 Frc consts  --      1.6311                 2.9234                 4.3420
 IR Inten    --      3.3429               126.5627               304.6618

                     91                     92                     93
                      A                      A                      A
 Frequencies --   1627.3106              1657.2958              2998.8597
 Red. masses --      3.7498                 5.6525                 1.0460
 Frc consts  --      5.8505                 9.1472                 5.5421
 IR Inten    --     55.0809               988.6437                52.9659

                     94                     95                     96
                      A                      A                      A
 Frequencies --   3016.6379              3033.4545              3034.9429
 Red. masses --      1.0684                 1.0495                 1.0360
 Frc consts  --      5.7282                 5.6897                 5.6221
 IR Inten    --     57.1861                71.9096                32.0150

                     97                     98                     99
                      A                      A                      A
 Frequencies --   3039.9782              3061.6498              3073.1814
 Red. masses --      1.0374                 1.0661                 1.0900
 Frc consts  --      5.6488                 5.8879                 6.0655
 IR Inten    --     35.6660                30.5822                43.1141

                    100                    101                    102
                      A                      A                      A
 Frequencies --   3093.2073              3097.1997              3106.6205
 Red. masses --      1.1015                 1.1016                 1.0997
 Frc consts  --      6.2097                 6.2263                 6.2530
 IR Inten    --      7.2946                60.3008                24.5463

                    103                    104                    105
                      A                      A                      A
 Frequencies --   3111.0235              3115.9135              3122.8168
 Red. masses --      1.1016                 1.0867                 1.0962
 Frc consts  --      6.2818                 6.2161                 6.2983
 IR Inten    --     27.8319                36.0815                23.9440

                    106                    107                    108
                      A                      A                      A
 Frequencies --   3130.6547              3134.3527              3138.1511
 Red. masses --      1.1015                 1.0562                 1.0963
 Frc consts  --      6.3605                 6.1137                 6.3611
 IR Inten    --     48.8189                27.1048                19.9689

                    109                    110                    111
                      A                      A                      A
 Frequencies --   3152.6004              3161.1397              3211.0598
 Red. masses --      1.0887                 1.1036                 1.0907
 Frc consts  --      6.3753                 6.4978                 6.6257
 IR Inten    --     19.6363                13.2540                14.1989

                    112                    113                    114
                      A                      A                      A
 Frequencies --   3212.7394              3595.9354              3634.2691
 Red. masses --      1.1166                 1.0755                 1.0767
 Frc consts  --      6.7904                 8.1941                 8.3790
 IR Inten    --     15.4950                24.8048                22.5962

 - Thermochemistry -
 -------------------
 Temperature   298.150 Kelvin.  Pressure   1.00000 Atm.
 Atom     1 has atomic number  6 and mass  12.00000

 Molecular mass:   250.17936 amu.
 Principal axes and moments of inertia in atomic units:
                           1         2         3
     Eigenvalues --  2724.097488830.27198**********
           X            0.99993  -0.01146  -0.00105
           Y            0.01146   0.99993  -0.00045
           Z            0.00105   0.00044   1.00000
 This molecule is an asymmetric top.
 Rotational symmetry number  1.
 Warning -- assumption of classical behavior for rotation
           may cause significant error
 Rotational temperatures (Kelvin)      0.03180     0.00981     0.00845
 Rotational constants (GHZ):           0.66251     0.20438     0.17607
 Zero-point vibrational energy     916175.3 (Joules/Mol)
                                  218.97115 (Kcal/Mol)
 Warning -- explicit consideration of  30 degrees of freedom as
           vibrations may cause significant error
 Vibrational temperatures:     26.53    30.79    38.30    64.35   114.58
          (Kelvin)            129.46   143.55   165.51   184.30   209.18
                              282.14   291.30   298.11   303.06   336.07
                              349.09   380.86   443.10   473.87   508.45
                              522.17   548.13   580.72   594.44   634.12
                              659.08   721.26   757.68   809.32   852.91
                              899.12   978.05  1014.40  1022.92  1060.10
                             1131.44  1141.99  1192.62  1262.41  1332.35
                             1346.02  1365.77  1409.07  1417.28  1433.08
                             1436.18  1464.77  1494.33  1501.91  1534.06
                             1577.43  1626.91  1629.86  1638.26  1663.52
                             1670.11  1682.68  1701.01  1718.07  1718.99
                             1761.52  1806.67  1835.77  1873.88  1893.89
                             1915.23  1941.37  1996.72  2001.47  2060.11
                             2070.52  2077.13  2087.52  2094.71  2104.12
                             2141.01  2151.44  2167.44  2169.47  2174.69
                             2177.58  2181.38  2191.90  2198.61  2208.87
                             2214.40  2217.61  2223.97  2240.80  2285.13
                             2341.34  2384.48  4314.69  4340.27  4364.46
                             4366.61  4373.85  4405.03  4421.62  4450.44
                             4456.18  4469.73  4476.07  4483.10  4493.04
                             4504.31  4509.63  4515.10  4535.89  4548.18
                             4620.00  4622.42  5173.75  5228.90

 Zero-point correction=                           0.348953 (Hartree/Particle)
 Thermal correction to Energy=                    0.368747
 Thermal correction to Enthalpy=                  0.369691
 Thermal correction to Gibbs Free Energy=         0.298263
 Sum of electronic and zero-point Energies=           -802.557936
 Sum of electronic and thermal Energies=              -802.538142
 Sum of electronic and thermal Enthalpies=            -802.537198
 Sum of electronic and thermal Free Energies=         -802.608626

                     E (Thermal)             CV                S
                      KCal/Mol        Cal/Mol-Kelvin    Cal/Mol-Kelvin
 Total                  231.392             72.569            150.333
 Electronic               0.000              0.000              0.000
 Translational            0.889              2.981             42.451
 Rotational               0.889              2.981             33.866
 Vibrational            229.615             66.607             74.016
 Vibration     1          0.593              1.986              6.795
 Vibration     2          0.593              1.985              6.500
 Vibration     3          0.593              1.984              6.066
 Vibration     4          0.595              1.980              5.038
 Vibration     5          0.600              1.963              3.900
 Vibration     6          0.602              1.956              3.661
 Vibration     7          0.604              1.949              3.459
 Vibration     8          0.608              1.937              3.182
 Vibration     9          0.611              1.925              2.974
 Vibration    10          0.617              1.908              2.732
 Vibration    11          0.636              1.845              2.169
 Vibration    12          0.639              1.836              2.111
 Vibration    13          0.641              1.830              2.068
 Vibration    14          0.643              1.825              2.038
 Vibration    15          0.654              1.790              1.851
 Vibration    16          0.659              1.775              1.784
 Vibration    17          0.671              1.738              1.630
 Vibration    18          0.698              1.659              1.373
 Vibration    19          0.712              1.617              1.263
 Vibration    20          0.730              1.568              1.151
 Vibration    21          0.737              1.549              1.110
 Vibration    22          0.751              1.511              1.035
 Vibration    23          0.769              1.462              0.949
 Vibration    24          0.777              1.442              0.916
 Vibration    25          0.801              1.381              0.824
 Vibration    26          0.816              1.343              0.772
 Vibration    27          0.857              1.247              0.655
 Vibration    28          0.882              1.191              0.595
 Vibration    29          0.918              1.112              0.519
 Vibration    30          0.950              1.047              0.462

                           ! Non-Optimized Parameters !
 Normal termination of Gaussian 16 at Fri Dec 11 21:11:28 2020.

 ----------------------------------------------------------------------
 # B3LYP/6-311++G(d,p) empiricaldispersion=gd3bj scf=xqc pop=npa geom=c
 heck
 ----------------------------------------------------------------------

 ---------------------------------------
 CID_105770145_JID_8645_Energie_neutraal
 ---------------------------------------
 Structure from the checkpoint file:  "JID_8645.chk"
 Charge =  0 Multiplicity = 1

 SCF Done:  E(RB3LYP) =  -803.133163403     A.U. after   14 cycles
 Normal termination of Gaussian 16 at Fri Dec 11 21:19:02 2020.

 ----------------------------------------------------------------------
 # B3LYP/6-311++G(d,p) empiricaldispersion=gd3bj scf=xqc pop=npa geom=c
 heck
 ----------------------------------------------------------------------

 -------------------------------------
 CID_105770145_JID_8645_Energie_kation
 -------------------------------------
 Structure from the checkpoint file:  "JID_8645.chk"
 Charge =  1 Multiplicity = 2

 SCF Done:  E(UB3LYP) =  -802.850646215     A.U. after   26 cycles
 Normal termination of Gaussian 16 at Fri Dec 11 21:38:54 2020.
 Gaussian 16:  ES64L-G16RevA.03 25-Dec-2016

 ----------------------------------------------------------------------
 # B3LYP/6-311++G(d,p) empiricaldispersion=gd3bj scf=xqc pop=npa geom=c
 heck
 ----------------------------------------------------------------------

 ------------------------------------
 CID_105770145_JID_8645_Energie_anion
 ------------------------------------
 Structure from the checkpoint file:  "JID_8645.chk"
 Charge = -1 Multiplicity = 2

                         Standard orientation:
 ---------------------------------------------------------------------
 Center     Atomic      Atomic             Coordinates (Angstroms)
 Number     Number       Type             X           Y           Z
 ---------------------------------------------------------------------
      1          6           0       -4.260801    1.662163    0.143504
      2          6           0       -3.979074    0.228700    0.556912
      3          6           0       -4.561419   -0.896326   -0.270492
      4          6           0       -3.069986   -0.644307   -0.282811
      5          6           0       -2.378180   -0.131523   -1.531266
      6          7           0       -1.220195    0.707705   -1.262462
      7          6           0       -0.057669    0.241985   -0.708251
      8          7           0        0.738168    1.200241   -0.172033
      9          6           0        1.892635    0.788791    0.345652
     10          7           0        2.350774   -0.469398    0.409177
     11          6           0        1.557016   -1.414703   -0.134131
     12          6           0        0.312861   -1.105594   -0.706635
     13          7           0        2.026396   -2.699052   -0.115739
     14          6           0        3.202333   -3.081970    0.645205
     15          6           0        2.807127    1.864127    0.898035
     16          8           0        3.745764    2.327523   -0.063789
     17          6           0        4.798555    1.418190   -0.323870
     18          6           0       -3.909083    0.036011    2.060644
     19          1           0       -4.347595    1.778104   -0.941199
     20          1           0       -5.204774    2.007366    0.582690
     21          1           0       -3.469091    2.336137    0.495761
     22          1           0       -4.937839   -1.780596    0.237353
     23          1           0       -5.121701   -0.629335   -1.164344
     24          1           0       -2.460974   -1.343885    0.286957
     25          1           0       -2.062587   -0.973065   -2.159223
     26          1           0       -3.068015    0.455055   -2.144265
     27          1           0       -1.402836    1.670927   -1.009719
     28          1           0       -0.315173   -1.879997   -1.132033
     29          1           0        1.358684   -3.423308   -0.334162
     30          1           0        3.048921   -3.001944    1.730402
     31          1           0        3.455660   -4.115410    0.394675
     32          1           0        4.039186   -2.433773    0.378924
     33          1           0        2.206767    2.734459    1.170478
     34          1           0        3.328334    1.474499    1.785663
     35          1           0        5.326838    1.142058    0.603062
     36          1           0        4.446016    0.495369   -0.801125
     37          1           0        5.493550    1.932511   -0.993604
     38          1           0       -4.852733    0.326719    2.539538
     39          1           0       -3.709656   -1.009415    2.320729
     40          1           0       -3.108999    0.647607    2.496177
 ---------------------------------------------------------------------

 SCF Done:  E(UB3LYP) =  -803.124239134     A.U. after   33 cycles
 SCF Done:  E(UB3LYP) =  -803.124239134     a.u. after    1 cycles

 The electronic state is 2-A.
 Alpha  occ. eigenvalues --  -19.04165 -14.23648 -14.23492 -14.20265 -14.20052
 Alpha  occ. eigenvalues --  -10.15517 -10.15490 -10.14287 -10.12761 -10.12467
 Alpha  occ. eigenvalues --  -10.11938 -10.10236 -10.09829 -10.08482 -10.07969
 Alpha  occ. eigenvalues --  -10.07859 -10.07262 -10.07170  -0.95174  -0.89886
 Alpha  occ. eigenvalues --   -0.86198  -0.82865  -0.78421  -0.76034  -0.69189
 Alpha  occ. eigenvalues --   -0.65122  -0.64282  -0.61931  -0.60389  -0.59932
 Alpha  occ. eigenvalues --   -0.57829  -0.52570  -0.51725  -0.49482  -0.46930
 Alpha  occ. eigenvalues --   -0.45095  -0.43169  -0.40419  -0.40043  -0.40012
 Alpha  occ. eigenvalues --   -0.38104  -0.37855  -0.37581  -0.37067  -0.35631
 Alpha  occ. eigenvalues --   -0.34965  -0.34592  -0.33542  -0.32496  -0.31769
 Alpha  occ. eigenvalues --   -0.31331  -0.30656  -0.29880  -0.29865  -0.29410
 Alpha  occ. eigenvalues --   -0.29127  -0.27722  -0.25935  -0.24716  -0.24255
 Alpha  occ. eigenvalues --   -0.21574  -0.21230  -0.19980  -0.18178  -0.17275
 Alpha  occ. eigenvalues --   -0.16168  -0.14051  -0.12460   0.03886
 Alpha virt. eigenvalues --    0.05581   0.06494   0.06940   0.07118   0.07523
 Alpha virt. eigenvalues --    0.08052   0.08463   0.09138   0.09266   0.09560
 Alpha virt. eigenvalues --    0.09738   0.09895   0.10654   0.10901   0.11248

  Beta  occ. eigenvalues --  -19.04164 -14.23644 -14.23454 -14.20265 -14.20043
  Beta  occ. eigenvalues --  -10.15519 -10.15489 -10.14286 -10.12759 -10.12464
  Beta  occ. eigenvalues --  -10.11924 -10.10206 -10.09828 -10.08473 -10.07948
  Beta  occ. eigenvalues --  -10.07832 -10.07242 -10.07151  -0.95171  -0.89873
  Beta  occ. eigenvalues --   -0.86171  -0.82834  -0.78407  -0.76014  -0.69171
  Beta  occ. eigenvalues --   -0.65095  -0.64269  -0.61899  -0.60344  -0.59883
  Beta  occ. eigenvalues --   -0.57812  -0.52521  -0.51701  -0.49431  -0.46905
  Beta  occ. eigenvalues --   -0.45055  -0.43135  -0.40374  -0.40027  -0.39996
  Beta  occ. eigenvalues --   -0.38081  -0.37813  -0.37543  -0.37051  -0.35601
  Beta  occ. eigenvalues --   -0.34934  -0.34563  -0.33499  -0.32478  -0.31749
  Beta  occ. eigenvalues --   -0.31312  -0.30637  -0.29843  -0.29837  -0.29386
  Beta  occ. eigenvalues --   -0.29115  -0.27697  -0.25910  -0.24696  -0.24249
  Beta  occ. eigenvalues --   -0.21559  -0.21222  -0.19956  -0.18159  -0.17272
  Beta  occ. eigenvalues --   -0.16159  -0.14036  -0.12435
  Beta virt. eigenvalues --    0.05907   0.06359   0.06766   0.07412   0.07475
  Beta virt. eigenvalues --    0.07951   0.08302   0.08725   0.09174   0.09451
  Beta virt. eigenvalues --    0.09852   0.10022   0.10198   0.10795   0.11027

 Mulliken charges and spin densities:
               1          2
     1  C    0.035096  -0.625101
     2  C   -1.285336   1.629608
     3  C    0.435494  -1.100316
     4  C    0.170690   0.437769
     5  C    0.666166  -1.463938
     6  N   -0.015927   0.077005
     7  C   -0.122230  -0.184693
     8  N   -0.085149   0.016091
     9  C   -0.346788   0.088592
    10  N   -0.025072  -0.010591
    11  C    0.479895  -0.303538
    12  C    0.053830  -0.217770
    13  N   -0.194445   0.056393
    14  C    0.510889  -0.837005
    15  C   -0.297550  -0.195334
    16  O   -0.125529   0.002907
    17  C   -0.234683  -0.078042
    18  C    0.458424  -1.041646
    19  H   -0.158702   0.282717
    20  H   -0.172430   0.319967
    21  H    0.099859   0.050800
    22  H   -0.294227   0.455279
    23  H   -0.062186   0.201334
    24  H    0.034726   0.174155
    25  H   -0.055336   0.262733
    26  H    0.068980   0.088240
    27  H    0.264644   0.015334
    28  H   -0.340297   0.495030
    29  H   -0.460781   0.756208
    30  H   -0.048957   0.212847
    31  H   -0.455381   0.607978
    32  H    0.063901   0.096934
    33  H    0.142259   0.028165
    34  H    0.136371   0.012812
    35  H    0.092852   0.015944
    36  H    0.124885   0.062154
    37  H    0.112825   0.015029
    38  H   -0.047978   0.183261
    39  H   -0.211417   0.359112
    40  H    0.088615   0.053577
 Sum of Mulliken charges =  -1.00000   1.00000

 Dipole moment (field-independent basis, Debye):
    X=              2.6983    Y=              6.1074    Z=              0.2036  Tot=              6.6800
 Quadrupole moment (field-independent basis, Debye-Ang):
   XX=           -187.0468   YY=           -183.0217   ZZ=           -140.8894
   XY=              3.6483   XZ=              4.8066   YZ=              0.1263

 Summary of Natural Population Analysis:

                                       Natural Population
                Natural  -----------------------------------------------
    Atom  No    Charge         Core      Valence    Rydberg      Total
 -----------------------------------------------------------------------
      C    1   -0.28468      0.99962     2.27885    0.00621     3.28468
      C    2   -0.04536      0.99956     2.03410    0.01170     3.04536
      C    3   -0.19133      0.99957     2.18208    0.00968     3.19133
      C    4   -0.11787      0.99953     2.10772    0.01062     3.11787
      C    5   -0.08905      0.99959     2.07766    0.01180     3.08905
      N    6   -0.30462      0.99967     2.79507    0.00988     3.80462
      C    7    0.21722      0.99953     1.76808    0.01516     2.78278
      N    8   -0.28747      0.99965     2.77779    0.01003     3.78747
      C    9    0.21381      0.99962     1.76985    0.01672     2.78619
      N   10   -0.29944      0.99965     2.78992    0.00987     3.79944
      C   11    0.22045      0.99954     1.76449    0.01552     2.77955
      C   12   -0.19099      0.99947     2.18318    0.00834     3.19099
      N   13   -0.30061      0.99967     2.78958    0.01137     3.80061
      C   14   -0.17748      0.99965     2.16897    0.00887     3.17748
      C   15   -0.02212      0.99954     2.00980    0.01279     3.02212
      O   16   -0.29235      0.99989     3.28348    0.00898     4.29235
      C   17   -0.09981      0.99962     2.09142    0.00877     3.09981
      C   18   -0.27762      0.99962     2.27299    0.00501     3.27762
      H   19    0.09927      0.00000     0.39970    0.00102     0.40073
      H   20    0.10169      0.00000     0.39743    0.00088     0.39831
      H   21    0.09874      0.00000     0.40019    0.00106     0.40126
      H   22    0.10538      0.00000     0.39339    0.00123     0.39462
      H   23    0.10032      0.00000     0.39852    0.00117     0.39968
      H   24    0.10871      0.00000     0.38930    0.00199     0.39129
      H   25    0.10136      0.00000     0.39740    0.00124     0.39864
      H   26    0.09897      0.00000     0.39982    0.00121     0.40103
      H   27    0.19166      0.00000     0.30538    0.00296     0.30834
      H   28    0.11111      0.00000     0.38716    0.00173     0.38889
      H   29    0.19692      0.00000     0.29025    0.01283     0.30308
      H   30    0.09052      0.00000     0.40818    0.00130     0.40948
      H   31    0.09845      0.00000     0.40008    0.00148     0.40155
      H   32    0.10016      0.00000     0.39843    0.00141     0.39984
      H   33    0.09652      0.00000     0.40210    0.00138     0.40348
      H   34    0.08205      0.00000     0.41652    0.00143     0.41795
      H   35    0.07512      0.00000     0.42326    0.00162     0.42488
      H   36    0.08848      0.00000     0.41005    0.00147     0.41152
      H   37    0.08419      0.00000     0.41474    0.00107     0.41581
      H   38    0.09707      0.00000     0.40190    0.00103     0.40293
      H   39    0.10279      0.00000     0.39609    0.00112     0.39721
      H   40    0.09985      0.00000     0.39909    0.00107     0.40015
 =======================================================================
   * Total *    0.00000     17.99299    49.77401    0.23301    68.00000

 Normal termination of Gaussian 16 at Fri Dec 11 22:04:44 2020.
