 Gaussian 16, Revision A.03,

 -----------------------------------------------------------
 # opt freq B3LYP/6-31G(d) empiricaldispersion=gd3bj scf=xqc
 -----------------------------------------------------------

 ------------------------------
 CID_75398715_JID_9638_neutraal
 ------------------------------
 Symbolic Z-matrix:
 Charge =  0 Multiplicity = 1

 SCF Done:  E(RB3LYP) =  -1272.94817626     A.U. after   15 cycles
 SCF Done:  E(RB3LYP) =  -1272.89009581     A.U. after   14 cycles
 SCF Done:  E(RB3LYP) =  -1272.95593430     A.U. after   12 cycles
 SCF Done:  E(RB3LYP) =  -1272.95386759     A.U. after   15 cycles
 SCF Done:  E(RB3LYP) =  -1272.95779725     A.U. after   12 cycles
 SCF Done:  E(RB3LYP) =  -1272.95850113     A.U. after   12 cycles
 SCF Done:  E(RB3LYP) =  -1272.95908996     A.U. after   12 cycles
 SCF Done:  E(RB3LYP) =  -1272.95961088     A.U. after   12 cycles
 SCF Done:  E(RB3LYP) =  -1272.96026073     A.U. after   12 cycles
 SCF Done:  E(RB3LYP) =  -1272.96083625     A.U. after   11 cycles
 SCF Done:  E(RB3LYP) =  -1272.96197151     A.U. after    7 cycles
 SCF Done:  E(RB3LYP) =  -1272.96197159     A.U. after    7 cycles
 SCF Done:  E(RB3LYP) =  -1272.96197163     A.U. after    7 cycles
 SCF Done:  E(RB3LYP) =  -1272.96197162     A.U. after    6 cycles
 SCF Done:  E(RB3LYP) =  -1272.96197159     A.U. after    6 cycles
 Optimization completed.
    -- Stationary point found.
 Normal termination of Gaussian 16 at Sat Dec 12 10:20:02 2020.

 --------------------------------------------------------------------
 #N Geom=AllCheck Guess=TCheck SCRF=Check GenChk RB3LYP/6-31G(d) Freq
 --------------------------------------------------------------------

 Structure from the checkpoint file:  "JID_9638.chk"
 ------------------------------
 CID_75398715_JID_9638_neutraal
 ------------------------------
 Charge =  0 Multiplicity = 1

 SCF Done:  E(RB3LYP) =  -1272.96197159     A.U. after    1 cycles

  Exact polarizability: 153.274  25.048 162.802  -2.918  -4.791 155.839
 Approx polarizability: 228.032  56.659 260.531 -15.315 -11.817 249.103

                      1                      2                      3
                      A                      A                      A
 Frequencies --     20.8238                32.8839                46.9543
 Red. masses --      3.5472                 6.4156                 5.5414
 Frc consts  --      0.0009                 0.0041                 0.0072
 IR Inten    --      0.1536                 1.9756                 1.0070

                      4                      5                      6
                      A                      A                      A
 Frequencies --     50.7860                64.7497                67.6913
 Red. masses --      5.5526                 6.1300                 8.0197
 Frc consts  --      0.0084                 0.0151                 0.0217
 IR Inten    --      0.6831                 1.2024                 0.8485

                      7                      8                      9
                      A                      A                      A
 Frequencies --     76.8334               105.1920               119.8406
 Red. masses --      4.5819                 3.2868                 3.4105
 Frc consts  --      0.0159                 0.0214                 0.0289
 IR Inten    --      0.2203                 3.3228                 2.0013

                     10                     11                     12
                      A                      A                      A
 Frequencies --    149.0038               178.8420               193.7630
 Red. masses --      4.6254                 2.3586                 2.7528
 Frc consts  --      0.0605                 0.0444                 0.0609
 IR Inten    --      1.2869                 0.1739                 1.9976

                     13                     14                     15
                      A                      A                      A
 Frequencies --    201.4064               210.2213               222.7227
 Red. masses --      1.5002                 1.6762                 1.5127
 Frc consts  --      0.0359                 0.0436                 0.0442
 IR Inten    --      0.1504                 3.2430                 4.4958

                     16                     17                     18
                      A                      A                      A
 Frequencies --    264.9095               270.2220               309.6987
 Red. masses --      2.6971                 1.3786                 3.3737
 Frc consts  --      0.1115                 0.0593                 0.1906
 IR Inten    --      3.0778                 1.9398                 7.5128

                     19                     20                     21
                      A                      A                      A
 Frequencies --    316.3480               331.1411               342.3593
 Red. masses --      3.0053                 3.6746                 2.5178
 Frc consts  --      0.1772                 0.2374                 0.1739
 IR Inten    --      3.0222                13.8070                 7.8985

                     22                     23                     24
                      A                      A                      A
 Frequencies --    373.1399               401.6103               412.3675
 Red. masses --      2.5582                 2.7930                 3.0516
 Frc consts  --      0.2099                 0.2654                 0.3057
 IR Inten    --     16.2220                 4.4223                 3.1694

                     25                     26                     27
                      A                      A                      A
 Frequencies --    433.9159               476.6242               495.5019
 Red. masses --      8.0273                 3.5743                 2.9675
 Frc consts  --      0.8905                 0.4784                 0.4293
 IR Inten    --      3.0642                 3.5456                16.0001

                     28                     29                     30
                      A                      A                      A
 Frequencies --    525.5357               555.4082               561.8023
 Red. masses --      5.7835                 2.3649                 4.3520
 Frc consts  --      0.9411                 0.4298                 0.8093
 IR Inten    --     12.0006                44.7333                 5.0329

                     31                     32                     33
                      A                      A                      A
 Frequencies --    574.1363               600.9267               619.4569
 Red. masses --      4.6756                 3.0645                 2.2470
 Frc consts  --      0.9081                 0.6520                 0.5080
 IR Inten    --      9.5326                45.5746                69.8824

                     34                     35                     36
                      A                      A                      A
 Frequencies --    642.8211               662.5513               697.8760
 Red. masses --      4.5434                 4.7408                 2.0364
 Frc consts  --      1.1061                 1.2261                 0.5844
 IR Inten    --     47.4913                 8.8921                22.7888

                     37                     38                     39
                      A                      A                      A
 Frequencies --    711.3171               716.0827               776.0990
 Red. masses --      2.3517                 1.8422                 3.9427
 Frc consts  --      0.7011                 0.5566                 1.3992
 IR Inten    --      9.7109                 9.0111                 3.0026

                     40                     41                     42
                      A                      A                      A
 Frequencies --    798.6244               806.4611               835.2796
 Red. masses --      5.6116                 1.6086                 4.9045
 Frc consts  --      2.1088                 0.6164                 2.0161
 IR Inten    --     36.3942                 2.7114                 1.4325

                     43                     44                     45
                      A                      A                      A
 Frequencies --    843.3765               874.7657               946.6177
 Red. masses --      1.9648                 4.0220                 1.9813
 Frc consts  --      0.8234                 1.8133                 1.0460
 IR Inten    --     21.6279                22.5728                 3.6888

                     46                     47                     48
                      A                      A                      A
 Frequencies --    956.1086              1006.5758              1028.5047
 Red. masses --      2.4547                 2.5076                 1.6137
 Frc consts  --      1.3221                 1.4969                 1.0057
 IR Inten    --      3.9240                 8.7322                 0.6463

                     49                     50                     51
                      A                      A                      A
 Frequencies --   1052.0474              1060.3100              1073.0263
 Red. masses --      3.1283                 2.8390                 2.1961
 Frc consts  --      2.0400                 1.8805                 1.4897
 IR Inten    --      8.3213                 2.5582                48.5066

                     52                     53                     54
                      A                      A                      A
 Frequencies --   1079.4124              1115.9505              1138.8013
 Red. masses --      1.4688                 2.3885                 1.6448
 Frc consts  --      1.0083                 1.7525                 1.2568
 IR Inten    --      5.6194                 5.6076                14.7024

                     55                     56                     57
                      A                      A                      A
 Frequencies --   1169.3115              1182.8420              1192.8477
 Red. masses --      1.5353                 2.0900                 1.9345
 Frc consts  --      1.2368                 1.7229                 1.6218
 IR Inten    --      6.6699                37.2694                12.1798

                     58                     59                     60
                      A                      A                      A
 Frequencies --   1203.8484              1236.6093              1243.1126
 Red. masses --      2.0981                 2.2379                 1.5250
 Frc consts  --      1.7915                 2.0163                 1.3884
 IR Inten    --     15.5680                33.6740                18.9976

                     61                     62                     63
                      A                      A                      A
 Frequencies --   1270.0782              1329.5898              1345.0774
 Red. masses --      2.5773                 1.3814                 1.6799
 Frc consts  --      2.4495                 1.4388                 1.7907
 IR Inten    --     37.7226                34.6501                26.8019

                     64                     65                     66
                      A                      A                      A
 Frequencies --   1361.2208              1373.9814              1399.1007
 Red. masses --      1.7631                 1.7610                 1.6751
 Frc consts  --      1.9248                 1.9587                 1.9319
 IR Inten    --     91.4589                98.6848                61.0448

                     67                     68                     69
                      A                      A                      A
 Frequencies --   1414.0715              1420.4955              1432.7406
 Red. masses --      1.6001                 1.8508                 1.7623
 Frc consts  --      1.8851                 2.2003                 2.1314
 IR Inten    --     61.1637                56.7744                34.4596

                     70                     71                     72
                      A                      A                      A
 Frequencies --   1439.2105              1452.6594              1474.2687
 Red. masses --      1.2722                 1.4201                 1.3992
 Frc consts  --      1.5526                 1.7656                 1.7918
 IR Inten    --      1.2276                28.2742                23.6947

                     73                     74                     75
                      A                      A                      A
 Frequencies --   1491.1917              1492.7622              1501.4846
 Red. masses --      1.3852                 1.1558                 1.3478
 Frc consts  --      1.8148                 1.5174                 1.7903
 IR Inten    --     15.5101                17.2954                26.5848

                     76                     77                     78
                      A                      A                      A
 Frequencies --   1505.8431              1509.8904              1518.6856
 Red. masses --      1.0480                 1.0837                 1.0584
 Frc consts  --      1.4002                 1.4556                 1.4383
 IR Inten    --      9.5457                44.6212                 7.4715

                     79                     80                     81
                      A                      A                      A
 Frequencies --   1522.7953              1524.7987              1529.9011
 Red. masses --      1.0566                 1.1018                 1.1061
 Frc consts  --      1.4435                 1.5093                 1.5254
 IR Inten    --      1.9541                10.0155                 3.2841

                     82                     83                     84
                      A                      A                      A
 Frequencies --   1539.6965              1549.4250              1671.2482
 Red. masses --      1.1225                 1.0656                 6.5939
 Frc consts  --      1.5679                 1.5072                10.8511
 IR Inten    --      4.4622                31.2207                15.1958

                     85                     86                     87
                      A                      A                      A
 Frequencies --   1793.8346              1802.1747              1808.0423
 Red. masses --     11.6963                 8.4353                 8.8117
 Frc consts  --     22.1750                16.1416                16.9717
 IR Inten    --    421.2722               229.6040               424.1695

                     88                     89                     90
                      A                      A                      A
 Frequencies --   3026.4313              3049.4053              3050.7458
 Red. masses --      1.0558                 1.0374                 1.0417
 Frc consts  --      5.6979                 5.6835                 5.7124
 IR Inten    --     64.8600                 7.0400                19.7553

                     91                     92                     93
                      A                      A                      A
 Frequencies --   3051.3245              3095.7107              3103.2943
 Red. masses --      1.0701                 1.0619                 1.0990
 Frc consts  --      5.8704                 5.9957                 6.2357
 IR Inten    --     40.4058                 3.3907                21.3637

                     94                     95                     96
                      A                      A                      A
 Frequencies --   3105.5693              3114.8930              3129.0795
 Red. masses --      1.0620                 1.1009                 1.1022
 Frc consts  --      6.0345                 6.2934                 6.3582
 IR Inten    --     21.7234                30.8562                28.8637

                     97                     98                     99
                      A                      A                      A
 Frequencies --   3147.7885              3149.3058              3152.2196
 Red. masses --      1.1045                 1.0998                 1.0781
 Frc consts  --      6.4480                 6.4266                 6.3117
 IR Inten    --     20.2574                 6.7947                 9.4761

                    100                    101                    102
                      A                      A                      A
 Frequencies --   3159.9180              3180.4839              3203.9703
 Red. masses --      1.1037                 1.0910                 1.1063
 Frc consts  --      6.4930                 6.5025                 6.6911
 IR Inten    --      1.7253                 6.6271                 5.4021

                    103                    104                    105
                      A                      A                      A
 Frequencies --   3278.8717              3518.0674              3584.5798
 Red. masses --      1.0949                 1.0758                 1.0752
 Frc consts  --      6.9356                 7.8446                 8.1397
 IR Inten    --      3.4294                17.6502                20.9126

 - Thermochemistry -
 -------------------
 Temperature   298.150 Kelvin.  Pressure   1.00000 Atm.
 Atom     1 has atomic number  6 and mass  12.00000

 Molecular mass:   286.10996 amu.
 Principal axes and moments of inertia in atomic units:
                           1         2         3
     Eigenvalues --  4327.717485518.058856738.91597
           X            0.99882   0.01314   0.04670
           Y           -0.01344   0.99989   0.00607
           Z           -0.04661  -0.00669   0.99889
 This molecule is an asymmetric top.
 Rotational symmetry number  1.
 Warning -- assumption of classical behavior for rotation
           may cause significant error
 Rotational temperatures (Kelvin)      0.02001     0.01570     0.01285
 Rotational constants (GHZ):           0.41702     0.32706     0.26781
 Zero-point vibrational energy     796915.9 (Joules/Mol)
                                  190.46746 (Kcal/Mol)
 Warning -- explicit consideration of  33 degrees of freedom as
           vibrations may cause significant error
 Vibrational temperatures:     29.96    47.31    67.56    73.07    93.16
          (Kelvin)             97.39   110.55   151.35   172.42   214.38
                              257.31   278.78   289.78   302.46   320.45
                              381.15   388.79   445.59   455.15   476.44
                              492.58   536.87   577.83   593.30   624.31
                              685.76   712.92   756.13   799.11   808.31
                              826.05   864.60   891.26   924.88   953.26
                             1004.09  1023.43  1030.28  1116.63  1149.04
                             1160.32  1201.78  1213.43  1258.59  1361.97
                             1375.63  1448.24  1479.79  1513.66  1525.55
                             1543.85  1553.03  1605.60  1638.48  1682.38
                             1701.85  1716.24  1732.07  1779.20  1788.56
                             1827.36  1912.98  1935.27  1958.49  1976.85
                             2012.99  2034.53  2043.78  2061.39  2070.70
                             2090.05  2121.14  2145.49  2147.75  2160.30
                             2166.57  2172.40  2185.05  2190.96  2193.85
                             2201.19  2215.28  2229.28  2404.55  2580.93
                             2592.93  2601.37  4354.36  4387.41  4389.34
                             4390.18  4454.04  4464.95  4468.22  4481.64
                             4502.05  4528.97  4531.15  4535.34  4546.42
                             4576.01  4609.80  4717.57  5061.71  5157.41

 Zero-point correction=                           0.303529 (Hartree/Particle)
 Thermal correction to Energy=                    0.323880
 Thermal correction to Enthalpy=                  0.324824
 Thermal correction to Gibbs Free Energy=         0.252966
 Sum of electronic and zero-point Energies=          -1272.658442
 Sum of electronic and thermal Energies=             -1272.638092
 Sum of electronic and thermal Enthalpies=           -1272.637148
 Sum of electronic and thermal Free Energies=        -1272.709006

                     E (Thermal)             CV                S
                      KCal/Mol        Cal/Mol-Kelvin    Cal/Mol-Kelvin
 Total                  203.238             74.421            151.237
 Electronic               0.000              0.000              0.000
 Translational            0.889              2.981             42.851
 Rotational               0.889              2.981             33.442
 Vibrational            201.460             68.460             74.944
 Vibration     1          0.593              1.986              6.554
 Vibration     2          0.594              1.983              5.647
 Vibration     3          0.595              1.979              4.942
 Vibration     4          0.595              1.977              4.787
 Vibration     5          0.597              1.971              4.307
 Vibration     6          0.598              1.970              4.219
 Vibration     7          0.599              1.965              3.970
 Vibration     8          0.605              1.945              3.356
 Vibration     9          0.609              1.933              3.103
 Vibration    10          0.618              1.904              2.685
 Vibration    11          0.629              1.868              2.340
 Vibration    12          0.635              1.849              2.192
 Vibration    13          0.638              1.838              2.120
 Vibration    14          0.642              1.825              2.042
 Vibration    15          0.648              1.806              1.937
 Vibration    16          0.671              1.737              1.629
 Vibration    17          0.674              1.728              1.595
 Vibration    18          0.699              1.655              1.364
 Vibration    19          0.703              1.642              1.329
 Vibration    20          0.714              1.613              1.255
 Vibration    21          0.721              1.591              1.201
 Vibration    22          0.745              1.527              1.067
 Vibration    23          0.767              1.467              0.957
 Vibration    24          0.776              1.443              0.918
 Vibration    25          0.795              1.396              0.846
 Vibration    26          0.833              1.302              0.719
 Vibration    27          0.851              1.260              0.669
 Vibration    28          0.880              1.193              0.597
 Vibration    29          0.911              1.128              0.533
 Vibration    30          0.917              1.114              0.520
 Vibration    31          0.930              1.087              0.496
 Vibration    32          0.959              1.030              0.448
 Vibration    33          0.979              0.991              0.417

 Optimization completed.
    -- Stationary point found.
 Normal termination of Gaussian 16 at Sat Dec 12 10:40:27 2020.

 ----------------------------------------------------------------------
 # B3LYP/6-311++G(d,p) empiricaldispersion=gd3bj scf=xqc pop=npa geom=c
 heck
 ----------------------------------------------------------------------

 --------------------------------------
 CID_75398715_JID_9638_Energie_neutraal
 --------------------------------------
 Structure from the checkpoint file:  "JID_9638.chk"
 Charge =  0 Multiplicity = 1

 SCF Done:  E(RB3LYP) =  -1273.24720164     A.U. after   17 cycles
 Normal termination of Gaussian 16 at Sat Dec 12 10:48:53 2020.

 ----------------------------------------------------------------------
 # B3LYP/6-311++G(d,p) empiricaldispersion=gd3bj scf=xqc pop=npa geom=c
 heck
 ----------------------------------------------------------------------

 ------------------------------------
 CID_75398715_JID_9638_Energie_kation
 ------------------------------------
 Structure from the checkpoint file:  "JID_9638.chk"
 Charge =  1 Multiplicity = 2

 SCF Done:  E(UB3LYP) =  -1272.95032084     A.U. after   32 cycles
 Normal termination of Gaussian 16 at Sat Dec 12 11:10:26 2020.
 Gaussian 16:  ES64L-G16RevA.03 25-Dec-2016

 ----------------------------------------------------------------------
 # B3LYP/6-311++G(d,p) empiricaldispersion=gd3bj scf=xqc pop=npa geom=c
 heck
 ----------------------------------------------------------------------

 -----------------------------------
 CID_75398715_JID_9638_Energie_anion
 -----------------------------------
 Structure from the checkpoint file:  "JID_9638.chk"
 Charge = -1 Multiplicity = 2

                         Standard orientation:
 ---------------------------------------------------------------------
 Center     Atomic      Atomic             Coordinates (Angstroms)
 Number     Number       Type             X           Y           Z
 ---------------------------------------------------------------------
      1          6           0        0.243729    3.143864    1.240311
      2          6           0       -0.226421    2.687188   -0.140414
      3          7           0       -1.672880    2.465506   -0.183611
      4          6           0       -2.289767    1.238220   -0.134205
      5          8           0       -3.367100    1.050435    0.407526
      6          7           0       -1.556613    0.190055   -0.766839
      7          6           0       -1.207743    0.368326   -2.187774
      8          7           0       -2.117666   -1.066775   -0.553309
      9          6           0       -1.830544   -1.841595    0.544921
     10          8           0       -2.435921   -2.884174    0.736729
     11          6           0       -0.736796   -1.379966    1.502410
     12          6           0        0.653449   -1.974603    1.187463
     13          7           0        1.507160   -1.078555    0.409963
     14          6           0        2.233635   -0.011845    0.954290
     15          6           0        2.859372    0.734119    0.020625
     16         16           0        2.575626    0.142443   -1.608747
     17          6           0        1.537325   -1.191708   -0.968228
     18          8           0        0.960841   -2.026746   -1.636947
     19          6           0        2.292359    0.187950    2.435064
     20          1           0       -0.236321    4.083947    1.537149
     21          1           0        1.327119    3.303714    1.239054
     22          1           0        0.007154    2.388942    1.997859
     23          1           0        0.051845    3.428034   -0.900545
     24          1           0        0.268500    1.752973   -0.400999
     25          1           0       -2.236767    3.166232    0.283498
     26          1           0       -0.578636   -0.470035   -2.483815
     27          1           0       -2.110602    0.389518   -2.815546
     28          1           0       -0.665111    1.302466   -2.327828
     29          1           0       -3.034154   -1.241550   -0.959695
     30          1           0       -0.670860   -0.291249    1.554149
     31          1           0       -1.058948   -1.751973    2.478147
     32          1           0        1.177803   -2.208692    2.116275
     33          1           0        0.555584   -2.899387    0.616593
     34          1           0        3.497292    1.585913    0.205439
     35          1           0        1.296070    0.314090    2.873694
     36          1           0        2.768985   -0.662499    2.937812
     37          1           0        2.876867    1.083030    2.660028
 ---------------------------------------------------------------------

 SCF Done:  E(UB3LYP) =  -1273.24479605     A.U. after   33 cycles
 SCF Done:  E(UB3LYP) =  -1273.24479605     a.u. after    1 cycles

 The electronic state is 2-A.
 Alpha  occ. eigenvalues --  -88.78968 -19.02345 -19.01573 -19.01021 -14.29183
 Alpha  occ. eigenvalues --  -14.28927 -14.28109 -14.25511 -10.21936 -10.21743
 Alpha  occ. eigenvalues --  -10.19534 -10.14338 -10.14132 -10.12379 -10.12314
 Alpha  occ. eigenvalues --  -10.11006 -10.10290 -10.09222 -10.07515  -7.87611
 Alpha  occ. eigenvalues --   -5.83912  -5.83586  -5.83125  -0.99185  -0.97899
 Alpha  occ. eigenvalues --   -0.96209  -0.91309  -0.89669  -0.84938  -0.75968
 Alpha  occ. eigenvalues --   -0.75136  -0.69320  -0.68778  -0.67164  -0.62363
 Alpha  occ. eigenvalues --   -0.59969  -0.59169  -0.55543  -0.54630  -0.53154
 Alpha  occ. eigenvalues --   -0.50325  -0.46455  -0.45285  -0.42429  -0.42250
 Alpha  occ. eigenvalues --   -0.41035  -0.40486  -0.40014  -0.37451  -0.37163
 Alpha  occ. eigenvalues --   -0.36292  -0.36065  -0.35515  -0.34876  -0.34701
 Alpha  occ. eigenvalues --   -0.34101  -0.33415  -0.33163  -0.32286  -0.31982
 Alpha  occ. eigenvalues --   -0.30785  -0.30284  -0.29470  -0.29277  -0.28653
 Alpha  occ. eigenvalues --   -0.27443  -0.27286  -0.25157  -0.21712  -0.20781
 Alpha  occ. eigenvalues --   -0.19875  -0.19510  -0.17962  -0.17779  -0.17439
 Alpha  occ. eigenvalues --   -0.13152   0.03487
 Alpha virt. eigenvalues --    0.05710   0.06638   0.06809   0.07557   0.07901
 Alpha virt. eigenvalues --    0.08408   0.08603   0.08859   0.09316   0.09643
 Alpha virt. eigenvalues --    0.09989   0.10335   0.10970   0.11105   0.11390

  Beta  occ. eigenvalues --  -88.78963 -19.02345 -19.01569 -19.01016 -14.29181
  Beta  occ. eigenvalues --  -14.28923 -14.28103 -14.25501 -10.21935 -10.21739
  Beta  occ. eigenvalues --  -10.19527 -10.14339 -10.14116 -10.12376 -10.12296
  Beta  occ. eigenvalues --  -10.10968 -10.10279 -10.09151 -10.07461  -7.87607
  Beta  occ. eigenvalues --   -5.83900  -5.83581  -5.83122  -0.99177  -0.97894
  Beta  occ. eigenvalues --   -0.96198  -0.91302  -0.89660  -0.84919  -0.75953
  Beta  occ. eigenvalues --   -0.75115  -0.69274  -0.68747  -0.67116  -0.62351
  Beta  occ. eigenvalues --   -0.59925  -0.59095  -0.55468  -0.54596  -0.53117
  Beta  occ. eigenvalues --   -0.50307  -0.46406  -0.45268  -0.42414  -0.42237
  Beta  occ. eigenvalues --   -0.40993  -0.40447  -0.39975  -0.37414  -0.37132
  Beta  occ. eigenvalues --   -0.36271  -0.36035  -0.35484  -0.34839  -0.34661
  Beta  occ. eigenvalues --   -0.34080  -0.33373  -0.33149  -0.32249  -0.31940
  Beta  occ. eigenvalues --   -0.30745  -0.30249  -0.29435  -0.29246  -0.28597
  Beta  occ. eigenvalues --   -0.27387  -0.27245  -0.25134  -0.21701  -0.20767
  Beta  occ. eigenvalues --   -0.19860  -0.19499  -0.17945  -0.17761  -0.17430
  Beta  occ. eigenvalues --   -0.13131
  Beta virt. eigenvalues --    0.06041   0.06519   0.07014   0.07403   0.07726
  Beta virt. eigenvalues --    0.08468   0.08654   0.08755   0.09189   0.09593
  Beta virt. eigenvalues --    0.09844   0.10238   0.10643   0.11177   0.11293

 Mulliken charges and spin densities:
               1          2
     1  C    0.990844  -1.581149
     2  C   -0.745209   0.732460
     3  N   -0.113990   0.007341
     4  C    0.092072  -0.186639
     5  O   -0.277987   0.012910
     6  N    0.335305   0.020006
     7  C   -0.376995   0.060961
     8  N   -0.501568  -0.049901
     9  C   -0.112627  -0.101480
    10  O   -0.297571   0.003156
    11  C    0.058551   0.066077
    12  C   -0.316637   0.007478
    13  N    0.180394   0.188153
    14  C   -2.363441   1.879467
    15  C    0.185886   0.054514
    16  S    0.860767  -0.689989
    17  C   -0.529923   0.320954
    18  O   -0.291221  -0.000927
    19  C    3.610326  -4.410154
    20  H   -0.434012   0.590603
    21  H   -0.047879   0.210688
    22  H   -0.211271   0.358237
    23  H   -0.523465   0.745549
    24  H    0.640551  -0.795989
    25  H    0.219435   0.079223
    26  H    0.176587   0.017473
    27  H    0.094818   0.057186
    28  H    0.070916   0.065119
    29  H    0.317368  -0.004757
    30  H    0.263676  -0.120679
    31  H    0.030716   0.219236
    32  H   -0.065967   0.231773
    33  H    0.201664   0.044006
    34  H   -1.160340   1.461007
    35  H   -0.122139   0.281596
    36  H   -0.400699   0.605911
    37  H   -0.436935   0.620580
 Sum of Mulliken charges =  -1.00000   1.00000

 Dipole moment (field-independent basis, Debye):
    X=             -2.9911    Y=             -2.7349    Z=             -5.6243  Tot=              6.9325
 Quadrupole moment (field-independent basis, Debye-Ang):
   XX=           -189.8983   YY=           -190.7687   ZZ=           -166.1607
   XY=            -16.8138   XZ=             -4.0177   YZ=             -7.8840

 Summary of Natural Population Analysis:

                                       Natural Population
                Natural  -----------------------------------------------
    Atom  No    Charge         Core      Valence    Rydberg      Total
 -----------------------------------------------------------------------
      C    1   -0.28777      0.99966     2.28221    0.00590     3.28777
      C    2   -0.09608      0.99962     2.08529    0.01118     3.09608
      N    3   -0.32491      0.99967     2.81560    0.00964     3.82491
      C    4    0.40840      0.99968     1.56771    0.02422     2.59160
      O    5   -0.32276      0.99987     3.31784    0.00504     4.32276
      N    6   -0.19448      0.99968     2.68335    0.01145     3.69448
      C    7   -0.18062      0.99963     2.17428    0.00672     3.18062
      N    8   -0.22233      0.99965     2.71051    0.01216     3.72233
      C    9    0.35166      0.99968     1.62591    0.02275     2.64834
      O   10   -0.31498      0.99987     3.30957    0.00554     4.31498
      C   11   -0.23933      0.99957     2.23158    0.00819     3.23933
      C   12   -0.08382      0.99960     2.07279    0.01144     3.08382
      N   13   -0.24751      0.99958     2.73539    0.01254     3.74751
      C   14    0.08168      0.99946     1.90432    0.01453     2.91832
      C   15   -0.20550      0.99942     2.19460    0.01148     3.20550
      S   16    0.13887      4.99949     2.84334    0.01830     7.86113
      C   17    0.26215      0.99967     1.70836    0.02982     2.73785
      O   18   -0.31804      0.99987     3.31123    0.00695     4.31804
      C   19   -0.30140      0.99962     2.29500    0.00678     3.30140
      H   20    0.09842      0.00000     0.39995    0.00163     0.40158
      H   21    0.10906      0.00000     0.38846    0.00249     0.39094
      H   22    0.09728      0.00000     0.40069    0.00203     0.40272
      H   23    0.09274      0.00000     0.40569    0.00157     0.40726
      H   24    0.10291      0.00000     0.39204    0.00505     0.39709
      H   25    0.19424      0.00000     0.30368    0.00208     0.30576
      H   26    0.11479      0.00000     0.38406    0.00116     0.38521
      H   27    0.08566      0.00000     0.41346    0.00087     0.41434
      H   28    0.10371      0.00000     0.39534    0.00095     0.39629
      H   29    0.18965      0.00000     0.30807    0.00228     0.31035
      H   30    0.11033      0.00000     0.38724    0.00242     0.38967
      H   31    0.11693      0.00000     0.38208    0.00099     0.38307
      H   32    0.10640      0.00000     0.39249    0.00110     0.39360
      H   33    0.11642      0.00000     0.38233    0.00125     0.38358
      H   34    0.12015      0.00000     0.37748    0.00237     0.37985
      H   35    0.10829      0.00000     0.38984    0.00188     0.39171
      H   36    0.11098      0.00000     0.38687    0.00215     0.38902
      H   37    0.11882      0.00000     0.37872    0.00246     0.38118
 =======================================================================
   * Total *   -0.00000     22.99328    52.73736    0.26936    76.00000

 Normal termination of Gaussian 16 at Sat Dec 12 11:32:28 2020.
