 Gaussian 16, Revision A.03,

 -----------------------------------------------------------
 # opt freq B3LYP/6-31G(d) empiricaldispersion=gd3bj scf=xqc
 -----------------------------------------------------------

 -------------------------------
 CID_113315183_JID_8523_neutraal
 -------------------------------
 Symbolic Z-matrix:
 Charge =  0 Multiplicity = 1

 SCF Done:  E(RB3LYP) =  -806.752089531     A.U. after   15 cycles
 SCF Done:  E(RB3LYP) =  -806.754829149     A.U. after   13 cycles
 SCF Done:  E(RB3LYP) =  -806.750527509     A.U. after   13 cycles
 SCF Done:  E(RB3LYP) =  -806.754879352     A.U. after   13 cycles
 SCF Done:  E(RB3LYP) =  -806.756771355     A.U. after   13 cycles
 SCF Done:  E(RB3LYP) =  -806.757249836     A.U. after   12 cycles
 SCF Done:  E(RB3LYP) =  -806.757344202     A.U. after   11 cycles
 SCF Done:  E(RB3LYP) =  -806.757406352     A.U. after   11 cycles
 SCF Done:  E(RB3LYP) =  -806.757435933     A.U. after   10 cycles
 SCF Done:  E(RB3LYP) =  -806.757456597     A.U. after   10 cycles
 SCF Done:  E(RB3LYP) =  -806.757479588     A.U. after   10 cycles
 SCF Done:  E(RB3LYP) =  -806.757484809     A.U. after    9 cycles
 SCF Done:  E(RB3LYP) =  -806.757486477     A.U. after    8 cycles
 SCF Done:  E(RB3LYP) =  -806.757486770     A.U. after    7 cycles
 SCF Done:  E(RB3LYP) =  -806.757486816     A.U. after    7 cycles
 Optimization completed.
    -- Stationary point found.
 Normal termination of Gaussian 16 at Fri Dec 11 21:03:46 2020.

 --------------------------------------------------------------------
 #N Geom=AllCheck Guess=TCheck SCRF=Check GenChk RB3LYP/6-31G(d) Freq
 --------------------------------------------------------------------

 Structure from the checkpoint file:  "JID_8523.chk"
 -------------------------------
 CID_113315183_JID_8523_neutraal
 -------------------------------
 Charge =  0 Multiplicity = 1

 SCF Done:  E(RB3LYP) =  -806.757486816     A.U. after    1 cycles

  Exact polarizability: 169.669   0.939 166.930   9.434   4.541 134.782
 Approx polarizability: 225.199  -2.511 236.971  18.884   2.743 220.277

                      1                      2                      3
                      A                      A                      A
 Frequencies --     20.0225                32.3027                45.7570
 Red. masses --      4.2225                 4.5120                 4.5584
 Frc consts  --      0.0010                 0.0028                 0.0056
 IR Inten    --      0.3794                 2.4665                 0.3988

                      4                      5                      6
                      A                      A                      A
 Frequencies --     59.0755                70.1503                74.6955
 Red. masses --      6.2575                 3.1214                 3.3822
 Frc consts  --      0.0129                 0.0091                 0.0111
 IR Inten    --      1.9515                 0.7802                 1.0027

                      7                      8                      9
                      A                      A                      A
 Frequencies --    101.2499               125.9229               156.6418
 Red. masses --      3.1983                 3.8396                 1.6668
 Frc consts  --      0.0193                 0.0359                 0.0241
 IR Inten    --      0.8699                 0.4770                 1.5883

                     10                     11                     12
                      A                      A                      A
 Frequencies --    204.4089               217.6287               235.3279
 Red. masses --      3.1552                 2.6583                 2.3440
 Frc consts  --      0.0777                 0.0742                 0.0765
 IR Inten    --      1.4902                 2.6050                 2.0595

                     13                     14                     15
                      A                      A                      A
 Frequencies --    248.0422               264.3451               290.2027
 Red. masses --      1.5902                 3.0238                 2.1804
 Frc consts  --      0.0576                 0.1245                 0.1082
 IR Inten    --      1.4976                 1.1392                 0.8013

                     16                     17                     18
                      A                      A                      A
 Frequencies --    303.8487               343.5812               362.8483
 Red. masses --      2.8698                 3.3483                 2.2013
 Frc consts  --      0.1561                 0.2329                 0.1708
 IR Inten    --      3.7707                 2.3440                 1.3294

                     19                     20                     21
                      A                      A                      A
 Frequencies --    427.3302               450.8035               463.3417
 Red. masses --      4.6437                 2.6551                 2.8425
 Frc consts  --      0.4996                 0.3179                 0.3595
 IR Inten    --      3.1717                 3.5888                 0.3403

                     22                     23                     24
                      A                      A                      A
 Frequencies --    481.0145               509.6145               547.7595
 Red. masses --      2.7008                 2.9440                 2.8580
 Frc consts  --      0.3682                 0.4505                 0.5052
 IR Inten    --      3.3847                14.5842                 6.4970

                     25                     26                     27
                      A                      A                      A
 Frequencies --    569.8095               616.2438               625.0377
 Red. masses --      2.9930                 3.7939                 1.8767
 Frc consts  --      0.5726                 0.8489                 0.4320
 IR Inten    --     28.6468                 7.8606                35.6571

                     28                     29                     30
                      A                      A                      A
 Frequencies --    664.4970               684.9676               712.0403
 Red. masses --      3.5992                 2.6489                 1.9194
 Frc consts  --      0.9364                 0.7322                 0.5734
 IR Inten    --      2.7705                 2.3313                78.5397

                     31                     32                     33
                      A                      A                      A
 Frequencies --    722.8652               758.0833               768.2189
 Red. masses --      1.3868                 2.4981                 1.9870
 Frc consts  --      0.4270                 0.8458                 0.6909
 IR Inten    --     26.0755                14.5029                19.2921

                     34                     35                     36
                      A                      A                      A
 Frequencies --    812.0962               820.5161               835.9016
 Red. masses --      1.3825                 1.7163                 1.2902
 Frc consts  --      0.5372                 0.6808                 0.5311
 IR Inten    --      1.9609                44.9619                18.6382

                     37                     38                     39
                      A                      A                      A
 Frequencies --    862.5361               871.8496               898.8440
 Red. masses --      1.9693                 2.7129                 1.9837
 Frc consts  --      0.8632                 1.2150                 0.9443
 IR Inten    --      2.9207                 5.3566                 5.2757

                     40                     41                     42
                      A                      A                      A
 Frequencies --    902.3828               915.1905               920.5068
 Red. masses --      2.1364                 1.4670                 2.5843
 Frc consts  --      1.0250                 0.7240                 1.2902
 IR Inten    --      0.9473                 3.0916                15.5263

                     43                     44                     45
                      A                      A                      A
 Frequencies --    933.0227               971.0384              1009.6435
 Red. masses --      2.8437                 2.2527                 1.9485
 Frc consts  --      1.4586                 1.2515                 1.1703
 IR Inten    --      2.3457                 4.7620                10.7230

                     46                     47                     48
                      A                      A                      A
 Frequencies --   1027.7154              1063.8695              1070.5001
 Red. masses --      1.7506                 2.1514                 1.9470
 Frc consts  --      1.0894                 1.4347                 1.3146
 IR Inten    --      2.3021                 3.5318                 1.3645

                     49                     50                     51
                      A                      A                      A
 Frequencies --   1080.4150              1095.2986              1103.7029
 Red. masses --      2.0811                 2.4125                 2.2643
 Frc consts  --      1.4313                 1.7052                 1.6252
 IR Inten    --      4.8375                10.1377                 6.2657

                     52                     53                     54
                      A                      A                      A
 Frequencies --   1129.0190              1136.0368              1141.6704
 Red. masses --      2.1826                 2.2676                 2.0048
 Frc consts  --      1.6392                 1.7243                 1.5396
 IR Inten    --     25.0311                23.2588                 7.7053

                     55                     56                     57
                      A                      A                      A
 Frequencies --   1162.0221              1168.7718              1182.5742
 Red. masses --      1.7324                 2.1352                 2.0265
 Frc consts  --      1.3782                 1.7185                 1.6697
 IR Inten    --     12.3270                18.3150                 9.0774

                     58                     59                     60
                      A                      A                      A
 Frequencies --   1187.4544              1222.4610              1232.5824
 Red. masses --      2.4141                 1.4417                 1.3606
 Frc consts  --      2.0056                 1.2694                 1.2179
 IR Inten    --      3.0549                 9.3392                49.4546

                     61                     62                     63
                      A                      A                      A
 Frequencies --   1265.8570              1273.4786              1276.5252
 Red. masses --      1.8015                 1.5388                 1.6988
 Frc consts  --      1.7008                 1.4703                 1.6310
 IR Inten    --      6.2647                 5.2054                 8.1140

                     64                     65                     66
                      A                      A                      A
 Frequencies --   1292.4522              1295.1373              1322.2689
 Red. masses --      1.3502                 1.3196                 1.2368
 Frc consts  --      1.3288                 1.3042                 1.2741
 IR Inten    --      8.2047                20.6612                 0.4910

                     67                     68                     69
                      A                      A                      A
 Frequencies --   1336.4266              1343.9493              1365.1923
 Red. masses --      1.4583                 1.3216                 1.4425
 Frc consts  --      1.5346                 1.4064                 1.5840
 IR Inten    --     56.3743                35.3184                 2.3973

                     70                     71                     72
                      A                      A                      A
 Frequencies --   1388.3129              1392.5504              1395.9184
 Red. masses --      1.4175                 1.4431                 1.4085
 Frc consts  --      1.6097                 1.6488                 1.6170
 IR Inten    --     10.4180                 3.2852                23.1350

                     73                     74                     75
                      A                      A                      A
 Frequencies --   1400.9565              1416.9335              1420.8111
 Red. masses --      1.4362                 1.4779                 1.3633
 Frc consts  --      1.6607                 1.7482                 1.6214
 IR Inten    --     22.3566                 1.1274                 8.9954

                     76                     77                     78
                      A                      A                      A
 Frequencies --   1436.0438              1448.4170              1465.8376
 Red. masses --      1.4723                 1.3849                 3.3805
 Frc consts  --      1.7889                 1.7118                 4.2796
 IR Inten    --     41.2296                10.4428                 2.0490

                     79                     80                     81
                      A                      A                      A
 Frequencies --   1491.4232              1503.9326              1512.5280
 Red. masses --      1.5625                 1.2206                 1.1153
 Frc consts  --      2.0478                 1.6266                 1.5033
 IR Inten    --     31.4931                23.3316                 2.4699

                     82                     83                     84
                      A                      A                      A
 Frequencies --   1519.9277              1522.9646              1524.5659
 Red. masses --      1.1048                 1.0670                 1.0762
 Frc consts  --      1.5037                 1.4581                 1.4738
 IR Inten    --      2.2680                 0.4381                 0.6598

                     85                     86                     87
                      A                      A                      A
 Frequencies --   1528.6042              1533.9687              1536.0302
 Red. masses --      1.1042                 1.0894                 1.1361
 Frc consts  --      1.5202                 1.5103                 1.5792
 IR Inten    --      0.8984                26.9483                 5.1572

                     88                     89                     90
                      A                      A                      A
 Frequencies --   1539.8832              1547.4245              1555.9654
 Red. masses --      1.0922                 1.2511                 3.7797
 Frc consts  --      1.5259                 1.7651                 5.3915
 IR Inten    --      9.2459                55.1502                 8.0681

                     91                     92                     93
                      A                      A                      A
 Frequencies --   1680.9937              1771.5520              2906.9632
 Red. masses --      8.1466                 7.4526                 1.0807
 Frc consts  --     13.5630                13.7805                 5.3806
 IR Inten    --      9.8219               298.6636                67.1401

                     94                     95                     96
                      A                      A                      A
 Frequencies --   2998.1057              3020.5668              3039.5846
 Red. masses --      1.0707                 1.0687                 1.0582
 Frc consts  --      5.6705                 5.7447                 5.7604
 IR Inten    --     51.1148                33.9842                24.2183

                     97                     98                     99
                      A                      A                      A
 Frequencies --   3042.7001              3044.8185              3050.1621
 Red. masses --      1.0452                 1.0663                 1.0600
 Frc consts  --      5.7011                 5.8246                 5.8106
 IR Inten    --     30.8486                19.2430                21.9380

                    100                    101                    102
                      A                      A                      A
 Frequencies --   3061.6171              3072.3792              3073.8313
 Red. masses --      1.0652                 1.0919                 1.0668
 Frc consts  --      5.8827                 6.0727                 5.9386
 IR Inten    --     47.4928                42.7876                11.7917

                    103                    104                    105
                      A                      A                      A
 Frequencies --   3089.0106              3091.8086              3096.0594
 Red. masses --      1.0953                 1.0977                 1.1021
 Frc consts  --      6.1580                 6.1826                 6.2245
 IR Inten    --      7.3474                13.2148                56.5029

                    106                    107                    108
                      A                      A                      A
 Frequencies --   3103.5157              3104.7885              3111.9901
 Red. masses --      1.0947                 1.1020                 1.1035
 Frc consts  --      6.2124                 6.2591                 6.2966
 IR Inten    --     50.9301                20.0564                47.9263

                    109                    110                    111
                      A                      A                      A
 Frequencies --   3126.5682              3143.1270              3256.2453
 Red. masses --      1.1000                 1.0965                 1.0926
 Frc consts  --      6.3355                 6.3826                 6.8258
 IR Inten    --     22.3966                26.3216                 3.2727

                    112                    113                    114
                      A                      A                      A
 Frequencies --   3301.3545              3494.2882              3583.9243
 Red. masses --      1.1027                 1.0733                 1.0755
 Frc consts  --      7.0810                 7.7211                 8.1390
 IR Inten    --      1.4968                 0.1074                15.4904

 - Thermochemistry -
 -------------------
 Temperature   298.150 Kelvin.  Pressure   1.00000 Atm.
 Atom     1 has atomic number  6 and mass  12.00000

 Molecular mass:   250.16813 amu.
 Principal axes and moments of inertia in atomic units:
                           1         2         3
     Eigenvalues --  2855.440296988.304488251.49828
           X            0.99962   0.02703  -0.00582
           Y           -0.02701   0.99963   0.00337
           Z            0.00591  -0.00321   0.99998
 This molecule is an asymmetric top.
 Rotational symmetry number  1.
 Warning -- assumption of classical behavior for rotation
           may cause significant error
 Rotational temperatures (Kelvin)      0.03033     0.01239     0.01050
 Rotational constants (GHZ):           0.63204     0.25825     0.21872
 Zero-point vibrational energy     927318.5 (Joules/Mol)
                                  221.63443 (Kcal/Mol)
 Warning -- explicit consideration of  26 degrees of freedom as
           vibrations may cause significant error
 Vibrational temperatures:     28.81    46.48    65.83    85.00   100.93
          (Kelvin)            107.47   145.68   181.17   225.37   294.10
                              313.12   338.58   356.88   380.33   417.54
                              437.17   494.34   522.06   614.83   648.61
                              666.65   692.07   733.22   788.10   819.83
                              886.64   899.29   956.06   985.52  1024.47
                             1040.04  1090.71  1105.30  1168.43  1180.54
                             1202.68  1241.00  1254.40  1293.24  1298.33
                             1316.75  1324.40  1342.41  1397.11  1452.65
                             1478.65  1530.67  1540.21  1554.48  1575.89
                             1587.98  1624.41  1634.50  1642.61  1671.89
                             1681.60  1701.46  1708.48  1758.85  1773.41
                             1821.29  1832.25  1836.63  1859.55  1863.41
                             1902.45  1922.82  1933.64  1964.21  1997.47
                             2003.57  2008.42  2015.66  2038.65  2044.23
                             2066.15  2083.95  2109.01  2145.83  2163.82
                             2176.19  2186.84  2191.21  2193.51  2199.32
                             2207.04  2210.00  2215.55  2226.40  2238.69
                             2418.58  2548.87  4182.47  4313.61  4345.92
                             4373.28  4377.77  4380.81  4388.50  4404.98
                             4420.47  4422.56  4444.40  4448.42  4454.54
                             4465.27  4467.10  4477.46  4498.43  4522.26
                             4685.01  4749.91  5027.50  5156.47

 Zero-point correction=                           0.353197 (Hartree/Particle)
 Thermal correction to Energy=                    0.370988
 Thermal correction to Enthalpy=                  0.371932
 Thermal correction to Gibbs Free Energy=         0.305484
 Sum of electronic and zero-point Energies=           -806.404290
 Sum of electronic and thermal Energies=              -806.386499
 Sum of electronic and thermal Enthalpies=            -806.385555
 Sum of electronic and thermal Free Energies=         -806.452003

                     E (Thermal)             CV                S
                      KCal/Mol        Cal/Mol-Kelvin    Cal/Mol-Kelvin
 Total                  232.798             67.690            139.852
 Electronic               0.000              0.000              0.000
 Translational            0.889              2.981             42.451
 Rotational               0.889              2.981             33.465
 Vibrational            231.021             61.729             63.936
 Vibration     1          0.593              1.986              6.632
 Vibration     2          0.594              1.983              5.683
 Vibration     3          0.595              1.979              4.993
 Vibration     4          0.596              1.974              4.488
 Vibration     5          0.598              1.968              4.149
 Vibration     6          0.599              1.966              4.026
 Vibration     7          0.604              1.948              3.430
 Vibration     8          0.611              1.927              3.007
 Vibration     9          0.620              1.895              2.590
 Vibration    10          0.640              1.834              2.093
 Vibration    11          0.646              1.814              1.979
 Vibration    12          0.655              1.787              1.838
 Vibration    13          0.662              1.766              1.744
 Vibration    14          0.671              1.738              1.633
 Vibration    15          0.686              1.692              1.473
 Vibration    16          0.695              1.666              1.396
 Vibration    17          0.722              1.588              1.195
 Vibration    18          0.737              1.549              1.110
 Vibration    19          0.789              1.411              0.867
 Vibration    20          0.810              1.359              0.793
 Vibration    21          0.821              1.331              0.756
 Vibration    22          0.837              1.292              0.707
 Vibration    23          0.865              1.229              0.635
 Vibration    24          0.903              1.145              0.549
 Vibration    25          0.926              1.097              0.505
 Vibration    26          0.976              0.998              0.423

                           ! Non-Optimized Parameters !
 Normal termination of Gaussian 16 at Fri Dec 11 21:22:22 2020.

 ----------------------------------------------------------------------
 # B3LYP/6-311++G(d,p) empiricaldispersion=gd3bj scf=xqc pop=npa geom=c
 heck
 ----------------------------------------------------------------------

 ---------------------------------------
 CID_113315183_JID_8523_Energie_neutraal
 ---------------------------------------
 Structure from the checkpoint file:  "JID_8523.chk"
 Charge =  0 Multiplicity = 1

 SCF Done:  E(RB3LYP) =  -806.986307392     A.U. after   15 cycles
 Normal termination of Gaussian 16 at Fri Dec 11 21:29:59 2020.

 ----------------------------------------------------------------------
 # B3LYP/6-311++G(d,p) empiricaldispersion=gd3bj scf=xqc pop=npa geom=c
 heck
 ----------------------------------------------------------------------

 -------------------------------------
 CID_113315183_JID_8523_Energie_kation
 -------------------------------------
 Structure from the checkpoint file:  "JID_8523.chk"
 Charge =  1 Multiplicity = 2

 SCF Done:  E(UB3LYP) =  -806.702104399     A.U. after   26 cycles
 Normal termination of Gaussian 16 at Fri Dec 11 21:48:05 2020.
 Gaussian 16:  ES64L-G16RevA.03 25-Dec-2016

 ----------------------------------------------------------------------
 # B3LYP/6-311++G(d,p) empiricaldispersion=gd3bj scf=xqc pop=npa geom=c
 heck
 ----------------------------------------------------------------------

 ------------------------------------
 CID_113315183_JID_8523_Energie_anion
 ------------------------------------
 Structure from the checkpoint file:  "JID_8523.chk"
 Charge = -1 Multiplicity = 2

                         Standard orientation:
 ---------------------------------------------------------------------
 Center     Atomic      Atomic             Coordinates (Angstroms)
 Number     Number       Type             X           Y           Z
 ---------------------------------------------------------------------
      1          6           0        1.680075    2.623466   -0.666927
      2          6           0        2.070920    1.455417   -1.574469
      3          6           0        3.467288    0.892675   -1.268569
      4          7           0        3.637404    0.431545    0.109401
      5          6           0        3.098384   -0.674435    0.708169
      6          8           0        3.065283   -0.775756    1.932659
      7          6           0        2.546255   -1.789883   -0.173801
      8          6           0        1.109908   -2.125510    0.243607
      9          7           0        0.272096   -0.935154    0.105511
     10          6           0       -1.154122   -1.137862    0.392872
     11          6           0       -1.841973   -1.892941   -0.763964
     12          6           0       -3.375292   -1.805732   -0.699138
     13          6           0       -3.874094   -0.354858   -0.858878
     14          6           0       -3.015749    0.511613   -0.007330
     15          6           0       -1.821063    0.199719    0.567902
     16          6           0       -1.409536    1.373367    1.295178
     17          6           0       -2.384061    2.301815    1.095077
     18          8           0       -3.378500    1.792879    0.301976
     19          1           0        1.681879    2.319917    0.386284
     20          1           0        0.670348    2.977375   -0.896818
     21          1           0        2.371443    3.469422   -0.773683
     22          1           0        1.330495    0.654334   -1.466380
     23          1           0        2.058046    1.775751   -2.625145
     24          1           0        3.706546    0.072847   -1.952688
     25          1           0        4.229371    1.663336   -1.432607
     26          1           0        3.915870    1.127264    0.791577
     27          1           0        2.569536   -1.539058   -1.235876
     28          1           0        3.184513   -2.667346   -0.017110
     29          1           0        0.723548   -2.908494   -0.416211
     30          1           0        1.115157   -2.524429    1.271068
     31          1           0        0.624164   -0.239986    0.761612
     32          1           0       -1.284664   -1.731254    1.320163
     33          1           0       -1.534114   -2.944343   -0.759428
     34          1           0       -1.481295   -1.451938   -1.702062
     35          1           0       -3.819617   -2.437884   -1.475627
     36          1           0       -3.720248   -2.197659    0.266775
     37          1           0       -3.812408   -0.046449   -1.913062
     38          1           0       -4.928645   -0.269103   -0.569094
     39          1           0       -0.515709    1.507034    1.889584
     40          1           0       -2.526623    3.317840    1.428899
 ---------------------------------------------------------------------

 SCF Done:  E(UB3LYP) =  -806.973068434     A.U. after   33 cycles
 SCF Done:  E(UB3LYP) =  -806.973068434     a.u. after    1 cycles

 The electronic state is 2-A.
 Alpha  occ. eigenvalues --  -19.10288 -18.99731 -14.24532 -14.21096 -10.18283
 Alpha  occ. eigenvalues --  -10.13743 -10.13467 -10.11991 -10.11473 -10.10696
 Alpha  occ. eigenvalues --  -10.09415 -10.08962 -10.08853 -10.08506 -10.08479
 Alpha  occ. eigenvalues --  -10.07697 -10.06955 -10.06592  -1.02539  -0.94819
 Alpha  occ. eigenvalues --   -0.83169  -0.82820  -0.74739  -0.71132  -0.68663
 Alpha  occ. eigenvalues --   -0.67914  -0.65593  -0.62850  -0.60133  -0.56513
 Alpha  occ. eigenvalues --   -0.54019  -0.51994  -0.51148  -0.49534  -0.46672
 Alpha  occ. eigenvalues --   -0.44619  -0.43953  -0.41349  -0.40693  -0.39400
 Alpha  occ. eigenvalues --   -0.38006  -0.37685  -0.37138  -0.36419  -0.35708
 Alpha  occ. eigenvalues --   -0.35170  -0.34607  -0.32666  -0.32078  -0.31870
 Alpha  occ. eigenvalues --   -0.30707  -0.30179  -0.29662  -0.29497  -0.28345
 Alpha  occ. eigenvalues --   -0.27947  -0.27274  -0.25812  -0.25372  -0.25148
 Alpha  occ. eigenvalues --   -0.24634  -0.24146  -0.23941  -0.19219  -0.17188
 Alpha  occ. eigenvalues --   -0.16413  -0.14786  -0.13502   0.04075
 Alpha virt. eigenvalues --    0.05448   0.06347   0.06978   0.07352   0.07966
 Alpha virt. eigenvalues --    0.08124   0.08385   0.08876   0.08949   0.09838
 Alpha virt. eigenvalues --    0.10020   0.10513   0.10589   0.11101   0.11675

  Beta  occ. eigenvalues --  -19.10285 -18.99729 -14.24521 -14.21091 -10.18283
  Beta  occ. eigenvalues --  -10.13739 -10.13465 -10.11989 -10.11440 -10.10687
  Beta  occ. eigenvalues --  -10.09399 -10.08961 -10.08836 -10.08482 -10.08476
  Beta  occ. eigenvalues --  -10.07681 -10.06942 -10.06570  -1.02535  -0.94815
  Beta  occ. eigenvalues --   -0.83147  -0.82807  -0.74721  -0.71118  -0.68631
  Beta  occ. eigenvalues --   -0.67890  -0.65569  -0.62824  -0.60079  -0.56483
  Beta  occ. eigenvalues --   -0.53989  -0.51961  -0.51108  -0.49505  -0.46631
  Beta  occ. eigenvalues --   -0.44592  -0.43934  -0.41329  -0.40640  -0.39377
  Beta  occ. eigenvalues --   -0.37987  -0.37663  -0.37111  -0.36399  -0.35682
  Beta  occ. eigenvalues --   -0.35147  -0.34589  -0.32647  -0.32061  -0.31851
  Beta  occ. eigenvalues --   -0.30663  -0.30150  -0.29640  -0.29478  -0.28318
  Beta  occ. eigenvalues --   -0.27922  -0.27247  -0.25781  -0.25339  -0.25116
  Beta  occ. eigenvalues --   -0.24601  -0.24121  -0.23914  -0.19211  -0.17178
  Beta  occ. eigenvalues --   -0.16395  -0.14767  -0.13488
  Beta virt. eigenvalues --    0.06110   0.06521   0.06820   0.07416   0.07775
  Beta virt. eigenvalues --    0.08219   0.08426   0.08712   0.09125   0.09243
  Beta virt. eigenvalues --    0.10166   0.10486   0.10603   0.10857   0.11395

 Mulliken charges and spin densities:
               1          2
     1  C    0.089021  -0.680782
     2  C   -0.692981   0.580672
     3  C    1.198228  -1.636620
     4  N   -0.085155   0.044658
     5  C   -0.977758   0.515265
     6  O   -0.284307   0.007128
     7  C    1.098805  -1.168332
     8  C   -0.451721   0.128615
     9  N    0.365812  -0.016535
    10  C   -0.480362  -0.884808
    11  C   -0.204537   0.284896
    12  C    0.012319  -0.450027
    13  C    0.709532  -1.435049
    14  C   -0.735163   0.250961
    15  C    0.540301   0.633683
    16  C    0.080296  -0.097432
    17  C   -0.249605   0.130779
    18  O   -0.049305   0.023541
    19  H    0.114169   0.017882
    20  H   -0.039462   0.191999
    21  H   -0.156136   0.299878
    22  H    0.608277  -0.390288
    23  H   -0.429008   0.600536
    24  H   -0.270633   0.433376
    25  H   -0.507797   0.692201
    26  H    0.039682   0.251599
    27  H   -0.000561   0.152275
    28  H   -0.075329   0.289088
    29  H   -0.048394   0.200930
    30  H    0.146921   0.025538
    31  H    0.483741  -0.274199
    32  H    0.041806   0.119648
    33  H   -0.222914   0.385119
    34  H   -0.089051   0.254085
    35  H   -0.610435   0.807281
    36  H    0.119139   0.015392
    37  H   -0.033021   0.214595
    38  H   -0.024941   0.200315
    39  H    0.060397   0.096693
    40  H    0.010132   0.185441
 Sum of Mulliken charges =  -1.00000   1.00000

 Dipole moment (field-independent basis, Debye):
    X=             -3.0188    Y=              0.6976    Z=              4.0890  Tot=              5.1302
 Quadrupole moment (field-independent basis, Debye-Ang):
   XX=           -200.0177   YY=           -162.4520   ZZ=           -157.9725
   XY=            -16.0593   XZ=             -2.8886   YZ=              2.1646

 Summary of Natural Population Analysis:

                                       Natural Population
                Natural  -----------------------------------------------
    Atom  No    Charge         Core      Valence    Rydberg      Total
 -----------------------------------------------------------------------
      C    1   -0.28775      0.99966     2.28210    0.00598     3.28775
      C    2   -0.20667      0.99963     2.19908    0.00796     3.20667
      C    3   -0.08760      0.99961     2.07625    0.01174     3.08760
      N    4   -0.31670      0.99967     2.80594    0.01109     3.81670
      C    5    0.34045      0.99966     1.63613    0.02376     2.65955
      O    6   -0.33296      0.99988     3.32756    0.00553     4.33296
      C    7   -0.23427      0.99958     2.22633    0.00836     3.23427
      C    8   -0.08196      0.99963     2.07179    0.01055     3.08196
      N    9   -0.34107      0.99972     2.83121    0.01014     3.84107
      C   10   -0.00782      0.99955     1.99703    0.01123     3.00782
      C   11   -0.19142      0.99962     2.18213    0.00967     3.19142
      C   12   -0.18469      0.99963     2.17639    0.00867     3.18469
      C   13   -0.20891      0.99959     2.20036    0.00896     3.20891
      C   14    0.15943      0.99935     1.82688    0.01434     2.84057
      C   15   -0.06309      0.99943     2.05438    0.00927     3.06309
      C   16   -0.14487      0.99952     2.13768    0.00767     3.14487
      C   17    0.05699      0.99951     1.92999    0.01350     2.94301
      O   18   -0.23550      0.99986     3.22833    0.00731     4.23550
      H   19    0.09286      0.00000     0.40580    0.00134     0.40714
      H   20    0.10323      0.00000     0.39578    0.00099     0.39677
      H   21    0.09584      0.00000     0.40297    0.00119     0.40416
      H   22    0.10994      0.00000     0.38755    0.00252     0.39006
      H   23    0.09705      0.00000     0.40152    0.00143     0.40295
      H   24    0.09839      0.00000     0.40002    0.00159     0.40161
      H   25    0.10008      0.00000     0.39752    0.00240     0.39992
      H   26    0.19342      0.00000     0.30438    0.00220     0.30658
      H   27    0.10534      0.00000     0.39301    0.00165     0.39466
      H   28    0.11270      0.00000     0.38641    0.00089     0.38730
      H   29    0.09588      0.00000     0.40280    0.00132     0.40412
      H   30    0.08764      0.00000     0.41103    0.00133     0.41236
      H   31    0.17399      0.00000     0.32236    0.00365     0.32601
      H   32    0.08323      0.00000     0.41486    0.00192     0.41677
      H   33    0.10163      0.00000     0.39689    0.00149     0.39837
      H   34    0.10200      0.00000     0.39615    0.00185     0.39800
      H   35    0.10422      0.00000     0.39383    0.00195     0.39578
      H   36    0.09452      0.00000     0.40426    0.00122     0.40548
      H   37    0.10583      0.00000     0.39287    0.00130     0.39417
      H   38    0.10661      0.00000     0.39221    0.00118     0.39339
      H   39    0.10988      0.00000     0.38909    0.00103     0.39012
      H   40    0.09414      0.00000     0.40493    0.00094     0.40586
 =======================================================================
   * Total *   -0.00000     17.99310    49.78582    0.22108    68.00000

 Normal termination of Gaussian 16 at Fri Dec 11 22:10:37 2020.
