 Gaussian 16, Revision A.03,

 -----------------------------------------------------------
 # opt freq B3LYP/6-31G(d) empiricaldispersion=gd3bj scf=xqc
 -----------------------------------------------------------

 ------------------------------
 CID_68640061_JID_4550_neutraal
 ------------------------------
 Symbolic Z-matrix:
 Charge =  0 Multiplicity = 1

 SCF Done:  E(RB3LYP) =  -592.442920327     A.U. after   16 cycles
 SCF Done:  E(RB3LYP) =  -592.468229861     A.U. after   13 cycles
 SCF Done:  E(RB3LYP) =  -592.470338870     A.U. after   13 cycles
 SCF Done:  E(RB3LYP) =  -592.470882662     A.U. after   12 cycles
 SCF Done:  E(RB3LYP) =  -592.470954701     A.U. after   12 cycles
 SCF Done:  E(RB3LYP) =  -592.470987494     A.U. after   10 cycles
 SCF Done:  E(RB3LYP) =  -592.470995717     A.U. after   10 cycles
 SCF Done:  E(RB3LYP) =  -592.470998627     A.U. after    9 cycles
 SCF Done:  E(RB3LYP) =  -592.471000350     A.U. after    9 cycles
 SCF Done:  E(RB3LYP) =  -592.471004135     A.U. after   10 cycles
 SCF Done:  E(RB3LYP) =  -592.471007009     A.U. after   10 cycles
 SCF Done:  E(RB3LYP) =  -592.471008470     A.U. after   10 cycles
 SCF Done:  E(RB3LYP) =  -592.471008617     A.U. after    7 cycles
 SCF Done:  E(RB3LYP) =  -592.471008648     A.U. after    7 cycles
 Optimization completed.
    -- Stationary point found.
 Normal termination of Gaussian 16 at Thu Dec 10 10:03:59 2020.

 --------------------------------------------------------------------
 #N Geom=AllCheck Guess=TCheck SCRF=Check GenChk RB3LYP/6-31G(d) Freq
 --------------------------------------------------------------------

 Structure from the checkpoint file:  "JID_4550.chk"
 ------------------------------
 CID_68640061_JID_4550_neutraal
 ------------------------------
 Charge =  0 Multiplicity = 1

 SCF Done:  E(RB3LYP) =  -592.471008648     A.U. after    1 cycles

  Exact polarizability: 141.955  -9.119 125.418  11.580   9.728  99.989
 Approx polarizability: 182.697 -17.612 200.651  20.552  29.086 159.571

                      1                      2                      3
                      A                      A                      A
 Frequencies --     23.7968                60.2616                67.1449
 Red. masses --      3.7942                 3.7541                 3.3617
 Frc consts  --      0.0013                 0.0080                 0.0089
 IR Inten    --      0.3792                 0.0624                 0.5459

                      4                      5                      6
                      A                      A                      A
 Frequencies --     98.4580               129.6146               177.2704
 Red. masses --      5.3589                 7.8096                 3.3567
 Frc consts  --      0.0306                 0.0773                 0.0621
 IR Inten    --      2.1366                 4.8369                 2.9216

                      7                      8                      9
                      A                      A                      A
 Frequencies --    219.9600               263.3831               307.8753
 Red. masses --      2.8012                 2.6480                 2.5440
 Frc consts  --      0.0799                 0.1082                 0.1421
 IR Inten    --      0.6725                 1.1823                 2.5185

                     10                     11                     12
                      A                      A                      A
 Frequencies --    323.6687               336.1149               395.5300
 Red. masses --      4.6615                 4.6673                 2.0527
 Frc consts  --      0.2877                 0.3107                 0.1892
 IR Inten    --      1.0985                 1.8126                 3.0010

                     13                     14                     15
                      A                      A                      A
 Frequencies --    449.4182               465.9886               482.8403
 Red. masses --      3.9983                 3.1755                 7.8020
 Frc consts  --      0.4758                 0.4063                 1.0717
 IR Inten    --      0.8691                 0.5567                 1.4577

                     16                     17                     18
                      A                      A                      A
 Frequencies --    521.5392               615.8566               623.8969
 Red. masses --      1.8432                 4.5175                 3.5104
 Frc consts  --      0.2954                 1.0095                 0.8051
 IR Inten    --      0.6399                 6.3863                 0.7368

                     19                     20                     21
                      A                      A                      A
 Frequencies --    679.0767               691.1027               734.0041
 Red. masses --      1.2936                 3.6325                 1.1517
 Frc consts  --      0.3515                 1.0222                 0.3656
 IR Inten    --      0.7103                 7.5331                83.0201

                     22                     23                     24
                      A                      A                      A
 Frequencies --    791.0687               812.9923               825.3011
 Red. masses --      3.5442                 2.3282                 1.6550
 Frc consts  --      1.3068                 0.9067                 0.6642
 IR Inten    --      4.4365                 1.6787                 3.0295

                     25                     26                     27
                      A                      A                      A
 Frequencies --    832.9093               869.6746               872.6722
 Red. masses --      1.5690                 2.7507                 1.2544
 Frc consts  --      0.6413                 1.2258                 0.5629
 IR Inten    --      1.1851                 0.5281                 0.0443

                     28                     29                     30
                      A                      A                      A
 Frequencies --    882.7679               894.6924               930.4100
 Red. masses --      1.4384                 5.6060                 3.3811
 Frc consts  --      0.6604                 2.6439                 1.7245
 IR Inten    --      2.4147                 1.6828                28.2293

                     31                     32                     33
                      A                      A                      A
 Frequencies --    946.7937               990.8332              1000.5017
 Red. masses --      2.9905                 1.2915                 2.1186
 Frc consts  --      1.5794                 0.7470                 1.2495
 IR Inten    --     11.8072                 1.6129                26.0048

                     34                     35                     36
                      A                      A                      A
 Frequencies --   1017.9102              1059.2137              1087.7589
 Red. masses --      2.2777                 2.0812                 1.7522
 Frc consts  --      1.3905                 1.3757                 1.2215
 IR Inten    --     17.6902                10.8765                 0.8206

                     37                     38                     39
                      A                      A                      A
 Frequencies --   1094.3141              1104.5639              1123.9655
 Red. masses --      1.8136                 1.2776                 1.4220
 Frc consts  --      1.2796                 0.9184                 1.0584
 IR Inten    --      1.0689                16.0874                56.4551

                     40                     41                     42
                      A                      A                      A
 Frequencies --   1131.3483              1149.0041              1195.9773
 Red. masses --      2.5633                 2.6564                 1.2176
 Frc consts  --      1.9331                 2.0663                 1.0262
 IR Inten    --     46.0229                22.7810                 2.6217

                     43                     44                     45
                      A                      A                      A
 Frequencies --   1198.0522              1255.1117              1284.5785
 Red. masses --      2.3149                 1.7942                 1.4744
 Frc consts  --      1.9577                 1.6653                 1.4335
 IR Inten    --     27.5598                15.5540                 1.4165

                     46                     47                     48
                      A                      A                      A
 Frequencies --   1306.4110              1318.3683              1322.3205
 Red. masses --      1.2468                 1.1569                 1.9204
 Frc consts  --      1.2538                 1.1848                 1.9784
 IR Inten    --      3.7498                 7.1136                35.3200

                     49                     50                     51
                      A                      A                      A
 Frequencies --   1334.8632              1358.3836              1375.1379
 Red. masses --      2.5673                 1.4309                 1.3001
 Frc consts  --      2.6953                 1.5556                 1.4486
 IR Inten    --    133.5832                12.3413                 1.5070

                     52                     53                     54
                      A                      A                      A
 Frequencies --   1390.3267              1403.9562              1408.6349
 Red. masses --      1.3544                 1.4087                 1.5129
 Frc consts  --      1.5426                 1.6360                 1.7688
 IR Inten    --     27.4586                 0.3936                 3.4714

                     55                     56                     57
                      A                      A                      A
 Frequencies --   1411.5667              1424.5232              1444.2774
 Red. masses --      2.7530                 1.4268                 1.5717
 Frc consts  --      3.2320                 1.7059                 1.9316
 IR Inten    --     14.6412                 4.4680                 5.7950

                     58                     59                     60
                      A                      A                      A
 Frequencies --   1448.6318              1506.5864              1514.5416
 Red. masses --      3.3447                 1.0963                 1.0860
 Frc consts  --      4.1354                 1.4662                 1.4677
 IR Inten    --      1.2571                 0.9277                 7.3326

                     61                     62                     63
                      A                      A                      A
 Frequencies --   1523.6806              1527.0636              1532.9717
 Red. masses --      1.1031                 1.0869                 2.9083
 Frc consts  --      1.5088                 1.4933                 4.0268
 IR Inten    --      8.3629                 0.3904                44.8450

                     64                     65                     66
                      A                      A                      A
 Frequencies --   1542.6532              1584.7744              2356.1893
 Red. masses --      1.1034                 4.2458                12.6764
 Frc consts  --      1.5471                 6.2827                41.4634
 IR Inten    --      5.0770                 2.0481                 0.7779

                     67                     68                     69
                      A                      A                      A
 Frequencies --   2957.2128              2964.5590              3032.7983
 Red. masses --      1.0720                 1.0722                 1.0672
 Frc consts  --      5.5236                 5.5519                 5.7835
 IR Inten    --     25.7033                46.4842                24.7047

                     70                     71                     72
                      A                      A                      A
 Frequencies --   3036.7222              3048.8199              3051.2675
 Red. masses --      1.0833                 1.0623                 1.0617
 Frc consts  --      5.8859                 5.8176                 5.8241
 IR Inten    --     18.1941                15.2806                21.1994

                     73                     74                     75
                      A                      A                      A
 Frequencies --   3072.9144              3086.4815              3094.2092
 Red. masses --      1.0886                 1.0942                 1.1041
 Frc consts  --      6.0564                 6.1416                 6.2282
 IR Inten    --     48.6332                51.2853                25.3188

                     76                     77                     78
                      A                      A                      A
 Frequencies --   3099.1016              3121.6574              3254.1601
 Red. masses --      1.1055                 1.0897                 1.0894
 Frc consts  --      6.2555                 6.2567                 6.7971
 IR Inten    --     55.8367                14.5885                 5.9002

                     79                     80                     81
                      A                      A                      A
 Frequencies --   3267.1845              3291.8825              3295.7230
 Red. masses --      1.0952                 1.0980                 1.1035
 Frc consts  --      6.8879                 7.0102                 7.0620
 IR Inten    --      5.7132                 0.1979                 1.4552

 - Thermochemistry -
 -------------------
 Temperature   298.150 Kelvin.  Pressure   1.00000 Atm.
 Atom     1 has atomic number  6 and mass  12.00000

 Molecular mass:   189.12660 amu.
 Principal axes and moments of inertia in atomic units:
                           1         2         3
     Eigenvalues --  1546.797183692.096894421.91090
           X            0.99999   0.00326   0.00304
           Y           -0.00321   0.99982  -0.01850
           Z           -0.00310   0.01849   0.99982
 This molecule is an asymmetric top.
 Rotational symmetry number  1.
 Warning -- assumption of classical behavior for rotation
           may cause significant error
 Rotational temperatures (Kelvin)      0.05600     0.02346     0.01959
 Rotational constants (GHZ):           1.16676     0.48881     0.40814
 Zero-point vibrational energy     656329.8 (Joules/Mol)
                                  156.86659 (Kcal/Mol)
 Warning -- explicit consideration of  17 degrees of freedom as
           vibrations may cause significant error
 Vibrational temperatures:     34.24    86.70    96.61   141.66   186.49
          (Kelvin)            255.05   316.47   378.95   442.96   465.69
                              483.59   569.08   646.61   670.45   694.70
                              750.38   886.08   897.65   977.04   994.34
                             1056.07  1138.17  1169.71  1187.42  1198.37
                             1251.27  1255.58  1270.11  1287.26  1338.65
                             1362.22  1425.59  1439.50  1464.55  1523.97
                             1565.04  1574.47  1589.22  1617.14  1627.76
                             1653.16  1720.74  1723.73  1805.83  1848.22
                             1879.63  1896.84  1902.52  1920.57  1954.41
                             1978.52  2000.37  2019.98  2026.71  2030.93
                             2049.57  2077.99  2084.26  2167.64  2179.09
                             2192.24  2197.10  2205.60  2219.53  2280.14
                             3390.03  4254.77  4265.34  4363.52  4369.17
                             4386.57  4390.09  4421.24  4440.76  4451.88
                             4458.92  4491.37  4682.01  4700.75  4736.28
                             4741.81

 Zero-point correction=                           0.249983 (Hartree/Particle)
 Thermal correction to Energy=                    0.262520
 Thermal correction to Enthalpy=                  0.263464
 Thermal correction to Gibbs Free Energy=         0.209835
 Sum of electronic and zero-point Energies=           -592.221026
 Sum of electronic and thermal Energies=              -592.208489
 Sum of electronic and thermal Enthalpies=            -592.207545
 Sum of electronic and thermal Free Energies=         -592.261174

                     E (Thermal)             CV                S
                      KCal/Mol        Cal/Mol-Kelvin    Cal/Mol-Kelvin
 Total                  164.734             48.455            112.872
 Electronic               0.000              0.000              0.000
 Translational            0.889              2.981             41.618
 Rotational               0.889              2.981             31.602
 Vibrational            162.956             42.493             39.652
 Vibration     1          0.593              1.985              6.289
 Vibration     2          0.597              1.973              4.449
 Vibration     3          0.598              1.970              4.235
 Vibration     4          0.604              1.950              3.485
 Vibration     5          0.612              1.924              2.952
 Vibration     6          0.628              1.870              2.357
 Vibration     7          0.647              1.811              1.959
 Vibration     8          0.670              1.740              1.639
 Vibration     9          0.698              1.659              1.374
 Vibration    10          0.708              1.628              1.292
 Vibration    11          0.717              1.603              1.231
 Vibration    12          0.762              1.480              0.979
 Vibration    13          0.808              1.362              0.798
 Vibration    14          0.823              1.326              0.749
 Vibration    15          0.839              1.288              0.702
 Vibration    16          0.877              1.202              0.606
 Vibration    17          0.975              0.998              0.423

 Optimization completed.
    -- Stationary point found.
 Normal termination of Gaussian 16 at Thu Dec 10 10:12:30 2020.

 ----------------------------------------------------------------------
 # B3LYP/6-311++G(d,p) empiricaldispersion=gd3bj scf=xqc pop=npa geom=c
 heck
 ----------------------------------------------------------------------

 --------------------------------------
 CID_68640061_JID_4550_Energie_neutraal
 --------------------------------------
 Structure from the checkpoint file:  "JID_4550.chk"
 Charge =  0 Multiplicity = 1

 SCF Done:  E(RB3LYP) =  -592.630233409     A.U. after   15 cycles
 Normal termination of Gaussian 16 at Thu Dec 10 10:15:55 2020.

 ----------------------------------------------------------------------
 # B3LYP/6-311++G(d,p) empiricaldispersion=gd3bj scf=xqc pop=npa geom=c
 heck
 ----------------------------------------------------------------------

 ------------------------------------
 CID_68640061_JID_4550_Energie_kation
 ------------------------------------
 Structure from the checkpoint file:  "JID_4550.chk"
 Charge =  1 Multiplicity = 2

 SCF Done:  E(UB3LYP) =  -592.333064618     A.U. after   24 cycles
 Normal termination of Gaussian 16 at Thu Dec 10 10:23:11 2020.
 Gaussian 16:  ES64L-G16RevA.03 25-Dec-2016

 ----------------------------------------------------------------------
 # B3LYP/6-311++G(d,p) empiricaldispersion=gd3bj scf=xqc pop=npa geom=c
 heck
 ----------------------------------------------------------------------

 -----------------------------------
 CID_68640061_JID_4550_Energie_anion
 -----------------------------------
 Structure from the checkpoint file:  "JID_4550.chk"
 Charge = -1 Multiplicity = 2

                         Standard orientation:
 ---------------------------------------------------------------------
 Center     Atomic      Atomic             Coordinates (Angstroms)
 Number     Number       Type             X           Y           Z
 ---------------------------------------------------------------------
      1          6           0       -3.360498   -0.832338    0.565408
      2          6           0       -2.054871   -1.369424    1.162438
      3          6           0       -0.927717   -0.347685    1.014283
      4          7           0       -0.762206    0.012049   -0.401350
      5          6           0       -1.975437    0.603555   -0.975605
      6          6           0       -3.136311   -0.388108   -0.884686
      7          6           0        0.427989    0.793945   -0.670134
      8          6           0        0.431353    2.099482    0.050709
      9          7           0        0.291336    3.107888    0.607717
     10          7           0        1.628190    0.042856   -0.352650
     11          6           0        1.904175   -1.194263   -0.901601
     12          6           0        3.091090   -1.637475   -0.365704
     13          6           0        3.553219   -0.636931    0.540336
     14          6           0        2.633492    0.386083    0.532646
     15          1           0       -4.150606   -1.590279    0.616987
     16          1           0       -3.703733    0.027230    1.158613
     17          1           0       -2.182330   -1.612970    2.223529
     18          1           0       -1.762063   -2.292355    0.646225
     19          1           0       -1.151364    0.548535    1.621646
     20          1           0        0.018053   -0.763767    1.370498
     21          1           0       -1.769706    0.856670   -2.022612
     22          1           0       -2.246014    1.542503   -0.457774
     23          1           0       -2.901574   -1.261214   -1.506482
     24          1           0       -4.040352    0.076145   -1.295708
     25          1           0        0.420106    1.030278   -1.742671
     26          1           0        1.210847   -1.647174   -1.593337
     27          1           0        3.575422   -2.576369   -0.597044
     28          1           0        4.458494   -0.663589    1.130953
     29          1           0        2.604677    1.325773    1.062622
 ---------------------------------------------------------------------

 SCF Done:  E(UB3LYP) =  -592.617668670     A.U. after   31 cycles

 The electronic state is 2-A.
 Alpha  occ. eigenvalues --  -14.27728 -14.23220 -14.22956 -10.19177 -10.12606
 Alpha  occ. eigenvalues --  -10.10415 -10.10113 -10.09869 -10.09690 -10.07126
 Alpha  occ. eigenvalues --  -10.07067 -10.06872 -10.06696 -10.06402  -0.91443
 Alpha  occ. eigenvalues --   -0.84998  -0.82212  -0.73097  -0.68912  -0.66207
 Alpha  occ. eigenvalues --   -0.63901  -0.62059  -0.54050  -0.53677  -0.50290
 Alpha  occ. eigenvalues --   -0.47658  -0.46248  -0.45393  -0.42949  -0.41529
 Alpha  occ. eigenvalues --   -0.36485  -0.36369  -0.34687  -0.33617  -0.33336
 Alpha  occ. eigenvalues --   -0.33010  -0.31086  -0.30603  -0.29704  -0.29311
 Alpha  occ. eigenvalues --   -0.28778  -0.28501  -0.26171  -0.25777  -0.24754
 Alpha  occ. eigenvalues --   -0.23411  -0.22513  -0.22249  -0.15862  -0.14854
 Alpha  occ. eigenvalues --   -0.12976   0.04551
 Alpha virt. eigenvalues --    0.06780   0.06966   0.08007   0.08405   0.08919
 Alpha virt. eigenvalues --    0.09380   0.09739   0.10013   0.10616   0.10885
 Alpha virt. eigenvalues --    0.11125   0.11677   0.12259   0.12488   0.13083

  Beta  occ. eigenvalues --  -14.27726 -14.23201 -14.22951 -10.19147 -10.12592
  Beta  occ. eigenvalues --  -10.10399 -10.10106 -10.09848 -10.09657 -10.07112
  Beta  occ. eigenvalues --  -10.07068 -10.06859 -10.06674 -10.06371  -0.91416
  Beta  occ. eigenvalues --   -0.84973  -0.82179  -0.73054  -0.68880  -0.66159
  Beta  occ. eigenvalues --   -0.63865  -0.62001  -0.53992  -0.53615  -0.50263
  Beta  occ. eigenvalues --   -0.47608  -0.46191  -0.45344  -0.42890  -0.41420
  Beta  occ. eigenvalues --   -0.36441  -0.36331  -0.34651  -0.33585  -0.33292
  Beta  occ. eigenvalues --   -0.32973  -0.31042  -0.30573  -0.29656  -0.29278
  Beta  occ. eigenvalues --   -0.28734  -0.28456  -0.26123  -0.25741  -0.24678
  Beta  occ. eigenvalues --   -0.23365  -0.22466  -0.22193  -0.15827  -0.14815
  Beta  occ. eigenvalues --   -0.12910
  Beta virt. eigenvalues --    0.06769   0.07364   0.08020   0.08285   0.09069
  Beta virt. eigenvalues --    0.09163   0.09768   0.09876   0.10269   0.10969
  Beta virt. eigenvalues --    0.11300   0.11690   0.11898   0.12559   0.12773

 Mulliken charges and spin densities:
               1          2
     1  C   -0.405373   0.192396
     2  C    0.392498  -0.707995
     3  C   -0.166226  -0.288418
     4  N    0.309241   0.097135
     5  C    0.407048  -0.658734
     6  C    0.840091  -1.308310
     7  C   -0.494936   0.042215
     8  C    0.223617  -0.146011
     9  N   -0.274606  -0.016323
    10  N    0.295065  -0.000434
    11  C    0.454472  -0.478988
    12  C    0.060268  -0.326137
    13  C   -0.238933  -0.090330
    14  C   -0.062328  -0.111188
    15  H   -0.615617   0.796529
    16  H    0.170476  -0.054958
    17  H   -0.087872   0.241898
    18  H    0.013558   0.134041
    19  H   -0.026755   0.160426
    20  H    0.263606  -0.093010
    21  H   -0.533708   0.707420
    22  H    0.181046  -0.027637
    23  H   -0.114584   0.274289
    24  H   -0.476999   0.651860
    25  H   -0.891176   1.185697
    26  H   -0.277308   0.449958
    27  H   -0.121454   0.266151
    28  H    0.037875   0.107265
    29  H    0.139012   0.001192
 Sum of Mulliken charges =  -1.00000   1.00000

 Dipole moment (field-independent basis, Debye):
    X=              4.7755    Y=             -0.0958    Z=              5.2311  Tot=              7.0837
 Quadrupole moment (field-independent basis, Debye-Ang):
   XX=           -148.8983   YY=           -130.0892   ZZ=           -128.1531
   XY=             -6.0320   XZ=             -4.3680   YZ=              1.4156

 Summary of Natural Population Analysis:

                                       Natural Population
                Natural  -----------------------------------------------
    Atom  No    Charge         Core      Valence    Rydberg      Total
 -----------------------------------------------------------------------
      C    1   -0.18956      0.99963     2.18146    0.00848     3.18956
      C    2   -0.19218      0.99962     2.18378    0.00877     3.19218
      C    3   -0.08801      0.99960     2.07916    0.00924     3.08801
      N    4   -0.27279      0.99970     2.75883    0.01426     3.77279
      C    5   -0.08689      0.99960     2.07465    0.01263     3.08689
      C    6   -0.19206      0.99962     2.18296    0.00948     3.19206
      C    7    0.05115      0.99948     1.93149    0.01788     2.94885
      C    8    0.15098      0.99963     1.83187    0.01752     2.84902
      N    9   -0.17171      0.99979     2.66118    0.01074     3.67171
      N   10   -0.21019      0.99964     2.69861    0.01193     3.71019
      C   11   -0.00927      0.99954     1.99683    0.01289     3.00927
      C   12   -0.14312      0.99957     2.13484    0.00871     3.14312
      C   13   -0.14818      0.99957     2.13968    0.00893     3.14818
      C   14   -0.02073      0.99955     2.00941    0.01177     3.02073
      H   15    0.10280      0.00000     0.39548    0.00171     0.39720
      H   16    0.09164      0.00000     0.40707    0.00129     0.40836
      H   17    0.09843      0.00000     0.40077    0.00080     0.40157
      H   18    0.09932      0.00000     0.39912    0.00156     0.40068
      H   19    0.08385      0.00000     0.41443    0.00172     0.41615
      H   20    0.10364      0.00000     0.39487    0.00149     0.39636
      H   21    0.10596      0.00000     0.38985    0.00419     0.39404
      H   22    0.08230      0.00000     0.41569    0.00201     0.41770
      H   23    0.10010      0.00000     0.39739    0.00252     0.39990
      H   24    0.10318      0.00000     0.39505    0.00176     0.39682
      H   25    0.12664      0.00000     0.36847    0.00488     0.37336
      H   26    0.11091      0.00000     0.38716    0.00193     0.38909
      H   27    0.10400      0.00000     0.39531    0.00070     0.39600
      H   28    0.10274      0.00000     0.39663    0.00063     0.39726
      H   29    0.10703      0.00000     0.39209    0.00089     0.39297
 =======================================================================
   * Total *    0.00000     13.99455    36.81413    0.19132    51.00000

 Normal termination of Gaussian 16 at Thu Dec 10 10:34:09 2020.
