 Gaussian 16, Revision A.03,

 -----------------------------------------------------------
 # opt freq B3LYP/6-31G(d) empiricaldispersion=gd3bj scf=xqc
 -----------------------------------------------------------

 -------------------------------
 CID_104963853_JID_8311_neutraal
 -------------------------------
 Symbolic Z-matrix:
 Charge =  0 Multiplicity = 1

 SCF Done:  E(RB3LYP) =  -845.110434091     A.U. after   14 cycles
 SCF Done:  E(RB3LYP) =  -845.111809487     A.U. after   12 cycles
 SCF Done:  E(RB3LYP) =  -845.110650567     A.U. after   12 cycles
 SCF Done:  E(RB3LYP) =  -845.114759951     A.U. after   12 cycles
 SCF Done:  E(RB3LYP) =  -845.114580276     A.U. after   13 cycles
 SCF Done:  E(RB3LYP) =  -845.116654079     A.U. after   13 cycles
 SCF Done:  E(RB3LYP) =  -845.117387452     A.U. after   11 cycles
 SCF Done:  E(RB3LYP) =  -845.117437577     A.U. after   11 cycles
 SCF Done:  E(RB3LYP) =  -845.117544288     A.U. after   11 cycles
 SCF Done:  E(RB3LYP) =  -845.117578317     A.U. after   10 cycles
 SCF Done:  E(RB3LYP) =  -845.117632204     A.U. after    9 cycles
 SCF Done:  E(RB3LYP) =  -845.117632828     A.U. after    8 cycles
 SCF Done:  E(RB3LYP) =  -845.117633709     A.U. after    9 cycles
 SCF Done:  E(RB3LYP) =  -845.117634161     A.U. after    8 cycles
 SCF Done:  E(RB3LYP) =  -845.117634490     A.U. after    8 cycles
 SCF Done:  E(RB3LYP) =  -845.117634544     A.U. after    7 cycles
 Optimization completed.
    -- Stationary point found.
 Normal termination of Gaussian 16 at Fri Dec 11 20:08:41 2020.

 --------------------------------------------------------------------
 #N Geom=AllCheck Guess=TCheck SCRF=Check GenChk RB3LYP/6-31G(d) Freq
 --------------------------------------------------------------------

 Structure from the checkpoint file:  "JID_8311.chk"
 -------------------------------
 CID_104963853_JID_8311_neutraal
 -------------------------------
 Charge =  0 Multiplicity = 1

 SCF Done:  E(RB3LYP) =  -845.117634544     A.U. after    1 cycles

  Exact polarizability: 193.084  -1.342 135.814  -1.024   0.754 134.280
 Approx polarizability: 235.929  -9.093 205.865  -5.357   2.277 209.088

                      1                      2                      3
                      A                      A                      A
 Frequencies --     20.9259                29.0777                34.3784
 Red. masses --      4.6998                10.8102                 4.8262
 Frc consts  --      0.0012                 0.0054                 0.0034
 IR Inten    --      0.8611                 1.3327                 0.2118

                      4                      5                      6
                      A                      A                      A
 Frequencies --     57.8472                65.7884                80.5578
 Red. masses --      3.8640                 3.9163                 5.6381
 Frc consts  --      0.0076                 0.0100                 0.0216
 IR Inten    --      0.8918                 1.6150                 2.1071

                      7                      8                      9
                      A                      A                      A
 Frequencies --    117.3973               151.0361               175.4995
 Red. masses --      2.9112                 4.4300                 3.2246
 Frc consts  --      0.0236                 0.0595                 0.0585
 IR Inten    --      4.8586                 0.6141                 1.3786

                     10                     11                     12
                      A                      A                      A
 Frequencies --    187.0961               199.1266               210.4712
 Red. masses --      3.2219                 1.0770                 2.6150
 Frc consts  --      0.0664                 0.0252                 0.0683
 IR Inten    --      1.1484                 0.2919                 2.8553

                     13                     14                     15
                      A                      A                      A
 Frequencies --    234.8115               244.7311               263.2239
 Red. masses --      1.6635                 1.4206                 1.3718
 Frc consts  --      0.0540                 0.0501                 0.0560
 IR Inten    --     11.9740                21.7286                 1.2309

                     16                     17                     18
                      A                      A                      A
 Frequencies --    277.0669               309.9454               314.2418
 Red. masses --      2.8715                 2.4429                 2.6287
 Frc consts  --      0.1299                 0.1383                 0.1529
 IR Inten    --      2.1054                 1.2744                 0.9498

                     19                     20                     21
                      A                      A                      A
 Frequencies --    336.1625               365.8021               379.4320
 Red. masses --      2.8095                 2.4388                 2.5188
 Frc consts  --      0.1871                 0.1923                 0.2137
 IR Inten    --      7.2841                 0.7741                 0.2489

                     22                     23                     24
                      A                      A                      A
 Frequencies --    393.4213               396.7321               421.6100
 Red. masses --      2.2828                 3.2001                 2.5626
 Frc consts  --      0.2082                 0.2968                 0.2684
 IR Inten    --      1.7444                 6.3087                 0.7038

                     25                     26                     27
                      A                      A                      A
 Frequencies --    469.0709               482.2799               518.7655
 Red. masses --      3.1071                 3.1708                 3.0088
 Frc consts  --      0.4028                 0.4345                 0.4771
 IR Inten    --      0.7772                 4.2803                 1.2179

                     28                     29                     30
                      A                      A                      A
 Frequencies --    541.5029               575.9977               600.1303
 Red. masses --      3.4601                 2.7744                 2.8776
 Frc consts  --      0.5978                 0.5423                 0.6106
 IR Inten    --      4.7198                 7.8900                27.4173

                     31                     32                     33
                      A                      A                      A
 Frequencies --    616.5411               652.3016               663.9595
 Red. masses --      1.2431                 2.4792                 1.6230
 Frc consts  --      0.2784                 0.6215                 0.4215
 IR Inten    --     76.3921                68.5490                30.9027

                     34                     35                     36
                      A                      A                      A
 Frequencies --    701.9468               766.2880               769.2864
 Red. masses --      3.5501                 4.4632                 4.1096
 Frc consts  --      1.0306                 1.5441                 1.4329
 IR Inten    --     28.5317                35.7319                25.9912

                     37                     38                     39
                      A                      A                      A
 Frequencies --    801.3187               808.1909               826.5404
 Red. masses --      1.8637                 2.0044                 2.6849
 Frc consts  --      0.7051                 0.7714                 1.0807
 IR Inten    --      2.6149                 6.9140                 7.3181

                     40                     41                     42
                      A                      A                      A
 Frequencies --    854.5119               864.6498               915.2372
 Red. masses --      1.6569                 1.4377                 2.8203
 Frc consts  --      0.7128                 0.6333                 1.3919
 IR Inten    --     38.7897                66.7536                 4.9459

                     43                     44                     45
                      A                      A                      A
 Frequencies --    919.5324               938.3897               962.5938
 Red. masses --      2.1982                 2.0439                 1.7754
 Frc consts  --      1.0951                 1.0604                 0.9692
 IR Inten    --      3.4728                 7.2137                 0.0176

                     46                     47                     48
                      A                      A                      A
 Frequencies --    964.3501               965.5751               971.1765
 Red. masses --      1.6563                 1.5401                 2.1004
 Frc consts  --      0.9075                 0.8460                 1.1672
 IR Inten    --      8.1292                 6.7253                 1.8346

                     49                     50                     51
                      A                      A                      A
 Frequencies --   1025.1774              1028.0892              1052.1752
 Red. masses --      1.7778                 1.5986                 1.4985
 Frc consts  --      1.1009                 0.9956                 0.9774
 IR Inten    --     17.1378                15.4414                14.0223

                     52                     53                     54
                      A                      A                      A
 Frequencies --   1057.8847              1087.9339              1092.8169
 Red. masses --      1.9232                 2.4926                 2.7724
 Frc consts  --      1.2681                 1.7382                 1.9507
 IR Inten    --      8.8008                 0.8971                 5.0187

                     55                     56                     57
                      A                      A                      A
 Frequencies --   1104.4769              1121.8765              1135.2157
 Red. masses --      2.2021                 1.3244                 1.6091
 Frc consts  --      1.5827                 0.9821                 1.2218
 IR Inten    --      9.6690                 5.4721                 5.7451

                     58                     59                     60
                      A                      A                      A
 Frequencies --   1150.9089              1187.7303              1208.3768
 Red. masses --      2.2947                 1.8311                 2.1109
 Frc consts  --      1.7908                 1.5220                 1.8160
 IR Inten    --     62.0805                 3.6602               134.7390

                     61                     62                     63
                      A                      A                      A
 Frequencies --   1219.6112              1220.3701              1243.0478
 Red. masses --      1.8171                 1.4922                 2.4367
 Frc consts  --      1.5925                 1.3094                 2.2183
 IR Inten    --     16.3773                 4.5570                11.5035

                     64                     65                     66
                      A                      A                      A
 Frequencies --   1256.7191              1276.3968              1293.1792
 Red. masses --      1.5854                 1.5948                 1.5879
 Frc consts  --      1.4753                 1.5308                 1.5646
 IR Inten    --     26.7806                35.2944                26.2420

                     67                     68                     69
                      A                      A                      A
 Frequencies --   1306.3005              1324.7017              1334.1180
 Red. masses --      1.3099                 1.2934                 1.2366
 Frc consts  --      1.3170                 1.3372                 1.2968
 IR Inten    --      9.1442                39.4652                 1.6331

                     70                     71                     72
                      A                      A                      A
 Frequencies --   1346.2817              1355.6252              1376.9442
 Red. masses --      1.2893                 1.3426                 2.3040
 Frc consts  --      1.3768                 1.4537                 2.5738
 IR Inten    --      1.4265                 4.8280                75.2743

                     73                     74                     75
                      A                      A                      A
 Frequencies --   1378.0052              1386.8855              1392.0034
 Red. masses --      1.7735                 1.5408                 1.4768
 Frc consts  --      1.9841                 1.7462                 1.6860
 IR Inten    --     26.5372                37.4047                28.3520

                     76                     77                     78
                      A                      A                      A
 Frequencies --   1406.9199              1414.0325              1422.4340
 Red. masses --      1.4750                 1.4604                 1.4786
 Frc consts  --      1.7202                 1.7204                 1.7627
 IR Inten    --      1.4767                 0.9173                10.7952

                     79                     80                     81
                      A                      A                      A
 Frequencies --   1432.1710              1435.7149              1443.8266
 Red. masses --      1.2320                 1.3277                 1.3267
 Frc consts  --      1.4889                 1.6124                 1.6295
 IR Inten    --      2.4435                 2.0383                 2.2426

                     82                     83                     84
                      A                      A                      A
 Frequencies --   1462.4615              1503.7840              1508.1344
 Red. masses --      1.3075                 1.3834                 1.0535
 Frc consts  --      1.6477                 1.8431                 1.4117
 IR Inten    --     36.3234                40.4279                 2.9651

                     85                     86                     87
                      A                      A                      A
 Frequencies --   1512.9837              1517.5468              1521.3635
 Red. masses --      1.0839                 1.0505                 1.1741
 Frc consts  --      1.4618                 1.4254                 1.6011
 IR Inten    --      1.1050                 1.8474                11.9662

                     88                     89                     90
                      A                      A                      A
 Frequencies --   1526.6790              1528.4097              1532.4784
 Red. masses --      1.0863                 1.1104                 1.0565
 Frc consts  --      1.4917                 1.5283                 1.4619
 IR Inten    --      8.8843                 2.8982                 2.3515

                     91                     92                     93
                      A                      A                      A
 Frequencies --   1537.6540              1541.5719              1558.7167
 Red. masses --      1.0942                 1.0781                 1.0804
 Frc consts  --      1.5243                 1.5095                 1.5465
 IR Inten    --      1.9430                22.4682                 3.1820

                     94                     95                     96
                      A                      A                      A
 Frequencies --   1695.1659              1761.9926              1847.0909
 Red. masses --      1.0908                 7.3204                 9.4813
 Frc consts  --      1.8468                13.3903                19.0587
 IR Inten    --     49.9301               314.0168               324.4678

                     97                     98                     99
                      A                      A                      A
 Frequencies --   2960.7605              3028.0872              3039.0835
 Red. masses --      1.0755                 1.0605                 1.0652
 Frc consts  --      5.5545                 5.7295                 5.7967
 IR Inten    --     83.1881                32.1565                28.3980

                    100                    101                    102
                      A                      A                      A
 Frequencies --   3052.2686              3053.2588              3054.6864
 Red. masses --      1.0695                 1.0629                 1.0390
 Frc consts  --      5.8704                 5.8378                 5.7123
 IR Inten    --      4.4269                18.0250                17.3170

                    103                    104                    105
                      A                      A                      A
 Frequencies --   3062.1701              3064.0259              3066.4958
 Red. masses --      1.0406                 1.0937                 1.0772
 Frc consts  --      5.7490                 6.0499                 5.9683
 IR Inten    --     46.0974                38.0664                30.0520

                    106                    107                    108
                      A                      A                      A
 Frequencies --   3068.5246              3078.0111              3081.7893
 Red. masses --      1.0837                 1.0969                 1.0822
 Frc consts  --      6.0118                 6.1228                 6.0558
 IR Inten    --      4.0914                33.4949                 5.7302

                    109                    110                    111
                      A                      A                      A
 Frequencies --   3092.4992              3094.4755              3104.1239
 Red. masses --      1.0862                 1.1040                 1.0985
 Frc consts  --      6.1203                 6.2284                 6.2364
 IR Inten    --     51.8212                10.7394                74.6330

                    112                    113                    114
                      A                      A                      A
 Frequencies --   3119.7464              3133.9812              3138.6527
 Red. masses --      1.0998                 1.0984                 1.0999
 Frc consts  --      6.3067                 6.3565                 6.3838
 IR Inten    --     22.4378                29.1755                32.8478

                    115                    116                    117
                      A                      A                      A
 Frequencies --   3152.5071              3153.1889              3480.8368
 Red. masses --      1.0984                 1.0948                 1.0496
 Frc consts  --      6.4316                 6.4135                 7.4929
 IR Inten    --     16.7161                26.0880                 0.7188

                    118                    119                    120
                      A                      A                      A
 Frequencies --   3564.1670              3572.3243              3687.0804
 Red. masses --      1.0926                 1.0744                 1.0641
 Frc consts  --      8.1777                 8.0786                 8.5227
 IR Inten    --      0.4338                 9.3883                52.2883

 - Thermochemistry -
 -------------------
 Temperature   298.150 Kelvin.  Pressure   1.00000 Atm.
 Atom     1 has atomic number  6 and mass  12.00000

 Molecular mass:   256.17869 amu.
 Principal axes and moments of inertia in atomic units:
                           1         2         3
     Eigenvalues --  1810.27726********************
           X            0.99996   0.00515   0.00719
           Y           -0.00482   0.99897  -0.04521
           Z           -0.00741   0.04518   0.99895
 This molecule is an asymmetric top.
 Rotational symmetry number  1.
 Warning -- assumption of classical behavior for rotation
           may cause significant error
 Rotational temperatures (Kelvin)      0.04785     0.00826     0.00809
 Rotational constants (GHZ):           0.99694     0.17213     0.16850
 Zero-point vibrational energy     983290.0 (Joules/Mol)
                                  235.01195 (Kcal/Mol)
 Warning -- explicit consideration of  31 degrees of freedom as
           vibrations may cause significant error
 Vibrational temperatures:     30.11    41.84    49.46    83.23    94.65
          (Kelvin)            115.90   168.91   217.31   252.50   269.19
                              286.50   302.82   337.84   352.11   378.72
                              398.64   445.94   452.12   483.66   526.31
                              545.92   566.05   570.81   606.60   674.89
                              693.89   746.39   779.10   828.73   863.45
                              887.07   938.52   955.29  1009.94  1102.52
                             1106.83  1152.92  1162.81  1189.21  1229.45
                             1244.04  1316.82  1323.00  1350.13  1384.96
                             1387.48  1389.25  1397.31  1475.00  1479.19
                             1513.85  1522.06  1565.29  1572.32  1589.10
                             1614.13  1633.32  1655.90  1708.88  1738.58
                             1754.75  1755.84  1788.47  1808.14  1836.45
                             1860.60  1879.48  1905.95  1919.50  1937.00
                             1950.44  1981.12  1982.64  1995.42  2002.78
                             2024.24  2034.48  2046.57  2060.57  2065.67
                             2077.34  2104.16  2163.61  2169.87  2176.85
                             2183.41  2188.90  2196.55  2199.04  2204.89
                             2212.34  2217.98  2242.65  2438.97  2535.11
                             2657.55  4259.87  4356.74  4372.56  4391.53
                             4392.96  4395.01  4405.78  4408.45  4412.00
                             4414.92  4428.57  4434.01  4449.42  4452.26
                             4466.14  4488.62  4509.10  4515.82  4535.75
                             4536.74  5008.15  5128.04  5139.78  5304.89

 Zero-point correction=                           0.374515 (Hartree/Particle)
 Thermal correction to Energy=                    0.393872
 Thermal correction to Enthalpy=                  0.394816
 Thermal correction to Gibbs Free Energy=         0.325538
 Sum of electronic and zero-point Energies=           -844.743119
 Sum of electronic and thermal Energies=              -844.723763
 Sum of electronic and thermal Enthalpies=            -844.722819
 Sum of electronic and thermal Free Energies=         -844.792097

                     E (Thermal)             CV                S
                      KCal/Mol        Cal/Mol-Kelvin    Cal/Mol-Kelvin
 Total                  247.158             73.660            145.809
 Electronic               0.000              0.000              0.000
 Translational            0.889              2.981             42.522
 Rotational               0.889              2.981             33.674
 Vibrational            245.381             67.698             69.612
 Vibration     1          0.593              1.986              6.544
 Vibration     2          0.593              1.984              5.891
 Vibration     3          0.594              1.983              5.559
 Vibration     4          0.596              1.974              4.529
 Vibration     5          0.597              1.971              4.276
 Vibration     6          0.600              1.962              3.877
 Vibration     7          0.608              1.935              3.143
 Vibration     8          0.618              1.902              2.659
 Vibration     9          0.627              1.873              2.376
 Vibration    10          0.632              1.858              2.256
 Vibration    11          0.637              1.841              2.141
 Vibration    12          0.643              1.825              2.040
 Vibration    13          0.655              1.788              1.842
 Vibration    14          0.660              1.771              1.768
 Vibration    15          0.670              1.740              1.640
 Vibration    16          0.678              1.716              1.552
 Vibration    17          0.699              1.655              1.363
 Vibration    18          0.702              1.646              1.340
 Vibration    19          0.717              1.603              1.230
 Vibration    20          0.739              1.543              1.097
 Vibration    21          0.749              1.514              1.041
 Vibration    22          0.761              1.484              0.987
 Vibration    23          0.763              1.477              0.975
 Vibration    24          0.784              1.423              0.887
 Vibration    25          0.826              1.319              0.740
 Vibration    26          0.839              1.289              0.704
 Vibration    27          0.874              1.208              0.613
 Vibration    28          0.897              1.158              0.562
 Vibration    29          0.932              1.083              0.493
 Vibration    30          0.958              1.032              0.449
 Vibration    31          0.976              0.997              0.422

                           ! Non-Optimized Parameters !
 Normal termination of Gaussian 16 at Fri Dec 11 20:28:54 2020.

 ----------------------------------------------------------------------
 # B3LYP/6-311++G(d,p) empiricaldispersion=gd3bj scf=xqc pop=npa geom=c
 heck
 ----------------------------------------------------------------------

 ---------------------------------------
 CID_104963853_JID_8311_Energie_neutraal
 ---------------------------------------
 Structure from the checkpoint file:  "JID_8311.chk"
 Charge =  0 Multiplicity = 1

 SCF Done:  E(RB3LYP) =  -845.379309282     A.U. after   15 cycles
 Normal termination of Gaussian 16 at Fri Dec 11 20:38:56 2020.

 ----------------------------------------------------------------------
 # B3LYP/6-311++G(d,p) empiricaldispersion=gd3bj scf=xqc pop=npa geom=c
 heck
 ----------------------------------------------------------------------

 -------------------------------------
 CID_104963853_JID_8311_Energie_kation
 -------------------------------------
 Structure from the checkpoint file:  "JID_8311.chk"
 Charge =  1 Multiplicity = 2

 SCF Done:  E(UB3LYP) =  -845.069628694     A.U. after   26 cycles
 Normal termination of Gaussian 16 at Fri Dec 11 21:03:15 2020.
 Gaussian 16:  ES64L-G16RevA.03 25-Dec-2016

 ----------------------------------------------------------------------
 # B3LYP/6-311++G(d,p) empiricaldispersion=gd3bj scf=xqc pop=npa geom=c
 heck
 ----------------------------------------------------------------------

 ------------------------------------
 CID_104963853_JID_8311_Energie_anion
 ------------------------------------
 Structure from the checkpoint file:  "JID_8311.chk"
 Charge = -1 Multiplicity = 2

                         Standard orientation:
 ---------------------------------------------------------------------
 Center     Atomic      Atomic             Coordinates (Angstroms)
 Number     Number       Type             X           Y           Z
 ---------------------------------------------------------------------
      1          6           0        4.923999   -0.229904    0.034469
      2          6           0        3.460591   -0.093428    0.496813
      3          6           0        3.384586   -0.539754    1.971061
      4          6           0        3.036368    1.388665    0.376051
      5          7           0        2.812813    1.774088   -1.019523
      6          6           0        2.606771   -1.031143   -0.394552
      7          8           0        3.136295   -1.692498   -1.282166
      8          7           0        1.272481   -1.236396   -0.123636
      9          6           0        0.283342   -0.388010    0.527841
     10          6           0       -0.353989    0.661969   -0.405552
     11          6           0       -1.167149    0.023384   -1.546828
     12          6           0       -2.470112   -0.627615   -1.064658
     13          6           0       -3.338031    0.389016   -0.293607
     14          6           0       -2.546259    0.999341    0.881935
     15          6           0       -1.241862    1.639408    0.386037
     16          6           0       -4.633509   -0.232092    0.177302
     17          8           0       -5.748140    0.112984   -0.147396
     18          8           0       -4.421593   -1.262742    1.040938
     19          1           0        5.562972    0.421197    0.642065
     20          1           0        5.049373    0.030983   -1.019413
     21          1           0        5.268216   -1.260830    0.141001
     22          1           0        4.038886    0.090011    2.585354
     23          1           0        2.375193   -0.476791    2.385080
     24          1           0        3.723409   -1.575613    2.073251
     25          1           0        2.103612    1.570008    0.918890
     26          1           0        3.811015    1.986169    0.889030
     27          1           0        2.659765    2.778574   -1.082234
     28          1           0        3.640202    1.571872   -1.577003
     29          1           0        0.893796   -1.899104   -0.791167
     30          1           0       -0.478571   -1.052439    0.950357
     31          1           0        0.744302    0.115936    1.377579
     32          1           0        0.477522    1.215443   -0.855541
     33          1           0       -1.410555    0.805612   -2.278470
     34          1           0       -0.554951   -0.709838   -2.085720
     35          1           0       -2.259165   -1.481572   -0.410283
     36          1           0       -3.031666   -1.020930   -1.920378
     37          1           0       -3.631070    1.193702   -0.977670
     38          1           0       -2.336097    0.213047    1.615929
     39          1           0       -3.161635    1.749616    1.392833
     40          1           0       -0.685073    2.050877    1.238822
     41          1           0       -1.490103    2.491387   -0.261722
     42          1           0       -5.307409   -1.592147    1.282641
 ---------------------------------------------------------------------

 SCF Done:  E(UB3LYP) =  -845.371857797     A.U. after   31 cycles

 The electronic state is 2-A.
 Alpha  occ. eigenvalues --  -19.08218 -19.03039 -18.99670 -14.24391 -14.20521
 Alpha  occ. eigenvalues --  -10.21837 -10.18232 -10.11871 -10.10898 -10.10736
 Alpha  occ. eigenvalues --  -10.10303 -10.08953 -10.08577 -10.08310 -10.08259
 Alpha  occ. eigenvalues --  -10.08118 -10.07941 -10.07149  -1.02281  -0.94915
 Alpha  occ. eigenvalues --   -0.93399  -0.83156  -0.80047  -0.75914  -0.71897
 Alpha  occ. eigenvalues --   -0.69117  -0.66336  -0.61585  -0.60408  -0.58033
 Alpha  occ. eigenvalues --   -0.56097  -0.53888  -0.53024  -0.50845  -0.46906
 Alpha  occ. eigenvalues --   -0.45730  -0.41790  -0.41435  -0.40942  -0.40277
 Alpha  occ. eigenvalues --   -0.39530  -0.37672  -0.36978  -0.36497  -0.35719
 Alpha  occ. eigenvalues --   -0.35137  -0.34720  -0.34201  -0.33811  -0.32554
 Alpha  occ. eigenvalues --   -0.31973  -0.30904  -0.30110  -0.29992  -0.29730
 Alpha  occ. eigenvalues --   -0.28914  -0.28332  -0.27336  -0.27071  -0.26386
 Alpha  occ. eigenvalues --   -0.25170  -0.24333  -0.24112  -0.23895  -0.23539
 Alpha  occ. eigenvalues --   -0.21982  -0.19072  -0.17168  -0.16234  -0.15290
 Alpha  occ. eigenvalues --    0.03666
 Alpha virt. eigenvalues --    0.05113   0.06471   0.06910   0.07215   0.08080
 Alpha virt. eigenvalues --    0.08187   0.08419   0.08939   0.09250   0.09881
 Alpha virt. eigenvalues --    0.10151   0.10475   0.10911   0.11346   0.11486

  Beta  occ. eigenvalues --  -19.08172 -19.03030 -18.99668 -14.24388 -14.20485
  Beta  occ. eigenvalues --  -10.21833 -10.18229 -10.11858 -10.10898 -10.10707
  Beta  occ. eigenvalues --  -10.10293 -10.08942 -10.08563 -10.08303 -10.08244
  Beta  occ. eigenvalues --  -10.08115 -10.07919 -10.07134  -1.02222  -0.94912
  Beta  occ. eigenvalues --   -0.93351  -0.83148  -0.79991  -0.75891  -0.71870
  Beta  occ. eigenvalues --   -0.69091  -0.66309  -0.61555  -0.60376  -0.57965
  Beta  occ. eigenvalues --   -0.56045  -0.53851  -0.52980  -0.50777  -0.46874
  Beta  occ. eigenvalues --   -0.45703  -0.41753  -0.41409  -0.40909  -0.40253
  Beta  occ. eigenvalues --   -0.39480  -0.37649  -0.36948  -0.36477  -0.35694
  Beta  occ. eigenvalues --   -0.35098  -0.34696  -0.34161  -0.33777  -0.32525
  Beta  occ. eigenvalues --   -0.31949  -0.30877  -0.30089  -0.29961  -0.29708
  Beta  occ. eigenvalues --   -0.28891  -0.28311  -0.27315  -0.27047  -0.26362
  Beta  occ. eigenvalues --   -0.25144  -0.24312  -0.24092  -0.23862  -0.23517
  Beta  occ. eigenvalues --   -0.21957  -0.19036  -0.17158  -0.16218  -0.15261
  Beta virt. eigenvalues --    0.05848   0.06326   0.06869   0.07456   0.07604
  Beta virt. eigenvalues --    0.08166   0.08339   0.08734   0.09217   0.09342
  Beta virt. eigenvalues --    0.10171   0.10303   0.10637   0.10987   0.11485

 Mulliken charges and spin densities:
               1          2
     1  C   -0.290933  -0.126841
     2  C   -0.192993   0.457760
     3  C    0.173283  -0.728944
     4  C    0.314924  -0.781289
     5  N   -0.234059  -0.099523
     6  C    0.340005  -0.466788
     7  O   -0.314342   0.022920
     8  N   -0.231293   0.142057
     9  C    0.444450  -1.150271
    10  C    0.058929   0.464218
    11  C   -0.763805   0.186327
    12  C   -0.008680  -0.454657
    13  C    0.580225  -0.208442
    14  C    0.628223  -1.132292
    15  C   -1.260388   0.777174
    16  C   -0.202470  -0.253797
    17  O   -0.257761   0.007564
    18  O   -0.194318   0.058754
    19  H    0.006206   0.129323
    20  H    0.056999   0.097836
    21  H    0.108921   0.057822
    22  H    0.003420   0.144221
    23  H   -0.281762   0.412177
    24  H    0.146562   0.015090
    25  H   -0.286757   0.444104
    26  H   -0.493218   0.679516
    27  H   -0.243441   0.495000
    28  H    0.184569   0.040323
    29  H    0.283204   0.021972
    30  H    0.256285  -0.055628
    31  H    0.523938  -0.393888
    32  H    0.536989  -0.168601
    33  H   -0.110164   0.265067
    34  H    0.183297  -0.004305
    35  H    0.031867   0.155648
    36  H    0.061399   0.126851
    37  H    0.249753  -0.015374
    38  H    0.068971   0.136254
    39  H   -0.086638   0.273921
    40  H   -0.327213   0.504915
    41  H   -0.187083   0.351011
    42  H   -0.275104   0.572816
 Sum of Mulliken charges =  -1.00000   1.00000

 Dipole moment (field-independent basis, Debye):
    X=              1.6439    Y=             -2.7365    Z=             -0.9123  Tot=              3.3201
 Quadrupole moment (field-independent basis, Debye-Ang):
   XX=           -224.9049   YY=           -161.2293   ZZ=           -147.4805
   XY=            -11.0915   XZ=              9.2578   YZ=             -2.6462

 Summary of Natural Population Analysis:

                                       Natural Population
                Natural  -----------------------------------------------
    Atom  No    Charge         Core      Valence    Rydberg      Total
 -----------------------------------------------------------------------
      C    1   -0.28333      0.99964     2.27539    0.00830     3.28333
      C    2   -0.08219      0.99954     2.07137    0.01128     3.08219
      C    3   -0.28057      0.99963     2.27389    0.00705     3.28057
      C    4   -0.08646      0.99959     2.07312    0.01375     3.08646
      N    5   -0.42368      0.99977     2.91336    0.01056     3.92368
      C    6    0.35887      0.99961     1.61641    0.02512     2.64113
      O    7   -0.32681      0.99988     3.32136    0.00557     4.32681
      N    8   -0.31909      0.99966     2.81001    0.00942     3.81909
      C    9   -0.08918      0.99958     2.07849    0.01111     3.08918
      C   10   -0.12944      0.99957     2.11920    0.01066     3.12944
      C   11   -0.18759      0.99961     2.18041    0.00756     3.18759
      C   12   -0.18767      0.99961     2.18071    0.00735     3.18767
      C   13   -0.15383      0.99954     2.14335    0.01094     3.15383
      C   14   -0.18771      0.99961     2.17946    0.00863     3.18771
      C   15   -0.18799      0.99961     2.17866    0.00972     3.18799
      C   16    0.41400      0.99967     1.55995    0.02638     2.58600
      O   17   -0.30654      0.99987     3.30070    0.00597     4.30654
      O   18   -0.34852      0.99988     3.34169    0.00695     4.34852
      H   19    0.09696      0.00000     0.40221    0.00083     0.40304
      H   20    0.10416      0.00000     0.39494    0.00090     0.39584
      H   21    0.10534      0.00000     0.39386    0.00080     0.39466
      H   22    0.10175      0.00000     0.39737    0.00089     0.39825
      H   23    0.10151      0.00000     0.39761    0.00088     0.39849
      H   24    0.10156      0.00000     0.39762    0.00082     0.39844
      H   25    0.09257      0.00000     0.40509    0.00235     0.40743
      H   26    0.08511      0.00000     0.41236    0.00254     0.41489
      H   27    0.18145      0.00000     0.31584    0.00271     0.31855
      H   28    0.17604      0.00000     0.32208    0.00188     0.32396
      H   29    0.18929      0.00000     0.30800    0.00271     0.31071
      H   30    0.09680      0.00000     0.40174    0.00146     0.40320
      H   31    0.10001      0.00000     0.39843    0.00157     0.39999
      H   32    0.11913      0.00000     0.37778    0.00308     0.38087
      H   33    0.09918      0.00000     0.39979    0.00103     0.40082
      H   34    0.09963      0.00000     0.39914    0.00123     0.40037
      H   35    0.10026      0.00000     0.39811    0.00162     0.39974
      H   36    0.10133      0.00000     0.39779    0.00088     0.39867
      H   37    0.10660      0.00000     0.39174    0.00167     0.39340
      H   38    0.10104      0.00000     0.39720    0.00176     0.39896
      H   39    0.10272      0.00000     0.39628    0.00100     0.39728
      H   40    0.10326      0.00000     0.39527    0.00147     0.39674
      H   41    0.09898      0.00000     0.39980    0.00122     0.40102
      H   42    0.24305      0.00000     0.24583    0.01112     0.25695
 =======================================================================
   * Total *    0.00000     17.99385    51.76340    0.24275    70.00000

 Normal termination of Gaussian 16 at Fri Dec 11 21:33:04 2020.
