 Gaussian 16, Revision A.03,

 -----------------------------------------------------------
 # opt freq B3LYP/6-31G(d) empiricaldispersion=gd3bj scf=xqc
 -----------------------------------------------------------

 -------------------------------
 CID_130651818_JID_3136_neutraal
 -------------------------------
 Symbolic Z-matrix:
 Charge =  0 Multiplicity = 1

 SCF Done:  E(RB3LYP) =  -521.032660056     A.U. after   14 cycles
 SCF Done:  E(RB3LYP) =  -521.034596526     A.U. after   12 cycles
 SCF Done:  E(RB3LYP) =  -521.034744956     A.U. after   12 cycles
 SCF Done:  E(RB3LYP) =  -521.034662610     A.U. after   11 cycles
 SCF Done:  E(RB3LYP) =  -521.034711862     A.U. after   12 cycles
 SCF Done:  E(RB3LYP) =  -521.034851898     A.U. after   11 cycles
 SCF Done:  E(RB3LYP) =  -521.034864303     A.U. after   10 cycles
 SCF Done:  E(RB3LYP) =  -521.034865497     A.U. after    8 cycles
 SCF Done:  E(RB3LYP) =  -521.034865423     A.U. after    7 cycles
 SCF Done:  E(RB3LYP) =  -521.034865452     A.U. after    7 cycles
 Optimization completed.
    -- Stationary point found.
 Normal termination of Gaussian 16 at Wed Dec  9 22:24:48 2020.

 --------------------------------------------------------------------
 #N Geom=AllCheck Guess=TCheck SCRF=Check GenChk RB3LYP/6-31G(d) Freq
 --------------------------------------------------------------------

 Structure from the checkpoint file:  "JID_3136.chk"
 -------------------------------
 CID_130651818_JID_3136_neutraal
 -------------------------------
 Charge =  0 Multiplicity = 1

 SCF Done:  E(RB3LYP) =  -521.034865452     A.U. after    1 cycles

  Exact polarizability: 198.270  -5.458 121.299  18.251  -1.450  79.480
 Approx polarizability: 285.233 -12.199 195.048  40.340  -3.857 121.259

                      1                      2                      3
                      A                      A                      A
 Frequencies --     42.3936                59.9647                81.6176
 Red. masses --      3.4400                 4.3466                 3.2979
 Frc consts  --      0.0036                 0.0092                 0.0129
 IR Inten    --      0.1307                 0.0273                 0.0049

                      4                      5                      6
                      A                      A                      A
 Frequencies --    125.8283               141.8341               153.5335
 Red. masses --      2.5129                 3.4478                 2.5614
 Frc consts  --      0.0234                 0.0409                 0.0356
 IR Inten    --      0.0564                 0.3029                 0.8563

                      7                      8                      9
                      A                      A                      A
 Frequencies --    228.7967               242.4263               274.9251
 Red. masses --      1.4523                 2.3779                 1.9078
 Frc consts  --      0.0448                 0.0823                 0.0850
 IR Inten    --      1.9279                 0.0499                 0.8146

                     10                     11                     12
                      A                      A                      A
 Frequencies --    284.1076               331.5789               392.8626
 Red. masses --      1.7173                 2.2757                 3.3488
 Frc consts  --      0.0817                 0.1474                 0.3045
 IR Inten    --      0.2424                 4.5578                 6.9641

                     13                     14                     15
                      A                      A                      A
 Frequencies --    417.1269               422.0946               444.0484
 Red. masses --      3.0396                 5.2048                 2.1513
 Frc consts  --      0.3116                 0.5464                 0.2499
 IR Inten    --      0.0118                 3.6232                 1.2187

                     16                     17                     18
                      A                      A                      A
 Frequencies --    480.6558               524.8090               534.7204
 Red. masses --      2.2359                 4.8296                 6.7297
 Frc consts  --      0.3043                 0.7837                 1.1337
 IR Inten    --      2.0915                15.7329                 0.7337

                     19                     20                     21
                      A                      A                      A
 Frequencies --    557.3912               592.8181               624.8555
 Red. masses --      1.4358                 2.1921                 1.1959
 Frc consts  --      0.2628                 0.4539                 0.2751
 IR Inten    --     50.9319                 2.2178                43.4837

                     22                     23                     24
                      A                      A                      A
 Frequencies --    662.4713               706.7245               765.6056
 Red. masses --      6.7447                 3.9045                 4.2093
 Frc consts  --      1.7440                 1.1490                 1.4537
 IR Inten    --      0.0242                 4.1808                 8.9745

                     25                     26                     27
                      A                      A                      A
 Frequencies --    791.4536               818.5172               838.1323
 Red. masses --      2.6765                 1.1516                 3.2960
 Frc consts  --      0.9878                 0.4546                 1.3641
 IR Inten    --     11.9112                 5.4146                15.5570

                     28                     29                     30
                      A                      A                      A
 Frequencies --    855.8372               875.1931               955.1018
 Red. masses --      1.2443                 2.1758                 2.0059
 Frc consts  --      0.5370                 0.9819                 1.0781
 IR Inten    --      0.0675                23.5255                 5.7546

                     31                     32                     33
                      A                      A                      A
 Frequencies --    965.3334               972.7026               988.4436
 Red. masses --      1.3403                 1.3332                 1.8857
 Frc consts  --      0.7359                 0.7432                 1.0855
 IR Inten    --      0.0854                 0.6382                 2.7406

                     34                     35                     36
                      A                      A                      A
 Frequencies --   1043.5134              1078.1245              1099.5624
 Red. masses --      2.8870                 2.9063                 1.5514
 Frc consts  --      1.8522                 1.9903                 1.1052
 IR Inten    --      2.1718                18.7898                10.1165

                     37                     38                     39
                      A                      A                      A
 Frequencies --   1123.3050              1142.1910              1172.2183
 Red. masses --      1.8955                 1.3631                 1.4376
 Frc consts  --      1.4092                 1.0477                 1.1639
 IR Inten    --     29.9283                 1.6070                 1.9450

                     40                     41                     42
                      A                      A                      A
 Frequencies --   1193.3595              1213.0222              1226.1495
 Red. masses --      1.5465                 1.4367                 2.9300
 Frc consts  --      1.2976                 1.2456                 2.5954
 IR Inten    --      7.5068                 1.8283                 5.5029

                     43                     44                     45
                      A                      A                      A
 Frequencies --   1243.1789              1267.9071              1329.8834
 Red. masses --      2.5789                 2.1445                 3.2031
 Frc consts  --      2.3483                 2.0312                 3.3377
 IR Inten    --      0.9990                14.1608                 7.2141

                     46                     47                     48
                      A                      A                      A
 Frequencies --   1336.8978              1349.2250              1383.4825
 Red. masses --      1.5103                 1.3486                 1.5490
 Frc consts  --      1.5904                 1.4464                 1.7468
 IR Inten    --      5.2664                 4.9550                 4.5785

                     49                     50                     51
                      A                      A                      A
 Frequencies --   1387.5341              1419.9876              1442.9671
 Red. masses --      1.2726                 1.3088                 1.3457
 Frc consts  --      1.4435                 1.5549                 1.6508
 IR Inten    --     17.2204                 4.4474                28.6456

                     52                     53                     54
                      A                      A                      A
 Frequencies --   1459.0160              1484.1156              1506.5836
 Red. masses --      2.5635                 1.1727                 1.0857
 Frc consts  --      3.2152                 1.5218                 1.4519
 IR Inten    --      3.1828                 1.6098                 6.0775

                     55                     56                     57
                      A                      A                      A
 Frequencies --   1515.8999              1525.0311              1529.2354
 Red. masses --      1.0552                 1.0606                 1.0555
 Frc consts  --      1.4286                 1.4533                 1.4543
 IR Inten    --     13.7421                 5.1473                 1.0528

                     58                     59                     60
                      A                      A                      A
 Frequencies --   1543.8761              1548.5381              1556.2250
 Red. masses --      1.0657                 1.0908                 2.2412
 Frc consts  --      1.4966                 1.5411                 3.1980
 IR Inten    --      2.8186                 5.4135                17.9838

                     61                     62                     63
                      A                      A                      A
 Frequencies --   1613.3700              1669.7877              2228.3028
 Red. masses --      6.0788                 5.7256                 6.1588
 Frc consts  --      9.3226                 9.4057                18.0176
 IR Inten    --      0.0524                 0.6312                 4.0010

                     64                     65                     66
                      A                      A                      A
 Frequencies --   2953.9689              2970.8662              3054.3878
 Red. masses --      1.0718                 1.0582                 1.0520
 Frc consts  --      5.5103                 5.5026                 5.7826
 IR Inten    --     36.0778                75.3877                22.2917

                     67                     68                     69
                      A                      A                      A
 Frequencies --   3058.9914              3065.8792              3071.9482
 Red. masses --      1.0476                 1.0872                 1.0751
 Frc consts  --      5.7755                 6.0210                 5.9778
 IR Inten    --     32.4696                12.4242                61.4476

                     70                     71                     72
                      A                      A                      A
 Frequencies --   3106.1076              3113.9800              3123.2291
 Red. masses --      1.1014                 1.1034                 1.1004
 Frc consts  --      6.2606                 6.3040                 6.3242
 IR Inten    --     22.9993                38.4096                54.6069

                     73                     74                     75
                      A                      A                      A
 Frequencies --   3131.2780              3184.1675              3188.4155
 Red. masses --      1.1032                 1.0884                 1.0880
 Frc consts  --      6.3733                 6.5015                 6.5164
 IR Inten    --     30.2205                13.3202                13.1479

                     76                     77                     78
                      A                      A                      A
 Frequencies --   3212.7259              3214.3182              3496.3432
 Red. masses --      1.0932                 1.0943                 1.1567
 Frc consts  --      6.6482                 6.6612                 8.3311
 IR Inten    --     19.9875                 1.3114                87.8358

 - Thermochemistry -
 -------------------
 Temperature   298.150 Kelvin.  Pressure   1.00000 Atm.
 Atom     1 has atomic number  6 and mass  12.00000

 Molecular mass:   173.12045 amu.
 Principal axes and moments of inertia in atomic units:
                           1         2         3
     Eigenvalues --  1022.580504447.054424935.95131
           X            0.99997   0.00778  -0.00291
           Y           -0.00774   0.99987   0.01415
           Z            0.00302  -0.01413   0.99990
 This molecule is an asymmetric top.
 Rotational symmetry number  1.
 Warning -- assumption of classical behavior for rotation
           may cause significant error
 Rotational temperatures (Kelvin)      0.08470     0.01948     0.01755
 Rotational constants (GHZ):           1.76489     0.40583     0.36563
 Zero-point vibrational energy     632423.8 (Joules/Mol)
                                  151.15292 (Kcal/Mol)
 Warning -- explicit consideration of  20 degrees of freedom as
           vibrations may cause significant error
 Vibrational temperatures:     60.99    86.28   117.43   181.04   204.07
          (Kelvin)            220.90   329.19   348.80   395.56   408.77
                              477.07   565.24   600.15   607.30   638.89
                              691.56   755.08   769.34   801.96   852.93
                              899.03   953.15  1016.82  1101.54  1138.73
                             1177.66  1205.89  1231.36  1259.21  1374.18
                             1388.90  1399.50  1422.15  1501.38  1551.18
                             1582.03  1616.19  1643.36  1686.56  1716.98
                             1745.27  1764.16  1788.66  1824.24  1913.41
                             1923.50  1941.23  1990.52  1996.35  2043.05
                             2076.11  2099.20  2135.31  2167.64  2181.04
                             2194.18  2200.23  2221.29  2228.00  2239.06
                             2321.28  2402.45  3206.03  4250.10  4274.41
                             4394.58  4401.21  4411.12  4419.85  4469.00
                             4480.32  4493.63  4505.21  4581.31  4587.42
                             4622.40  4624.69  5030.46

 Zero-point correction=                           0.240878 (Hartree/Particle)
 Thermal correction to Energy=                    0.253887
 Thermal correction to Enthalpy=                  0.254831
 Thermal correction to Gibbs Free Energy=         0.201331
 Sum of electronic and zero-point Energies=           -520.793988
 Sum of electronic and thermal Energies=              -520.780979
 Sum of electronic and thermal Enthalpies=            -520.780034
 Sum of electronic and thermal Free Energies=         -520.833534

                     E (Thermal)             CV                S
                      KCal/Mol        Cal/Mol-Kelvin    Cal/Mol-Kelvin
 Total                  159.316             49.908            112.600
 Electronic               0.000              0.000              0.000
 Translational            0.889              2.981             41.354
 Rotational               0.889              2.981             31.485
 Vibrational            157.539             43.947             39.761
 Vibration     1          0.595              1.980              5.144
 Vibration     2          0.597              1.973              4.458
 Vibration     3          0.600              1.962              3.852
 Vibration     4          0.611              1.927              3.009
 Vibration     5          0.615              1.911              2.779
 Vibration     6          0.619              1.899              2.628
 Vibration     7          0.651              1.797              1.888
 Vibration     8          0.659              1.775              1.785
 Vibration     9          0.677              1.720              1.565
 Vibration    10          0.683              1.703              1.509
 Vibration    11          0.714              1.612              1.252
 Vibration    12          0.760              1.485              0.989
 Vibration    13          0.780              1.433              0.902
 Vibration    14          0.784              1.422              0.885
 Vibration    15          0.804              1.374              0.814
 Vibration    16          0.837              1.293              0.708
 Vibration    17          0.880              1.195              0.599
 Vibration    18          0.890              1.173              0.577
 Vibration    19          0.913              1.124              0.529
 Vibration    20          0.950              1.047              0.462

                           ! Non-Optimized Parameters !
 Normal termination of Gaussian 16 at Wed Dec  9 22:31:49 2020.

 ----------------------------------------------------------------------
 # B3LYP/6-311++G(d,p) empiricaldispersion=gd3bj scf=xqc pop=npa geom=c
 heck
 ----------------------------------------------------------------------

 ---------------------------------------
 CID_130651818_JID_3136_Energie_neutraal
 ---------------------------------------
 Structure from the checkpoint file:  "JID_3136.chk"
 Charge =  0 Multiplicity = 1

 SCF Done:  E(RB3LYP) =  -521.175439377     A.U. after   14 cycles
 Normal termination of Gaussian 16 at Wed Dec  9 22:34:47 2020.

 ----------------------------------------------------------------------
 # B3LYP/6-311++G(d,p) empiricaldispersion=gd3bj scf=xqc pop=npa geom=c
 heck
 ----------------------------------------------------------------------

 -------------------------------------
 CID_130651818_JID_3136_Energie_kation
 -------------------------------------
 Structure from the checkpoint file:  "JID_3136.chk"
 Charge =  1 Multiplicity = 2

 SCF Done:  E(UB3LYP) =  -520.890368882     A.U. after   24 cycles
 Normal termination of Gaussian 16 at Wed Dec  9 22:42:37 2020.
 Gaussian 16:  ES64L-G16RevA.03 25-Dec-2016

 ----------------------------------------------------------------------
 # B3LYP/6-311++G(d,p) empiricaldispersion=gd3bj scf=xqc pop=npa geom=c
 heck
 ----------------------------------------------------------------------

 ------------------------------------
 CID_130651818_JID_3136_Energie_anion
 ------------------------------------
 Structure from the checkpoint file:  "JID_3136.chk"
 Charge = -1 Multiplicity = 2

                         Standard orientation:
 ---------------------------------------------------------------------
 Center     Atomic      Atomic             Coordinates (Angstroms)
 Number     Number       Type             X           Y           Z
 ---------------------------------------------------------------------
      1          6           0       -3.299879   -1.842350    0.113834
      2          6           0       -2.688276   -0.667128    0.874635
      3          7           0       -2.596119    0.553649    0.072979
      4          6           0       -2.334574    1.721074    0.902524
      5          6           0       -1.692082    0.466676   -1.084121
      6          6           0       -0.223119    0.268992   -0.754096
      7          6           0        0.317318   -1.015300   -0.603588
      8          6           0        1.645874   -1.201060   -0.236885
      9          6           0        2.481135   -0.092892   -0.009866
     10          6           0        1.947915    1.198848   -0.167649
     11          6           0        0.617479    1.368454   -0.534305
     12          6           0        3.846274   -0.275534    0.365912
     13          6           0        5.002891   -0.429964    0.685370
     14          1           0       -4.256388   -1.549929   -0.331433
     15          1           0       -3.473976   -2.680688    0.796986
     16          1           0       -2.650725   -2.206889   -0.689070
     17          1           0       -3.336815   -0.430470    1.726566
     18          1           0       -1.711611   -0.961053    1.302300
     19          1           0       -1.375981    1.681288    1.450294
     20          1           0       -2.327711    2.620239    0.275918
     21          1           0       -3.139952    1.826755    1.637554
     22          1           0       -2.039417   -0.349636   -1.724624
     23          1           0       -1.816015    1.394417   -1.655264
     24          1           0       -0.309898   -1.883742   -0.785919
     25          1           0        2.052116   -2.201416   -0.126907
     26          1           0        2.588597    2.059502   -0.004422
     27          1           0        0.222987    2.373472   -0.660634
     28          1           0        6.021876   -0.566295    0.967202
 ---------------------------------------------------------------------

 SCF Done:  E(UB3LYP) =  -521.166680009     A.U. after   33 cycles
 SCF Done:  E(UB3LYP) =  -521.166680009     a.u. after    1 cycles

 The electronic state is 2-A.
 Alpha  occ. eigenvalues --  -14.18977 -10.08166 -10.07596 -10.07290 -10.05326
 Alpha  occ. eigenvalues --  -10.04962 -10.04362 -10.04279 -10.04242 -10.04138
 Alpha  occ. eigenvalues --  -10.04106 -10.03278 -10.02943  -0.80871  -0.72921
 Alpha  occ. eigenvalues --   -0.65989  -0.64293  -0.61725  -0.61203  -0.57568
 Alpha  occ. eigenvalues --   -0.54058  -0.49162  -0.47974  -0.44904  -0.41903
 Alpha  occ. eigenvalues --   -0.38238  -0.37161  -0.36801  -0.34773  -0.33079
 Alpha  occ. eigenvalues --   -0.32269  -0.30970  -0.29573  -0.29247  -0.28159
 Alpha  occ. eigenvalues --   -0.25981  -0.25607  -0.24657  -0.24130  -0.23851
 Alpha  occ. eigenvalues --   -0.22973  -0.21328  -0.18054  -0.15144  -0.13030
 Alpha  occ. eigenvalues --   -0.10917  -0.09940   0.05182
 Alpha virt. eigenvalues --    0.07036   0.07986   0.08477   0.08891   0.09725
 Alpha virt. eigenvalues --    0.10257   0.10872   0.11185   0.11487   0.12032
 Alpha virt. eigenvalues --    0.12962   0.13182   0.13771   0.14632   0.14678

  Beta  occ. eigenvalues --  -14.18943 -10.08159 -10.07586 -10.07304 -10.05298
  Beta  occ. eigenvalues --  -10.04734 -10.04359 -10.04209 -10.04173 -10.04146
  Beta  occ. eigenvalues --  -10.04111 -10.02963 -10.02775  -0.80795  -0.72594
  Beta  occ. eigenvalues --   -0.65611  -0.64211  -0.61505  -0.60990  -0.57386
  Beta  occ. eigenvalues --   -0.53968  -0.48748  -0.47891  -0.44719  -0.41685
  Beta  occ. eigenvalues --   -0.38084  -0.37112  -0.36708  -0.34582  -0.32959
  Beta  occ. eigenvalues --   -0.32157  -0.30901  -0.29471  -0.29192  -0.28090
  Beta  occ. eigenvalues --   -0.25766  -0.25539  -0.24220  -0.23927  -0.23674
  Beta  occ. eigenvalues --   -0.22814  -0.21231  -0.17147  -0.15041  -0.12411
  Beta  occ. eigenvalues --   -0.10207  -0.09232
  Beta virt. eigenvalues --    0.07281   0.08227   0.08426   0.08937   0.09693
  Beta virt. eigenvalues --    0.10083   0.10359   0.10985   0.11290   0.11621
  Beta virt. eigenvalues --    0.12158   0.13019   0.13160   0.13813   0.14652

 Mulliken charges and spin densities:
               1          2
     1  C    0.638920  -1.072607
     2  C   -0.654421   0.281631
     3  N    0.193186   0.050500
     4  C   -0.161088  -0.216154
     5  C    0.173141  -0.936308
     6  C    0.250168   0.745603
     7  C   -0.395983   0.000953
     8  C   -0.448454   0.000831
     9  C    0.213141  -0.018738
    10  C   -0.596129   0.074166
    11  C   -0.314290  -0.035993
    12  C    1.789902  -0.319371
    13  C   -1.465116   0.322360
    14  H   -0.153097   0.297148
    15  H   -0.076039   0.194015
    16  H   -0.194810   0.334428
    17  H   -0.110837   0.227085
    18  H    0.198993  -0.065663
    19  H    0.152167  -0.010977
    20  H   -0.028704   0.169325
    21  H   -0.013043   0.120738
    22  H   -0.023457   0.180069
    23  H   -0.201334   0.373465
    24  H   -0.002367   0.092338
    25  H    0.061809   0.062312
    26  H    0.087449   0.033466
    27  H   -0.011182   0.113157
    28  H    0.091475   0.002218
 Sum of Mulliken charges =  -1.00000   1.00000

 Dipole moment (field-independent basis, Debye):
    X=             -0.6440    Y=              0.8609    Z=              1.8417  Tot=              2.1326
 Quadrupole moment (field-independent basis, Debye-Ang):
   XX=           -148.8340   YY=           -101.2392   ZZ=           -100.2461
   XY=             -1.5135   XZ=             -3.0274   YZ=              1.0655

 Summary of Natural Population Analysis:

                                       Natural Population
                Natural  -----------------------------------------------
    Atom  No    Charge         Core      Valence    Rydberg      Total
 -----------------------------------------------------------------------
      C    1   -0.29020      0.99966     2.28537    0.00517     3.29020
      C    2   -0.08625      0.99962     2.07511    0.01152     3.08625
      N    3   -0.27632      0.99973     2.76122    0.01537     3.77632
      C    4   -0.17701      0.99964     2.16927    0.00810     3.17701
      C    5   -0.09324      0.99957     2.08004    0.01363     3.09324
      C    6    0.02082      0.99949     1.97080    0.00889     2.97918
      C    7   -0.11104      0.99952     2.10213    0.00940     3.11104
      C    8   -0.06732      0.99954     2.05840    0.00938     3.06732
      C    9   -0.04302      0.99945     2.03513    0.00843     3.04302
      C   10   -0.06821      0.99954     2.05923    0.00944     3.06821
      C   11   -0.11129      0.99952     2.10204    0.00973     3.11129
      C   12    0.00226      0.99938     1.99085    0.00751     2.99774
      C   13   -0.11308      0.99928     2.10981    0.00399     3.11308
      H   14    0.09963      0.00000     0.39848    0.00189     0.40037
      H   15    0.09673      0.00000     0.40248    0.00080     0.40327
      H   16    0.09694      0.00000     0.40185    0.00121     0.40306
      H   17    0.08922      0.00000     0.40946    0.00132     0.41078
      H   18    0.08575      0.00000     0.41278    0.00147     0.41425
      H   19    0.08562      0.00000     0.41315    0.00123     0.41438
      H   20    0.09320      0.00000     0.40589    0.00091     0.40680
      H   21    0.08939      0.00000     0.40962    0.00099     0.41061
      H   22    0.09824      0.00000     0.40032    0.00144     0.40176
      H   23    0.09660      0.00000     0.40207    0.00133     0.40340
      H   24    0.09443      0.00000     0.40408    0.00149     0.40557
      H   25    0.09614      0.00000     0.40306    0.00080     0.40386
      H   26    0.09572      0.00000     0.40350    0.00078     0.40428
      H   27    0.09442      0.00000     0.40458    0.00100     0.40558
      H   28    0.10187      0.00000     0.39718    0.00095     0.39813
 =======================================================================
   * Total *    0.00000     12.99394    33.86789    0.13817    47.00000

 Normal termination of Gaussian 16 at Wed Dec  9 22:53:45 2020.
