 Gaussian 16, Revision A.03,

 -----------------------------------------------------------
 # opt freq B3LYP/6-31G(d) empiricaldispersion=gd3bj scf=xqc
 -----------------------------------------------------------

 --------------------------------
 CID_112285462_JID_10808_neutraal
 --------------------------------
 Symbolic Z-matrix:
 Charge =  0 Multiplicity = 1

 SCF Done:  E(RB3LYP) =  -1226.98588255     A.U. after   15 cycles
 SCF Done:  E(RB3LYP) =  -1226.99289649     A.U. after   13 cycles
 SCF Done:  E(RB3LYP) =  -1226.99088997     A.U. after   14 cycles
 SCF Done:  E(RB3LYP) =  -1226.99252736     A.U. after   13 cycles
 SCF Done:  E(RB3LYP) =  -1226.99459420     A.U. after   10 cycles
 SCF Done:  E(RB3LYP) =  -1226.99506544     A.U. after   14 cycles
 SCF Done:  E(RB3LYP) =  -1226.99378154     A.U. after   13 cycles
 SCF Done:  E(RB3LYP) =  -1226.99641442     A.U. after   12 cycles
 SCF Done:  E(RB3LYP) =  -1226.99682733     A.U. after   12 cycles
 SCF Done:  E(RB3LYP) =  -1226.99695853     A.U. after   12 cycles
 SCF Done:  E(RB3LYP) =  -1226.99950293     A.U. after    9 cycles
 SCF Done:  E(RB3LYP) =  -1226.99950744     A.U. after   10 cycles
 SCF Done:  E(RB3LYP) =  -1226.99950896     A.U. after    9 cycles
 SCF Done:  E(RB3LYP) =  -1226.99950943     A.U. after    8 cycles
 SCF Done:  E(RB3LYP) =  -1226.99950964     A.U. after    8 cycles
 Optimization completed.
    -- Stationary point found.
 Normal termination of Gaussian 16 at Mon Dec 14 18:25:04 2020.

 --------------------------------------------------------------------
 #N Geom=AllCheck Guess=TCheck SCRF=Check GenChk RB3LYP/6-31G(d) Freq
 --------------------------------------------------------------------

 Structure from the checkpoint file:  "JID_10808.chk"
 --------------------------------
 CID_112285462_JID_10808_neutraal
 --------------------------------
 Charge =  0 Multiplicity = 1

 SCF Done:  E(RB3LYP) =  -1226.99950964     A.U. after    1 cycles

  Exact polarizability: 212.353   7.086 195.017 -20.916   3.990 160.449
 Approx polarizability: 278.201   8.925 305.914 -44.918   4.481 273.296

                      1                      2                      3
                      A                      A                      A
 Frequencies --      8.8740                19.6680                29.5710
 Red. masses --      5.2713                 5.0894                 4.8998
 Frc consts  --      0.0002                 0.0012                 0.0025
 IR Inten    --      0.4027                 0.5885                 0.5153

                      4                      5                      6
                      A                      A                      A
 Frequencies --     31.0672                54.9827                72.6644
 Red. masses --      3.9625                 5.2004                 5.7105
 Frc consts  --      0.0023                 0.0093                 0.0178
 IR Inten    --      0.3255                 0.3126                 2.4946

                      7                      8                      9
                      A                      A                      A
 Frequencies --     82.3779               101.5378               115.9046
 Red. masses --      5.5630                 4.7941                 5.0518
 Frc consts  --      0.0222                 0.0291                 0.0400
 IR Inten    --      0.9651                11.6800                 3.4199

                     10                     11                     12
                      A                      A                      A
 Frequencies --    145.1175               163.5813               196.7522
 Red. masses --      4.5108                 4.0322                 2.9351
 Frc consts  --      0.0560                 0.0636                 0.0669
 IR Inten    --      4.3751                 2.7209                17.6458

                     13                     14                     15
                      A                      A                      A
 Frequencies --    217.4911               233.9063               249.7283
 Red. masses --      2.2622                 3.5317                 3.5660
 Frc consts  --      0.0630                 0.1138                 0.1310
 IR Inten    --      5.5454                 0.6070                 2.7189

                     16                     17                     18
                      A                      A                      A
 Frequencies --    266.1202               267.3513               281.4130
 Red. masses --      1.2759                 1.3227                 2.6031
 Frc consts  --      0.0532                 0.0557                 0.1215
 IR Inten    --      5.9311                96.0812                 7.4373

                     19                     20                     21
                      A                      A                      A
 Frequencies --    308.8795               331.4298               342.0169
 Red. masses --      2.1997                 2.3358                 2.8744
 Frc consts  --      0.1237                 0.1512                 0.1981
 IR Inten    --      1.2122                 7.8419                 2.3611

                     22                     23                     24
                      A                      A                      A
 Frequencies --    361.0547               406.2595               423.9410
 Red. masses --      3.4260                 2.0235                 3.6441
 Frc consts  --      0.2631                 0.1968                 0.3859
 IR Inten    --      3.7089                 3.7365                 1.3069

                     25                     26                     27
                      A                      A                      A
 Frequencies --    459.8236               479.6014               480.1236
 Red. masses --      3.7358                 2.9982                 2.1678
 Frc consts  --      0.4654                 0.4063                 0.2944
 IR Inten    --      0.6495                 2.6197                 1.2720

                     28                     29                     30
                      A                      A                      A
 Frequencies --    522.1721               545.9841               561.7498
 Red. masses --      3.3346                 3.5828                 4.6976
 Frc consts  --      0.5357                 0.6293                 0.8734
 IR Inten    --     17.9109                 6.4911                 2.3884

                     31                     32                     33
                      A                      A                      A
 Frequencies --    594.6085               604.3611               623.0800
 Red. masses --      3.0640                 3.6050                 3.7764
 Frc consts  --      0.6383                 0.7758                 0.8638
 IR Inten    --      6.7951                 1.8520                 2.7773

                     34                     35                     36
                      A                      A                      A
 Frequencies --    674.6801               696.4172               710.4078
 Red. masses --      2.6201                 2.5577                 4.1155
 Frc consts  --      0.7027                 0.7309                 1.2237
 IR Inten    --     15.0994                17.2926                 3.2103

                     37                     38                     39
                      A                      A                      A
 Frequencies --    727.4289               742.9038               768.4860
 Red. masses --      2.3832                 2.3792                 1.4857
 Frc consts  --      0.7430                 0.7737                 0.5170
 IR Inten    --     29.4523                 8.0064                21.9338

                     40                     41                     42
                      A                      A                      A
 Frequencies --    787.4049               809.0251               822.1389
 Red. masses --      1.5880                 2.5312                 3.6190
 Frc consts  --      0.5801                 0.9761                 1.4412
 IR Inten    --      3.4248                27.3759                 2.0549

                     43                     44                     45
                      A                      A                      A
 Frequencies --    841.5012               862.1294               873.0851
 Red. masses --      1.8757                 2.2658                 1.9042
 Frc consts  --      0.7826                 0.9922                 0.8552
 IR Inten    --      1.1530                20.6179                18.3791

                     46                     47                     48
                      A                      A                      A
 Frequencies --    881.9275               919.3630               927.5447
 Red. masses --      1.3744                 2.2121                 1.8818
 Frc consts  --      0.6299                 1.1016                 0.9539
 IR Inten    --     10.2293                10.1531                 9.1729

                     49                     50                     51
                      A                      A                      A
 Frequencies --    948.1874               980.6325               984.0561
 Red. masses --      1.3753                 1.2705                 3.0341
 Frc consts  --      0.7285                 0.7199                 1.7311
 IR Inten    --      1.3683                 0.2275                14.5801

                     52                     53                     54
                      A                      A                      A
 Frequencies --    992.9687              1027.7118              1036.9326
 Red. masses --      2.0833                 1.5762                 1.7356
 Frc consts  --      1.2102                 0.9809                 1.0995
 IR Inten    --     13.0887                 1.2480                30.5745

                     55                     56                     57
                      A                      A                      A
 Frequencies --   1060.1729              1071.0156              1077.2364
 Red. masses --      1.8010                 1.7945                 2.4552
 Frc consts  --      1.1927                 1.2128                 1.6787
 IR Inten    --      5.7450                 7.3854                28.6649

                     58                     59                     60
                      A                      A                      A
 Frequencies --   1083.3312              1092.9572              1099.5534
 Red. masses --      1.4939                 2.1229                 1.3354
 Frc consts  --      1.0330                 1.4941                 0.9513
 IR Inten    --      9.0925                 8.0810                 1.1561

                     61                     62                     63
                      A                      A                      A
 Frequencies --   1104.4174              1108.9810              1137.5910
 Red. masses --      3.0018                 1.5042                 1.3354
 Frc consts  --      2.1573                 1.0899                 1.0182
 IR Inten    --     17.5712                 9.7353                 5.4627

                     64                     65                     66
                      A                      A                      A
 Frequencies --   1148.6078              1167.2572              1178.9623
 Red. masses --      2.2180                 1.4837                 1.0943
 Frc consts  --      1.7241                 1.1911                 0.8961
 IR Inten    --     14.5900                 1.4945                45.9731

                     67                     68                     69
                      A                      A                      A
 Frequencies --   1192.3009              1200.6310              1213.1973
 Red. masses --      1.8008                 1.3147                 1.1809
 Frc consts  --      1.5083                 1.1166                 1.0241
 IR Inten    --      3.5380                 0.7615                 2.5859

                     70                     71                     72
                      A                      A                      A
 Frequencies --   1226.0362              1235.7734              1264.3446
 Red. masses --      1.1866                 2.3765                 1.6356
 Frc consts  --      1.0509                 2.1383                 1.5405
 IR Inten    --     17.2267                 0.2410                18.8488

                     73                     74                     75
                      A                      A                      A
 Frequencies --   1270.4391              1296.1439              1316.9236
 Red. masses --      1.5401                 1.2410                 1.7300
 Frc consts  --      1.4646                 1.2283                 1.7678
 IR Inten    --     55.7668                 9.5397                78.1732

                     76                     77                     78
                      A                      A                      A
 Frequencies --   1321.4669              1328.2873              1352.1138
 Red. masses --      1.5401                 1.2430                 1.2768
 Frc consts  --      1.5846                 1.2921                 1.3753
 IR Inten    --      1.3936                 8.2440                 9.2246

                     79                     80                     81
                      A                      A                      A
 Frequencies --   1356.5813              1387.6453              1401.1369
 Red. masses --      5.2733                 1.1713                 1.2729
 Frc consts  --      5.7177                 1.3289                 1.4724
 IR Inten    --      1.5052                18.9935                 8.9992

                     82                     83                     84
                      A                      A                      A
 Frequencies --   1405.4846              1426.6729              1441.9881
 Red. masses --      1.4252                 1.5460                 1.2487
 Frc consts  --      1.6587                 1.8540                 1.5297
 IR Inten    --      2.7667                 2.2525                 9.6948

                     85                     86                     87
                      A                      A                      A
 Frequencies --   1442.7978              1451.9055              1492.5888
 Red. masses --      1.3048                 2.0530                 2.0583
 Frc consts  --      1.6003                 2.5498                 2.7017
 IR Inten    --     32.3086                96.3274                 2.3478

                     88                     89                     90
                      A                      A                      A
 Frequencies --   1495.5037              1498.0712              1501.4771
 Red. masses --      1.0914                 1.0936                 1.1801
 Frc consts  --      1.4381                 1.4460                 1.5675
 IR Inten    --      8.2191                12.6838                36.0400

                     91                     92                     93
                      A                      A                      A
 Frequencies --   1502.2107              1511.6084              1522.3029
 Red. masses --      1.5881                 1.3751                 1.0724
 Frc consts  --      2.1115                 1.8513                 1.4643
 IR Inten    --    111.2552                 7.4172                 7.5890

                     94                     95                     96
                      A                      A                      A
 Frequencies --   1538.5992              1543.2084              1544.1586
 Red. masses --      1.1074                 1.8479                 1.0905
 Frc consts  --      1.5446                 2.5929                 1.5320
 IR Inten    --     12.9292                17.4054                 2.6932

                     97                     98                     99
                      A                      A                      A
 Frequencies --   1555.2274              1634.6294              1664.1623
 Red. masses --      1.2876                 5.8354                 5.4560
 Frc consts  --      1.8349                 9.1868                 8.9025
 IR Inten    --     16.7707                 1.9940                 1.8410

                    100                    101                    102
                      A                      A                      A
 Frequencies --   1771.4824              3028.8077              3029.3971
 Red. masses --      8.1974                 1.0717                 1.0703
 Frc consts  --     15.1566                 5.7927                 5.7873
 IR Inten    --    331.7955                83.8648                40.9439

                    103                    104                    105
                      A                      A                      A
 Frequencies --   3043.2046              3054.5857              3059.2087
 Red. masses --      1.0619                 1.0666                 1.0354
 Frc consts  --      5.7941                 5.8638                 5.7092
 IR Inten    --     36.2982                20.8663                26.0366

                    106                    107                    108
                      A                      A                      A
 Frequencies --   3083.7627              3095.3551              3107.7427
 Red. masses --      1.0586                 1.0991                 1.0975
 Frc consts  --      5.9315                 6.2047                 6.2449
 IR Inten    --     13.1240                27.6446                28.4634

                    109                    110                    111
                      A                      A                      A
 Frequencies --   3109.4148              3126.5388              3130.4524
 Red. masses --      1.0963                 1.1021                 1.0882
 Frc consts  --      6.2450                 6.3474                 6.2830
 IR Inten    --     33.1236                17.5561                12.5981

                    112                    113                    114
                      A                      A                      A
 Frequencies --   3132.2267              3137.3797              3140.7306
 Red. masses --      1.1022                 1.1072                 1.0871
 Frc consts  --      6.3710                 6.4212                 6.3179
 IR Inten    --      6.0222                 7.6243                 7.6840

                    115                    116                    117
                      A                      A                      A
 Frequencies --   3163.9406              3169.4076              3177.2898
 Red. masses --      1.0870                 1.0738                 1.0791
 Frc consts  --      6.4113                 6.3555                 6.4182
 IR Inten    --     14.4219                15.4709                20.2303

                    118                    119                    120
                      A                      A                      A
 Frequencies --   3181.0037              3192.4904              3208.4791
 Red. masses --      1.0870                 1.0915                 1.0974
 Frc consts  --      6.4807                 6.5544                 6.6560
 IR Inten    --      3.0160                29.8323                24.3424

                    121                    122                    123
                      A                      A                      A
 Frequencies --   3289.7351              3549.2661              3755.9165
 Red. masses --      1.1071                 1.0751                 1.0656
 Frc consts  --      7.0596                 7.9798                 8.8566
 IR Inten    --      0.3239                52.0145                 8.6494

 - Thermochemistry -
 -------------------
 Temperature   298.150 Kelvin.  Pressure   1.00000 Atm.
 Atom     1 has atomic number  6 and mass  12.00000

 Molecular mass:   293.14495 amu.
 Principal axes and moments of inertia in atomic units:
                           1         2         3
     Eigenvalues --  3541.06835********************
           X            0.99998   0.00400  -0.00500
           Y           -0.00397   0.99998   0.00428
           Z            0.00502  -0.00426   0.99998
 This molecule is an asymmetric top.
 Rotational symmetry number  1.
 Warning -- assumption of classical behavior for rotation
           may cause significant error
 Rotational temperatures (Kelvin)      0.02446     0.00825     0.00738
 Rotational constants (GHZ):           0.50966     0.17184     0.15382
 Zero-point vibrational energy     970181.3 (Joules/Mol)
                                  231.87890 (Kcal/Mol)
 Warning -- explicit consideration of  32 degrees of freedom as
           vibrations may cause significant error
 Vibrational temperatures:     12.77    28.30    42.55    44.70    79.11
          (Kelvin)            104.55   118.52   146.09   166.76   208.79
                              235.36   283.08   312.92   336.54   359.30
                              382.89   384.66   404.89   444.41   476.85
                              492.09   519.48   584.52   609.96   661.58
                              690.04   690.79   751.29   785.55   808.23
                              855.51   869.54   896.47   970.71  1001.99
                             1022.12  1046.61  1068.87  1105.68  1132.90
                             1164.01  1182.87  1210.73  1240.41  1256.17
                             1268.90  1322.76  1334.53  1364.23  1410.91
                             1415.84  1428.66  1478.65  1491.91  1525.35
                             1540.95  1549.90  1558.67  1572.52  1582.01
                             1589.01  1595.58  1636.74  1652.59  1679.42
                             1696.26  1715.46  1727.44  1745.52  1763.99
                             1778.00  1819.11  1827.88  1864.86  1894.76
                             1901.30  1911.11  1945.39  1951.82  1996.51
                             2015.92  2022.18  2052.66  2074.70  2075.86
                             2088.97  2147.50  2151.70  2155.39  2160.29
                             2161.35  2174.87  2190.25  2213.70  2220.33
                             2221.70  2237.63  2351.87  2394.36  2548.77
                             4357.78  4358.63  4378.49  4394.87  4401.52
                             4436.85  4453.53  4471.35  4473.75  4498.39
                             4504.02  4506.58  4513.99  4518.81  4552.20
                             4560.07  4571.41  4576.75  4593.28  4616.29
                             4733.20  5106.60  5403.93

 Zero-point correction=                           0.369523 (Hartree/Particle)
 Thermal correction to Energy=                    0.390371
 Thermal correction to Enthalpy=                  0.391315
 Thermal correction to Gibbs Free Energy=         0.316308
 Sum of electronic and zero-point Energies=          -1226.629987
 Sum of electronic and thermal Energies=             -1226.609139
 Sum of electronic and thermal Enthalpies=           -1226.608195
 Sum of electronic and thermal Free Energies=        -1226.683201

                     E (Thermal)             CV                S
                      KCal/Mol        Cal/Mol-Kelvin    Cal/Mol-Kelvin
 Total                  244.961             78.690            157.864
 Electronic               0.000              0.000              0.000
 Translational            0.889              2.981             42.924
 Rotational               0.889              2.981             34.433
 Vibrational            243.184             72.729             80.507
 Vibration     1          0.593              1.987              8.248
 Vibration     2          0.593              1.986              6.667
 Vibration     3          0.593              1.984              5.858
 Vibration     4          0.594              1.983              5.760
 Vibration     5          0.596              1.976              4.630
 Vibration     6          0.599              1.967              4.080
 Vibration     7          0.600              1.961              3.833
 Vibration     8          0.604              1.948              3.425
 Vibration     9          0.608              1.936              3.168
 Vibration    10          0.617              1.908              2.735
 Vibration    11          0.623              1.887              2.508
 Vibration    12          0.636              1.844              2.163
 Vibration    13          0.646              1.814              1.980
 Vibration    14          0.654              1.789              1.849
 Vibration    15          0.663              1.763              1.732
 Vibration    16          0.672              1.735              1.621
 Vibration    17          0.672              1.733              1.613
 Vibration    18          0.681              1.708              1.525
 Vibration    19          0.698              1.657              1.368
 Vibration    20          0.714              1.613              1.253
 Vibration    21          0.721              1.591              1.203
 Vibration    22          0.735              1.552              1.118
 Vibration    23          0.771              1.457              0.940
 Vibration    24          0.786              1.418              0.879
 Vibration    25          0.818              1.339              0.767
 Vibration    26          0.836              1.295              0.711
 Vibration    27          0.836              1.294              0.710
 Vibration    28          0.877              1.201              0.605
 Vibration    29          0.901              1.148              0.553
 Vibration    30          0.917              1.114              0.520
 Vibration    31          0.952              1.043              0.459
 Vibration    32          0.963              1.023              0.442

                           ! Non-Optimized Parameters !
 Normal termination of Gaussian 16 at Mon Dec 14 18:49:47 2020.

 ----------------------------------------------------------------------
 # B3LYP/6-311++G(d,p) empiricaldispersion=gd3bj scf=xqc pop=npa geom=c
 heck
 ----------------------------------------------------------------------

 ----------------------------------------
 CID_112285462_JID_10808_Energie_neutraal
 ----------------------------------------
 Structure from the checkpoint file:  "JID_10808.chk"
 Charge =  0 Multiplicity = 1

 SCF Done:  E(RB3LYP) =  -1227.26576914     A.U. after   15 cycles
 Normal termination of Gaussian 16 at Mon Dec 14 19:00:24 2020.

 ----------------------------------------------------------------------
 # B3LYP/6-311++G(d,p) empiricaldispersion=gd3bj scf=xqc pop=npa geom=c
 heck
 ----------------------------------------------------------------------

 --------------------------------------
 CID_112285462_JID_10808_Energie_kation
 --------------------------------------
 Structure from the checkpoint file:  "JID_10808.chk"
 Charge =  1 Multiplicity = 2

 SCF Done:  E(UB3LYP) =  -1226.96977282     A.U. after   29 cycles
 Normal termination of Gaussian 16 at Mon Dec 14 19:27:10 2020.
 Gaussian 16:  ES64L-G16RevA.03 25-Dec-2016

 ----------------------------------------------------------------------
 # B3LYP/6-311++G(d,p) empiricaldispersion=gd3bj scf=xqc pop=npa geom=c
 heck
 ----------------------------------------------------------------------

 -------------------------------------
 CID_112285462_JID_10808_Energie_anion
 -------------------------------------
 Structure from the checkpoint file:  "JID_10808.chk"
 Charge = -1 Multiplicity = 2

                         Standard orientation:
 ---------------------------------------------------------------------
 Center     Atomic      Atomic             Coordinates (Angstroms)
 Number     Number       Type             X           Y           Z
 ---------------------------------------------------------------------
      1          6           0        4.336659    0.322126   -1.094970
      2          6           0        3.477033   -0.573978   -0.235388
      3          6           0        3.499978   -1.953549   -0.491675
      4          6           0        2.765497   -2.866327    0.258942
      5          6           0        1.988227   -2.405696    1.320814
      6          6           0        1.949465   -1.040690    1.586008
      7          6           0        2.662830   -0.104654    0.817233
      8          6           0        2.438484    1.325674    1.212108
      9          6           0        2.804447    2.593484    0.490945
     10          6           0        1.366774    2.172685    0.492009
     11          6           0        0.824381    1.617945   -0.797664
     12          8           0        1.438929    1.678016   -1.858290
     13          7           0       -0.411147    1.029436   -0.734353
     14          6           0       -1.087596    0.556410    0.456872
     15          6           0       -1.460818   -0.924228    0.357005
     16         16           0       -2.408646   -1.401564   -1.144405
     17          6           0       -3.806709   -0.209690   -1.249848
     18          6           0       -4.994654   -0.431394   -0.305743
     19          6           0       -4.782611    0.035398    1.134978
     20          8           0       -4.620631    1.445293    1.253197
     21          1           0        4.945937    1.000432   -0.489532
     22          1           0        5.015539   -0.281455   -1.704822
     23          1           0        3.720998    0.925780   -1.768997
     24          1           0        4.123035   -2.313914   -1.306197
     25          1           0        2.812717   -3.926406    0.026747
     26          1           0        1.423905   -3.098679    1.938715
     27          1           0        1.347313   -0.677323    2.416454
     28          1           0        2.387381    1.439271    2.293611
     29          1           0        3.085829    3.439888    1.110330
     30          1           0        3.294139    2.550555   -0.471111
     31          1           0        0.657322    2.699889    1.124037
     32          1           0       -0.694412    0.592756   -1.606648
     33          1           0       -0.425366    0.677658    1.316726
     34          1           0       -1.984858    1.154460    0.670298
     35          1           0       -0.546880   -1.521552    0.283517
     36          1           0       -1.992472   -1.230289    1.261797
     37          1           0       -3.419282    0.814660   -1.187229
     38          1           0       -4.139504   -0.333757   -2.285185
     39          1           0       -5.856482    0.116803   -0.709980
     40          1           0       -5.254905   -1.496457   -0.305450
     41          1           0       -5.670394   -0.202266    1.728531
     42          1           0       -3.937287   -0.498590    1.592444
     43          1           0       -3.910618    1.719953    0.653888
 ---------------------------------------------------------------------

 SCF Done:  E(UB3LYP) =  -1227.25831157     A.U. after   33 cycles
 SCF Done:  E(UB3LYP) =  -1227.25831157     a.u. after    1 cycles

 The electronic state is 2-A.
 Alpha  occ. eigenvalues --  -88.75825 -19.03803 -18.99505 -14.24252 -10.18213
 Alpha  occ. eigenvalues --  -10.13334 -10.12771 -10.12144 -10.11781 -10.10143
 Alpha  occ. eigenvalues --  -10.09596 -10.09428 -10.09408 -10.09315 -10.08437
 Alpha  occ. eigenvalues --  -10.08436 -10.08383 -10.08270 -10.08042 -10.07461
 Alpha  occ. eigenvalues --   -7.84424  -5.80829  -5.80434  -5.79801  -0.94657
 Alpha  occ. eigenvalues --   -0.93922  -0.83643  -0.78861  -0.76114  -0.73361
 Alpha  occ. eigenvalues --   -0.69088  -0.68395  -0.66401  -0.63723  -0.60095
 Alpha  occ. eigenvalues --   -0.59078  -0.57318  -0.53728  -0.53381  -0.51190
 Alpha  occ. eigenvalues --   -0.49182  -0.48189  -0.46152  -0.43650  -0.43202
 Alpha  occ. eigenvalues --   -0.40993  -0.40406  -0.39644  -0.38617  -0.37546
 Alpha  occ. eigenvalues --   -0.37106  -0.36247  -0.36006  -0.34835  -0.33962
 Alpha  occ. eigenvalues --   -0.33212  -0.32533  -0.32218  -0.32137  -0.31271
 Alpha  occ. eigenvalues --   -0.30280  -0.30010  -0.29251  -0.28904  -0.28232
 Alpha  occ. eigenvalues --   -0.27326  -0.25904  -0.25773  -0.25078  -0.24926
 Alpha  occ. eigenvalues --   -0.22408  -0.21815  -0.21523  -0.19436  -0.17354
 Alpha  occ. eigenvalues --   -0.16506  -0.15884  -0.14915  -0.14809   0.03832
 Alpha virt. eigenvalues --    0.05462   0.06211   0.06761   0.06834   0.07135
 Alpha virt. eigenvalues --    0.07597   0.07893   0.08395   0.08841   0.08963
 Alpha virt. eigenvalues --    0.09669   0.10075   0.10341   0.10605   0.10982

  Beta  occ. eigenvalues --  -88.75823 -19.03773 -18.99501 -14.24250 -10.18213
  Beta  occ. eigenvalues --  -10.13319 -10.12744 -10.12116 -10.11773 -10.10129
  Beta  occ. eigenvalues --  -10.09598 -10.09398 -10.09374 -10.09298 -10.08428
  Beta  occ. eigenvalues --  -10.08427 -10.08360 -10.08253 -10.08004 -10.07460
  Beta  occ. eigenvalues --   -7.84422  -5.80826  -5.80431  -5.79799  -0.94649
  Beta  occ. eigenvalues --   -0.93862  -0.83631  -0.78802  -0.76066  -0.73331
  Beta  occ. eigenvalues --   -0.69052  -0.68364  -0.66322  -0.63679  -0.60070
  Beta  occ. eigenvalues --   -0.59029  -0.57280  -0.53667  -0.53335  -0.51129
  Beta  occ. eigenvalues --   -0.49131  -0.48147  -0.46118  -0.43597  -0.43145
  Beta  occ. eigenvalues --   -0.40937  -0.40364  -0.39604  -0.38576  -0.37515
  Beta  occ. eigenvalues --   -0.37059  -0.36208  -0.35964  -0.34801  -0.33934
  Beta  occ. eigenvalues --   -0.33183  -0.32504  -0.32196  -0.32113  -0.31245
  Beta  occ. eigenvalues --   -0.30227  -0.29992  -0.29219  -0.28859  -0.28202
  Beta  occ. eigenvalues --   -0.27240  -0.25872  -0.25740  -0.25050  -0.24873
  Beta  occ. eigenvalues --   -0.22378  -0.21780  -0.21459  -0.19399  -0.17327
  Beta  occ. eigenvalues --   -0.16471  -0.15802  -0.14880  -0.14677
  Beta virt. eigenvalues --    0.05913   0.06243   0.06789   0.06938   0.07199
  Beta virt. eigenvalues --    0.07365   0.07702   0.08243   0.08670   0.09185
  Beta virt. eigenvalues --    0.09211   0.09873   0.10244   0.10445   0.10682

 Mulliken charges and spin densities:
               1          2
     1  C   -0.604122  -0.065679
     2  C    0.268776   0.241365
     3  C   -0.364236   0.140356
     4  C   -0.100402  -0.303743
     5  C   -0.403986   0.138041
     6  C    0.398406  -0.660060
     7  C   -0.062590   0.909221
     8  C    0.537968  -1.240208
     9  C   -0.006340  -0.675911
    10  C    0.674179  -0.424401
    11  C   -0.329188  -0.098714
    12  O   -0.294905  -0.005951
    13  N   -0.070952   0.029377
    14  C   -0.079387  -0.034737
    15  C   -0.410354  -0.204484
    16  S    0.136871  -0.212760
    17  C   -0.288892   0.213126
    18  C    0.070446  -0.460457
    19  C    0.241297  -0.675434
    20  O   -0.218409   0.020978
    21  H    0.164227   0.003217
    22  H    0.120664   0.000196
    23  H    0.190195   0.018792
    24  H    0.104266   0.033624
    25  H    0.113809   0.028546
    26  H   -0.199408   0.371683
    27  H   -0.469457   0.634377
    28  H   -0.314573   0.587619
    29  H   -0.180046   0.364813
    30  H    0.200754  -0.049984
    31  H   -0.508292   0.803554
    32  H    0.225328   0.027395
    33  H    0.161648   0.031925
    34  H    0.102816   0.043772
    35  H    0.592436  -0.351892
    36  H    0.051306   0.162796
    37  H    0.053500   0.068241
    38  H   -0.264631   0.509592
    39  H   -0.102851   0.289271
    40  H    0.004580   0.112874
    41  H   -0.019705   0.200045
    42  H   -0.177526   0.296123
    43  H    0.056779   0.183498
 Sum of Mulliken charges =  -1.00000   1.00000

 Dipole moment (field-independent basis, Debye):
    X=              2.9338    Y=             -4.0451    Z=             -3.6394  Tot=              6.1819
 Quadrupole moment (field-independent basis, Debye-Ang):
   XX=           -202.3322   YY=           -175.1210   ZZ=           -183.5057
   XY=              3.7627   XZ=             -5.1129   YZ=             -6.0185

 Summary of Natural Population Analysis:

                                       Natural Population
                Natural  -----------------------------------------------
    Atom  No    Charge         Core      Valence    Rydberg      Total
 -----------------------------------------------------------------------
      C    1   -0.29890      0.99963     2.29472    0.00454     3.29890
      C    2   -0.00898      0.99947     1.99957    0.00994     3.00898
      C    3   -0.09800      0.99952     2.08976    0.00872     3.09800
      C    4   -0.09910      0.99956     2.09030    0.00924     3.09910
      C    5   -0.11063      0.99955     2.10063    0.01044     3.11063
      C    6   -0.09080      0.99952     2.08112    0.01016     3.09080
      C    7   -0.01882      0.99944     2.00858    0.01079     3.01882
      C    8   -0.10975      0.99956     2.09692    0.01327     3.10975
      C    9   -0.18582      0.99959     2.17645    0.00977     3.18582
      C   10   -0.15476      0.99953     2.14374    0.01149     3.15476
      C   11    0.34499      0.99963     1.63163    0.02375     2.65501
      O   12   -0.32832      0.99987     3.32329    0.00515     4.32832
      N   13   -0.32096      0.99966     2.81119    0.01011     3.82096
      C   14   -0.09520      0.99958     2.08350    0.01211     3.09520
      C   15   -0.25548      0.99957     2.24638    0.00953     3.25548
      S   16    0.08443      4.99963     2.89910    0.01683     7.91557
      C   17   -0.25923      0.99958     2.24769    0.01196     3.25923
      C   18   -0.21119      0.99961     2.20246    0.00912     3.21119
      C   19   -0.01038      0.99959     1.99884    0.01195     3.01038
      O   20   -0.36607      0.99990     3.35941    0.00676     4.36607
      H   21    0.10234      0.00000     0.39682    0.00085     0.39766
      H   22    0.09631      0.00000     0.40289    0.00081     0.40369
      H   23    0.12013      0.00000     0.37883    0.00104     0.37987
      H   24    0.09551      0.00000     0.40361    0.00089     0.40449
      H   25    0.09795      0.00000     0.40131    0.00075     0.40205
      H   26    0.10151      0.00000     0.39759    0.00090     0.39849
      H   27    0.10282      0.00000     0.39502    0.00216     0.39718
      H   28    0.11451      0.00000     0.38269    0.00280     0.38549
      H   29    0.10615      0.00000     0.39309    0.00077     0.39385
      H   30    0.11485      0.00000     0.38401    0.00114     0.38515
      H   31    0.11821      0.00000     0.37879    0.00299     0.38179
      H   32    0.19839      0.00000     0.29894    0.00267     0.30161
      H   33    0.11267      0.00000     0.38493    0.00240     0.38733
      H   34    0.08597      0.00000     0.41169    0.00234     0.41403
      H   35    0.11622      0.00000     0.38218    0.00160     0.38378
      H   36    0.10255      0.00000     0.39573    0.00172     0.39745
      H   37    0.09911      0.00000     0.39901    0.00188     0.40089
      H   38    0.11231      0.00000     0.38651    0.00118     0.38769
      H   39    0.10214      0.00000     0.39645    0.00142     0.39786
      H   40    0.10348      0.00000     0.39509    0.00144     0.39652
      H   41    0.08742      0.00000     0.41137    0.00121     0.41258
      H   42    0.07589      0.00000     0.42231    0.00180     0.42411
      H   43    0.22655      0.00000     0.26941    0.00405     0.27345
 =======================================================================
   * Total *    0.00000     23.99203    54.75355    0.25442    79.00000

 Normal termination of Gaussian 16 at Mon Dec 14 19:57:14 2020.
