 Gaussian 16, Revision A.03,

 -----------------------------------------------------------
 # opt freq B3LYP/6-31G(d) empiricaldispersion=gd3bj scf=xqc
 -----------------------------------------------------------

 --------------------------------
 CID_108830830_JID_10038_neutraal
 --------------------------------
 Symbolic Z-matrix:
 Charge =  0 Multiplicity = 1

 SCF Done:  E(RB3LYP) =  -1273.89921463     A.U. after   16 cycles
 SCF Done:  E(RB3LYP) =  -1273.90696009     A.U. after   14 cycles
 SCF Done:  E(RB3LYP) =  -1273.89770130     A.U. after   16 cycles
 SCF Done:  E(RB3LYP) =  -1273.90682956     A.U. after   14 cycles
 SCF Done:  E(RB3LYP) =  -1273.91088459     A.U. after   11 cycles
 SCF Done:  E(RB3LYP) =  -1273.91272556     A.U. after   12 cycles
 SCF Done:  E(RB3LYP) =  -1273.91394202     A.U. after   13 cycles
 SCF Done:  E(RB3LYP) =  -1273.91451345     A.U. after   12 cycles
 SCF Done:  E(RB3LYP) =  -1273.91480759     A.U. after   12 cycles
 SCF Done:  E(RB3LYP) =  -1273.91495712     A.U. after   12 cycles
 SCF Done:  E(RB3LYP) =  -1273.91542314     A.U. after   11 cycles
 SCF Done:  E(RB3LYP) =  -1273.91542994     A.U. after   11 cycles
 SCF Done:  E(RB3LYP) =  -1273.91543733     A.U. after   10 cycles
 SCF Done:  E(RB3LYP) =  -1273.91543623     A.U. after   10 cycles
 SCF Done:  E(RB3LYP) =  -1273.91543828     A.U. after   10 cycles
 SCF Done:  E(RB3LYP) =  -1273.91543841     A.U. after    8 cycles
 Optimization completed.
    -- Stationary point found.
 Normal termination of Gaussian 16 at Sat Dec 12 15:03:32 2020.

 --------------------------------------------------------------------
 #N Geom=AllCheck Guess=TCheck SCRF=Check GenChk RB3LYP/6-31G(d) Freq
 --------------------------------------------------------------------

 Structure from the checkpoint file:  "JID_10038.chk"
 --------------------------------
 CID_108830830_JID_10038_neutraal
 --------------------------------
 Charge =  0 Multiplicity = 1

 SCF Done:  E(RB3LYP) =  -1273.91543841     A.U. after    1 cycles

  Exact polarizability: 218.209 -30.244 218.441  -6.469 -12.729 132.588
 Approx polarizability: 299.935 -56.528 352.319 -13.808 -28.804 212.535

                      1                      2                      3
                      A                      A                      A
 Frequencies --     31.0011                39.3553                45.2959
 Red. masses --      4.4596                 5.2132                 9.1121
 Frc consts  --      0.0025                 0.0048                 0.0110
 IR Inten    --      0.1601                 0.0217                 0.5024

                      4                      5                      6
                      A                      A                      A
 Frequencies --     55.9457                80.2244                90.6174
 Red. masses --      5.3659                 5.9224                 4.8333
 Frc consts  --      0.0099                 0.0225                 0.0234
 IR Inten    --      0.2005                 1.0703                 3.9070

                      7                      8                      9
                      A                      A                      A
 Frequencies --    114.8322               132.4671               138.8874
 Red. masses --      3.9970                 5.4415                 3.0055
 Frc consts  --      0.0311                 0.0563                 0.0342
 IR Inten    --      2.2793                 5.3756                 1.4568

                     10                     11                     12
                      A                      A                      A
 Frequencies --    165.7669               169.6340               174.4371
 Red. masses --      2.9768                 7.5020                 2.3173
 Frc consts  --      0.0482                 0.1272                 0.0415
 IR Inten    --      2.8367                 0.7207                 2.2814

                     13                     14                     15
                      A                      A                      A
 Frequencies --    239.6261               245.6279               271.3160
 Red. masses --      4.1613                 1.2313                 3.5451
 Frc consts  --      0.1408                 0.0438                 0.1538
 IR Inten    --      4.0154                 1.8602                 3.9221

                     16                     17                     18
                      A                      A                      A
 Frequencies --    281.8281               303.5018               306.6552
 Red. masses --      4.3840                 1.2087                 4.1069
 Frc consts  --      0.2052                 0.0656                 0.2275
 IR Inten    --      6.5836                 0.3082                 3.7094

                     19                     20                     21
                      A                      A                      A
 Frequencies --    341.8267               351.4529               359.9559
 Red. masses --      2.0786                 4.0056                 3.0946
 Frc consts  --      0.1431                 0.2915                 0.2362
 IR Inten    --      0.1823                 3.4463                 4.2854

                     22                     23                     24
                      A                      A                      A
 Frequencies --    374.3439               421.5402               425.0409
 Red. masses --      3.8283                 2.0666                 6.0842
 Frc consts  --      0.3161                 0.2164                 0.6476
 IR Inten    --      4.1763                 1.9477                 3.3823

                     25                     26                     27
                      A                      A                      A
 Frequencies --    458.2475               479.9127               507.7700
 Red. masses --      8.5718                 4.7613                 4.6867
 Frc consts  --      1.0605                 0.6461                 0.7119
 IR Inten    --      2.5602                 8.0337                 7.2610

                     28                     29                     30
                      A                      A                      A
 Frequencies --    539.9997               564.2370               595.9562
 Red. masses --      5.6595                 7.1542                 8.1337
 Frc consts  --      0.9723                 1.3420                 1.7020
 IR Inten    --      0.0211                10.5727                 1.4514

                     31                     32                     33
                      A                      A                      A
 Frequencies --    611.5353               632.2102               655.3556
 Red. masses --      3.2020                 6.2945                 5.4720
 Frc consts  --      0.7055                 1.4823                 1.3847
 IR Inten    --      0.2267                 2.8888                41.6681

                     34                     35                     36
                      A                      A                      A
 Frequencies --    700.6002               715.2116               730.4937
 Red. masses --      5.0652                 2.6875                 2.9139
 Frc consts  --      1.4648                 0.8100                 0.9161
 IR Inten    --     15.7383                24.5776                12.3926

                     37                     38                     39
                      A                      A                      A
 Frequencies --    762.5659               770.5475               784.8970
 Red. masses --      1.8598                 4.1939                 3.2918
 Frc consts  --      0.6372                 1.4671                 1.1948
 IR Inten    --     46.1767                12.5279                20.4650

                     40                     41                     42
                      A                      A                      A
 Frequencies --    837.3761               857.9067               878.0454
 Red. masses --      3.0030                 2.6283                 1.8765
 Frc consts  --      1.2406                 1.1398                 0.8524
 IR Inten    --      6.8224                20.0278                 8.3494

                     43                     44                     45
                      A                      A                      A
 Frequencies --    897.3377               923.3357               938.1240
 Red. masses --      3.1403                 1.5970                 2.5043
 Frc consts  --      1.4898                 0.8022                 1.2986
 IR Inten    --      6.4624                 3.0715                 2.3750

                     46                     47                     48
                      A                      A                      A
 Frequencies --    945.5201               949.0146               979.2103
 Red. masses --      2.5725                 1.3407                 1.8676
 Frc consts  --      1.3550                 0.7114                 1.0551
 IR Inten    --      4.7416                14.2105                13.9892

                     49                     50                     51
                      A                      A                      A
 Frequencies --    992.9920              1039.6467              1049.7668
 Red. masses --      1.8533                 1.4482                 1.8671
 Frc consts  --      1.0767                 0.9222                 1.2123
 IR Inten    --     11.5838                 2.7837                62.7844

                     52                     53                     54
                      A                      A                      A
 Frequencies --   1052.9902              1095.2500              1127.3605
 Red. masses --      4.1335                 2.0846                 2.0050
 Frc consts  --      2.7003                 1.4733                 1.5014
 IR Inten    --    109.2554                65.6315                16.6371

                     55                     56                     57
                      A                      A                      A
 Frequencies --   1134.2794              1162.1492              1180.1777
 Red. masses --      2.2270                 2.2820                 1.4252
 Frc consts  --      1.6881                 1.8159                 1.1696
 IR Inten    --     91.1968                 5.8815                 0.7929

                     58                     59                     60
                      A                      A                      A
 Frequencies --   1188.4934              1193.0138              1213.8058
 Red. masses --      2.3796                 3.0722                 4.9600
 Frc consts  --      1.9804                 2.5763                 4.3056
 IR Inten    --      2.4079               104.4534                13.8930

                     61                     62                     63
                      A                      A                      A
 Frequencies --   1235.4023              1250.6059              1284.4865
 Red. masses --      1.2136                 3.0966                 1.2202
 Frc consts  --      1.0913                 2.8535                 1.1862
 IR Inten    --     22.0358                80.2671                55.9777

                     64                     65                     66
                      A                      A                      A
 Frequencies --   1295.4463              1319.9623              1351.6022
 Red. masses --      1.9437                 1.5292                 1.8076
 Frc consts  --      1.9218                 1.5697                 1.9455
 IR Inten    --    123.6336                44.5135               246.5680

                     67                     68                     69
                      A                      A                      A
 Frequencies --   1362.7774              1366.0035              1372.1732
 Red. masses --      1.3997                 1.4890                 1.3770
 Frc consts  --      1.5315                 1.6370                 1.5276
 IR Inten    --    111.7197                73.8428                 3.0563

                     70                     71                     72
                      A                      A                      A
 Frequencies --   1387.6317              1390.9628              1404.1074
 Red. masses --      1.3219                 1.4813                 1.2457
 Frc consts  --      1.4997                 1.6886                 1.4470
 IR Inten    --      8.0007                 7.1611                 7.4471

                     73                     74                     75
                      A                      A                      A
 Frequencies --   1407.6533              1425.0125              1426.9307
 Red. masses --      1.7674                 1.3867                 1.6601
 Frc consts  --      2.0634                 1.6591                 1.9916
 IR Inten    --     46.3749                40.1407                 8.7858

                     76                     77                     78
                      A                      A                      A
 Frequencies --   1436.3721              1445.8044              1478.2625
 Red. masses --      1.2955                 1.2778                 2.2001
 Frc consts  --      1.5748                 1.5738                 2.8327
 IR Inten    --     11.2198                27.1407                20.0000

                     79                     80                     81
                      A                      A                      A
 Frequencies --   1508.9194              1509.4839              1515.4912
 Red. masses --      1.0777                 1.0788                 1.0669
 Frc consts  --      1.4458                 1.4483                 1.4437
 IR Inten    --      0.7408                 3.6989                 9.1276

                     82                     83                     84
                      A                      A                      A
 Frequencies --   1519.3449              1526.2407              1528.2378
 Red. masses --      1.0525                 1.0973                 1.0971
 Frc consts  --      1.4315                 1.5060                 1.5096
 IR Inten    --     10.0624                 5.6843                 8.7265

                     85                     86                     87
                      A                      A                      A
 Frequencies --   1536.5259              1547.8787              1688.9898
 Red. masses --      1.0627                 1.0566                 5.4278
 Frc consts  --      1.4782                 1.4916                 9.1229
 IR Inten    --      7.4664                 6.1864               109.7241

                     88                     89                     90
                      A                      A                      A
 Frequencies --   1717.9588              1771.9271              2343.9500
 Red. masses --      5.2912                11.3633                12.6705
 Frc consts  --      9.2010                21.0208                41.0147
 IR Inten    --    864.7378               194.6387                69.2873

                     91                     92                     93
                      A                      A                      A
 Frequencies --   3019.5513              3034.6067              3035.0575
 Red. masses --      1.0733                 1.0720                 1.0697
 Frc consts  --      5.7657                 5.8166                 5.8057
 IR Inten    --     22.1759                36.3286                38.6928

                     94                     95                     96
                      A                      A                      A
 Frequencies --   3056.6481              3061.7076              3064.3213
 Red. masses --      1.0700                 1.0427                 1.0554
 Frc consts  --      5.8904                 5.7590                 5.8390
 IR Inten    --     23.1090                27.1616                22.5182

                     97                     98                     99
                      A                      A                      A
 Frequencies --   3073.9327              3094.1269              3107.3500
 Red. masses --      1.0849                 1.0689                 1.0860
 Frc consts  --      6.0398                 6.0293                 6.1783
 IR Inten    --     35.4948                 6.8455                39.0520

                    100                    101                    102
                      A                      A                      A
 Frequencies --   3125.9670              3129.2318              3147.3472
 Red. masses --      1.0993                 1.0990                 1.1028
 Frc consts  --      6.3289                 6.3404                 6.4364
 IR Inten    --     32.6239                22.0768                25.3407

                    103                    104                    105
                      A                      A                      A
 Frequencies --   3151.2499              3154.6712              3162.0929
 Red. masses --      1.0912                 1.0925                 1.1079
 Frc consts  --      6.3847                 6.4057                 6.5268
 IR Inten    --     14.3369                 8.0569                 6.3119

                    106                    107                    108
                      A                      A                      A
 Frequencies --   3179.4232              3226.1181              3485.8657
 Red. masses --      1.0959                 1.0921                 1.0764
 Frc consts  --      6.5273                 6.6966                 7.7060
 IR Inten    --     14.8030                 0.3301               183.9615

 - Thermochemistry -
 -------------------
 Temperature   298.150 Kelvin.  Pressure   1.00000 Atm.
 Atom     1 has atomic number  6 and mass  12.00000

 Molecular mass:   294.11505 amu.
 Principal axes and moments of inertia in atomic units:
                           1         2         3
     Eigenvalues --  4874.048367213.65262**********
           X            0.99998   0.00678   0.00135
           Y           -0.00677   0.99996  -0.00620
           Z           -0.00139   0.00619   0.99998
 This molecule is an asymmetric top.
 Rotational symmetry number  1.
 Warning -- assumption of classical behavior for rotation
           may cause significant error
 Rotational temperatures (Kelvin)      0.01777     0.01201     0.00824
 Rotational constants (GHZ):           0.37028     0.25018     0.17177
 Zero-point vibrational energy     819274.1 (Joules/Mol)
                                  195.81121 (Kcal/Mol)
 Warning -- explicit consideration of  31 degrees of freedom as
           vibrations may cause significant error
 Vibrational temperatures:     44.60    56.62    65.17    80.49   115.42
          (Kelvin)            130.38   165.22   190.59   199.83   238.50
                              244.07   250.98   344.77   353.40   390.36
                              405.49   436.67   441.21   491.81   505.66
                              517.90   538.60   606.50   611.54   659.32
                              690.49   730.57   776.94   811.81   857.45
                              879.86   909.61   942.91  1008.01  1029.03
                             1051.02  1097.16  1108.65  1129.29  1204.80
                             1234.34  1263.31  1291.07  1328.47  1349.75
                             1360.39  1365.42  1408.87  1428.69  1495.82
                             1510.38  1515.02  1575.82  1622.02  1631.98
                             1672.07  1698.01  1709.98  1716.48  1746.40
                             1777.47  1799.34  1848.09  1863.86  1899.13
                             1944.65  1960.73  1965.37  1974.25  1996.49
                             2001.29  2020.20  2025.30  2050.28  2053.04
                             2066.62  2080.19  2126.89  2171.00  2171.81
                             2180.45  2186.00  2195.92  2198.79  2210.72
                             2227.05  2430.08  2471.76  2549.41  3372.42
                             4344.46  4366.12  4366.77  4397.83  4405.11
                             4408.87  4422.70  4451.76  4470.78  4497.57
                             4502.27  4528.33  4533.95  4538.87  4549.55
                             4574.48  4641.66  5015.38

 Zero-point correction=                           0.312045 (Hartree/Particle)
 Thermal correction to Energy=                    0.331609
 Thermal correction to Enthalpy=                  0.332553
 Thermal correction to Gibbs Free Energy=         0.263082
 Sum of electronic and zero-point Energies=          -1273.603393
 Sum of electronic and thermal Energies=             -1273.583830
 Sum of electronic and thermal Enthalpies=           -1273.582886
 Sum of electronic and thermal Free Energies=        -1273.652356

                     E (Thermal)             CV                S
                      KCal/Mol        Cal/Mol-Kelvin    Cal/Mol-Kelvin
 Total                  208.088             73.601            146.213
 Electronic               0.000              0.000              0.000
 Translational            0.889              2.981             42.934
 Rotational               0.889              2.981             34.268
 Vibrational            206.310             67.639             69.012
 Vibration     1          0.594              1.984              5.764
 Vibration     2          0.594              1.981              5.291
 Vibration     3          0.595              1.979              5.013
 Vibration     4          0.596              1.975              4.595
 Vibration     5          0.600              1.963              3.885
 Vibration     6          0.602              1.956              3.647
 Vibration     7          0.608              1.937              3.186
 Vibration     8          0.613              1.921              2.910
 Vibration     9          0.614              1.914              2.819
 Vibration    10          0.624              1.885              2.483
 Vibration    11          0.625              1.880              2.440
 Vibration    12          0.627              1.874              2.387
 Vibration    13          0.657              1.780              1.806
 Vibration    14          0.660              1.770              1.762
 Vibration    15          0.675              1.726              1.588
 Vibration    16          0.681              1.707              1.523
 Vibration    17          0.695              1.667              1.398
 Vibration    18          0.697              1.661              1.380
 Vibration    19          0.721              1.592              1.204
 Vibration    20          0.728              1.572              1.160
 Vibration    21          0.734              1.555              1.122
 Vibration    22          0.745              1.525              1.062
 Vibration    23          0.784              1.423              0.887
 Vibration    24          0.787              1.416              0.875
 Vibration    25          0.816              1.343              0.771
 Vibration    26          0.836              1.295              0.710
 Vibration    27          0.863              1.233              0.639
 Vibration    28          0.895              1.162              0.565
 Vibration    29          0.920              1.109              0.515
 Vibration    30          0.954              1.040              0.457
 Vibration    31          0.971              1.007              0.430

 Optimization completed.
    -- Stationary point found.
 Normal termination of Gaussian 16 at Sat Dec 12 15:23:36 2020.

 ----------------------------------------------------------------------
 # B3LYP/6-311++G(d,p) empiricaldispersion=gd3bj scf=xqc pop=npa geom=c
 heck
 ----------------------------------------------------------------------

 ----------------------------------------
 CID_108830830_JID_10038_Energie_neutraal
 ----------------------------------------
 Structure from the checkpoint file:  "JID_10038.chk"
 Charge =  0 Multiplicity = 1

 SCF Done:  E(RB3LYP) =  -1274.18509543     A.U. after   17 cycles
 Normal termination of Gaussian 16 at Sat Dec 12 15:32:23 2020.

 ----------------------------------------------------------------------
 # B3LYP/6-311++G(d,p) empiricaldispersion=gd3bj scf=xqc pop=npa geom=c
 heck
 ----------------------------------------------------------------------

 --------------------------------------
 CID_108830830_JID_10038_Energie_kation
 --------------------------------------
 Structure from the checkpoint file:  "JID_10038.chk"
 Charge =  1 Multiplicity = 2

 SCF Done:  E(UB3LYP) =  -1273.88119952     A.U. after   32 cycles
 Normal termination of Gaussian 16 at Sat Dec 12 15:55:35 2020.
 Gaussian 16:  ES64L-G16RevA.03 25-Dec-2016

 ----------------------------------------------------------------------
 # B3LYP/6-311++G(d,p) empiricaldispersion=gd3bj scf=xqc pop=npa geom=c
 heck
 ----------------------------------------------------------------------

 -------------------------------------
 CID_108830830_JID_10038_Energie_anion
 -------------------------------------
 Structure from the checkpoint file:  "JID_10038.chk"
 Charge = -1 Multiplicity = 2

                         Standard orientation:
 ---------------------------------------------------------------------
 Center     Atomic      Atomic             Coordinates (Angstroms)
 Number     Number       Type             X           Y           Z
 ---------------------------------------------------------------------
      1          6           0       -1.773152   -2.609794    1.433363
      2          6           0       -2.859143   -1.998250    0.542169
      3          6           0       -3.026565   -0.493643    0.751113
      4          7           0       -1.900144    0.219809    0.135527
      5          6           0       -1.823595   -0.069186   -1.311094
      6          6           0       -1.733890   -1.577156   -1.590123
      7          8           0       -2.712508   -2.307068   -0.848543
      8          6           0       -0.329432   -2.176305   -1.477585
      9          6           0       -1.745739    1.547303    0.556151
     10          8           0       -2.475117    2.061000    1.386768
     11          6           0       -0.554913    2.282190    0.009513
     12          6           0        0.696017    1.741116   -0.040688
     13          7           0        0.973962    0.443717    0.266314
     14          6           0        2.205166   -0.175967    0.278579
     15          7           0        2.343574   -1.359643    0.731326
     16          6           0        3.696759   -1.856263    0.517187
     17          6           0        4.669862   -0.668461    0.334305
     18         16           0        3.640364    0.667492   -0.404496
     19          6           0       -0.713507    3.668925   -0.269305
     20          7           0       -0.840451    4.797034   -0.527370
     21          1           0       -1.582683   -3.643547    1.131745
     22          1           0       -2.112270   -2.610690    2.475557
     23          1           0       -0.827018   -2.063168    1.395653
     24          1           0       -3.811719   -2.471910    0.803447
     25          1           0       -3.968945   -0.152750    0.299529
     26          1           0       -3.057312   -0.244009    1.812327
     27          1           0       -0.966786    0.447455   -1.745622
     28          1           0       -2.733303    0.323386   -1.788738
     29          1           0       -2.051833   -1.706897   -2.631412
     30          1           0       -0.380931   -3.244747   -1.707902
     31          1           0        0.338059   -1.700835   -2.206161
     32          1           0        0.125813   -2.073862   -0.492288
     33          1           0        1.546644    2.359077   -0.308178
     34          1           0        0.184846   -0.137153    0.546916
     35          1           0        3.697321   -2.494332   -0.377843
     36          1           0        4.005477   -2.477555    1.363690
     37          1           0        5.064857   -0.313995    1.289824
     38          1           0        5.499154   -0.899267   -0.336506
 ---------------------------------------------------------------------

 SCF Done:  E(UB3LYP) =  -1274.20731619     A.U. after   27 cycles

 The electronic state is 2-A.
 Alpha  occ. eigenvalues --  -88.75601 -19.03062 -18.95808 -14.23714 -14.22389
 Alpha  occ. eigenvalues --  -14.17626 -14.15248 -10.14832 -10.13597 -10.13392
 Alpha  occ. eigenvalues --  -10.13288 -10.11536 -10.10961 -10.10278 -10.09790
 Alpha  occ. eigenvalues --  -10.07151 -10.07052 -10.06387 -10.05928 -10.04720
 Alpha  occ. eigenvalues --   -7.84220  -5.80578  -5.80255  -5.79621  -0.94608
 Alpha  occ. eigenvalues --   -0.91465  -0.87215  -0.82039  -0.80568  -0.75385
 Alpha  occ. eigenvalues --   -0.70819  -0.68785  -0.66750  -0.65113  -0.62288
 Alpha  occ. eigenvalues --   -0.60090  -0.58942  -0.54369  -0.53545  -0.50829
 Alpha  occ. eigenvalues --   -0.48883  -0.47061  -0.43113  -0.41313  -0.39834
 Alpha  occ. eigenvalues --   -0.39047  -0.38528  -0.37852  -0.37238  -0.35896
 Alpha  occ. eigenvalues --   -0.34976  -0.34797  -0.33174  -0.32726  -0.31750
 Alpha  occ. eigenvalues --   -0.31117  -0.30668  -0.30040  -0.29739  -0.29346
 Alpha  occ. eigenvalues --   -0.28668  -0.28528  -0.27199  -0.26009  -0.25535
 Alpha  occ. eigenvalues --   -0.24391  -0.24023  -0.22283  -0.21906  -0.20805
 Alpha  occ. eigenvalues --   -0.19090  -0.18738  -0.17585  -0.16512  -0.14801
 Alpha  occ. eigenvalues --   -0.13669  -0.13011  -0.09656   0.03185
 Alpha virt. eigenvalues --    0.06198   0.06867   0.07917   0.08441   0.09003
 Alpha virt. eigenvalues --    0.09426   0.09907   0.10421   0.10969   0.10993
 Alpha virt. eigenvalues --    0.11783   0.12030   0.12212   0.12801   0.12898

  Beta  occ. eigenvalues --  -88.75602 -19.03062 -18.95544 -14.23773 -14.22375
  Beta  occ. eigenvalues --  -14.17382 -14.15143 -10.14663 -10.13426 -10.13389
  Beta  occ. eigenvalues --  -10.13286 -10.11522 -10.10968 -10.10262 -10.09792
  Beta  occ. eigenvalues --  -10.07151 -10.06400 -10.06387 -10.05912 -10.04649
  Beta  occ. eigenvalues --   -7.84221  -5.80577  -5.80260  -5.79622  -0.94600
  Beta  occ. eigenvalues --   -0.91047  -0.86892  -0.81868  -0.80271  -0.75215
  Beta  occ. eigenvalues --   -0.70809  -0.68621  -0.66305  -0.65014  -0.62142
  Beta  occ. eigenvalues --   -0.60053  -0.58788  -0.54182  -0.53276  -0.50449
  Beta  occ. eigenvalues --   -0.48639  -0.46868  -0.43070  -0.41103  -0.39617
  Beta  occ. eigenvalues --   -0.38969  -0.38407  -0.37689  -0.37091  -0.35872
  Beta  occ. eigenvalues --   -0.34923  -0.34684  -0.33074  -0.32487  -0.31381
  Beta  occ. eigenvalues --   -0.30683  -0.30501  -0.29953  -0.29574  -0.29295
  Beta  occ. eigenvalues --   -0.28511  -0.28154  -0.27047  -0.25561  -0.25173
  Beta  occ. eigenvalues --   -0.24237  -0.23904  -0.21715  -0.21448  -0.20746
  Beta  occ. eigenvalues --   -0.18663  -0.18084  -0.17491  -0.16257  -0.14522
  Beta  occ. eigenvalues --   -0.13094  -0.12599  -0.08328
  Beta virt. eigenvalues --    0.06088   0.06825   0.07854   0.08339   0.08929
  Beta virt. eigenvalues --    0.09382   0.09514   0.09924   0.10426   0.10944
  Beta virt. eigenvalues --    0.11079   0.11812   0.12160   0.12691   0.12820

 Mulliken charges and spin densities:
               1          2
     1  C   -0.529350  -0.020415
     2  C    0.074459  -0.011250
     3  C   -0.307489  -0.008934
     4  N    0.011302  -0.011725
     5  C   -0.286064  -0.015764
     6  C   -0.308930  -0.022306
     7  O   -0.079035  -0.001196
     8  C   -0.422343  -0.008893
     9  C   -0.692082   0.041409
    10  O   -0.302536   0.092035
    11  C    1.680212   0.096386
    12  C   -0.625138   0.504229
    13  N    0.278004  -0.031197
    14  C   -0.182517   0.087543
    15  N   -0.014101   0.120849
    16  C   -0.262473   0.048199
    17  C   -0.384900  -0.150609
    18  S   -0.162507   0.018020
    19  C   -1.238815   0.020721
    20  N   -0.308064   0.054048
    21  H    0.146900   0.000653
    22  H    0.117825   0.001936
    23  H    0.113512   0.015054
    24  H    0.166751   0.026242
    25  H    0.172311   0.005213
    26  H    0.186298   0.004396
    27  H    0.188014  -0.008920
    28  H    0.158822   0.046379
    29  H    0.172857   0.008877
    30  H    0.148979   0.001295
    31  H    0.135989  -0.000829
    32  H    0.141427   0.014778
    33  H    0.133324  -0.038778
    34  H    0.582936  -0.004755
    35  H    0.099620   0.043318
    36  H    0.136601  -0.004605
    37  H    0.148444   0.054165
    38  H    0.111757   0.034432
 Sum of Mulliken charges =  -1.00000   1.00000

 Dipole moment (field-independent basis, Debye):
    X=              2.9947    Y=            -10.9229    Z=             -0.9114  Tot=             11.3626
 Quadrupole moment (field-independent basis, Debye-Ang):
   XX=           -154.6190   YY=           -200.0657   ZZ=           -138.7237
   XY=             11.2184   XZ=              2.4543   YZ=             -1.6826

 Summary of Natural Population Analysis:

                                       Natural Population
                Natural  -----------------------------------------------
    Atom  No    Charge         Core      Valence    Rydberg      Total
 -----------------------------------------------------------------------
      C    1   -0.29970      0.99964     2.29536    0.00470     3.29970
      C    2    0.06292      0.99955     1.92421    0.01332     2.93708
      C    3   -0.09721      0.99960     2.08762    0.00999     3.09721
      N    4   -0.29184      0.99965     2.78137    0.01081     3.79184
      C    5   -0.09603      0.99959     2.08710    0.00934     3.09603
      C    6    0.06373      0.99955     1.92449    0.01222     2.93627
      O    7   -0.31130      0.99988     3.30098    0.01044     4.31130
      C    8   -0.30230      0.99964     2.29729    0.00537     3.30230
      C    9    0.37207      0.99963     1.60492    0.02339     2.62793
      O   10   -0.28395      0.99987     3.27855    0.00553     4.28395
      C   11   -0.17468      0.99938     2.16329    0.01200     3.17468
      C   12    0.17270      0.99952     1.81652    0.01127     2.82730
      N   13   -0.31156      0.99962     2.80252    0.00942     3.81156
      C   14    0.18217      0.99955     1.79925    0.01903     2.81783
      N   15   -0.25060      0.99962     2.73769    0.01330     3.75060
      C   16   -0.09933      0.99963     2.08796    0.01173     3.09933
      C   17   -0.25120      0.99962     2.24293    0.00865     3.25120
      S   18    0.08359      4.99958     2.89884    0.01799     7.91641
      C   19    0.16419      0.99964     1.81799    0.01818     2.83581
      N   20   -0.20700      0.99979     2.69602    0.01119     3.70700
      H   21    0.10123      0.00000     0.39790    0.00087     0.39877
      H   22    0.09811      0.00000     0.40108    0.00081     0.40189
      H   23    0.10415      0.00000     0.39454    0.00131     0.39585
      H   24    0.08563      0.00000     0.41271    0.00166     0.41437
      H   25    0.09173      0.00000     0.40637    0.00190     0.40827
      H   26    0.11340      0.00000     0.38567    0.00093     0.38660
      H   27    0.11543      0.00000     0.38369    0.00088     0.38457
      H   28    0.08903      0.00000     0.40914    0.00182     0.41097
      H   29    0.08674      0.00000     0.41201    0.00125     0.41326
      H   30    0.09797      0.00000     0.40110    0.00093     0.40203
      H   31    0.10066      0.00000     0.39851    0.00083     0.39934
      H   32    0.10860      0.00000     0.38991    0.00149     0.39140
      H   33    0.09392      0.00000     0.40519    0.00089     0.40608
      H   34    0.20913      0.00000     0.28719    0.00369     0.29087
      H   35    0.08833      0.00000     0.40957    0.00210     0.41167
      H   36    0.09351      0.00000     0.40502    0.00147     0.40649
      H   37    0.09669      0.00000     0.40139    0.00192     0.40331
      H   38    0.10105      0.00000     0.39668    0.00227     0.39895
 =======================================================================
   * Total *   -0.00000     23.99256    53.74258    0.26487    78.00000

 Normal termination of Gaussian 16 at Sat Dec 12 16:15:13 2020.
