 Gaussian 16, Revision A.03,

 -----------------------------------------------------------
 # opt freq B3LYP/6-31G(d) empiricaldispersion=gd3bj scf=xqc
 -----------------------------------------------------------

 -------------------------------
 CID_151510299_JID_4947_neutraal
 -------------------------------
 Symbolic Z-matrix:
 Charge =  0 Multiplicity = 1

 SCF Done:  E(RB3LYP) =  -692.841045587     A.U. after   14 cycles
 SCF Done:  E(RB3LYP) =  -692.844109360     A.U. after   12 cycles
 SCF Done:  E(RB3LYP) =  -692.844062241     A.U. after   12 cycles
 SCF Done:  E(RB3LYP) =  -692.845102563     A.U. after   11 cycles
 SCF Done:  E(RB3LYP) =  -692.845299660     A.U. after   12 cycles
 SCF Done:  E(RB3LYP) =  -692.846021579     A.U. after   12 cycles
 SCF Done:  E(RB3LYP) =  -692.846580776     A.U. after   12 cycles
 SCF Done:  E(RB3LYP) =  -692.846701176     A.U. after   12 cycles
 SCF Done:  E(RB3LYP) =  -692.846771210     A.U. after   11 cycles
 SCF Done:  E(RB3LYP) =  -692.846805805     A.U. after   11 cycles
 SCF Done:  E(RB3LYP) =  -692.846834573     A.U. after   11 cycles
 SCF Done:  E(RB3LYP) =  -692.846838947     A.U. after    9 cycles
 SCF Done:  E(RB3LYP) =  -692.846839862     A.U. after   10 cycles
 SCF Done:  E(RB3LYP) =  -692.846841215     A.U. after    9 cycles
 SCF Done:  E(RB3LYP) =  -692.846841285     A.U. after    8 cycles
 Optimization completed.
    -- Stationary point found.
 Normal termination of Gaussian 16 at Thu Dec 10 11:07:07 2020.

 --------------------------------------------------------------------
 #N Geom=AllCheck Guess=TCheck SCRF=Check GenChk RB3LYP/6-31G(d) Freq
 --------------------------------------------------------------------

 Structure from the checkpoint file:  "JID_4947.chk"
 -------------------------------
 CID_151510299_JID_4947_neutraal
 -------------------------------
 Charge =  0 Multiplicity = 1

 SCF Done:  E(RB3LYP) =  -692.846841285     A.U. after    1 cycles

  Exact polarizability: 122.072   0.695 115.740   5.028  -0.131  98.550
 Approx polarizability: 160.009   4.400 164.926  10.974   1.157 147.575

                      1                      2                      3
                      A                      A                      A
 Frequencies --     32.6761                39.4359                67.8285
 Red. masses --      5.0621                 6.0407                 6.6607
 Frc consts  --      0.0032                 0.0055                 0.0181
 IR Inten    --      0.1554                 0.1928                 1.6705

                      4                      5                      6
                      A                      A                      A
 Frequencies --     78.6627                95.0958               164.1831
 Red. masses --      3.5202                 3.3989                 4.4785
 Frc consts  --      0.0128                 0.0181                 0.0711
 IR Inten    --      4.1015                 0.8272                 3.0847

                      7                      8                      9
                      A                      A                      A
 Frequencies --    170.5079               237.8661               250.9885
 Red. masses --      2.8800                 1.5693                 1.3927
 Frc consts  --      0.0493                 0.0523                 0.0517
 IR Inten    --      1.5869                 0.0288                 0.5205

                     10                     11                     12
                      A                      A                      A
 Frequencies --    255.6098               260.7348               291.1525
 Red. masses --      2.7055                 1.6097                 1.8687
 Frc consts  --      0.1041                 0.0645                 0.0933
 IR Inten    --      0.2751                 0.8533                 0.2952

                     13                     14                     15
                      A                      A                      A
 Frequencies --    313.3048               328.9125               354.0329
 Red. masses --      2.4857                 3.9092                 2.0602
 Frc consts  --      0.1438                 0.2492                 0.1521
 IR Inten    --      1.4731                 0.4100                 3.1310

                     16                     17                     18
                      A                      A                      A
 Frequencies --    406.9925               436.3311               455.8222
 Red. masses --      2.8436                 3.6216                 2.4004
 Frc consts  --      0.2775                 0.4062                 0.2939
 IR Inten    --      1.3734                10.3779                 0.7589

                     19                     20                     21
                      A                      A                      A
 Frequencies --    502.8757               551.4510               564.5391
 Red. masses --      4.5957                 3.3461                 2.7334
 Frc consts  --      0.6847                 0.5995                 0.5133
 IR Inten    --      5.9990                28.1001                 6.3877

                     22                     23                     24
                      A                      A                      A
 Frequencies --    598.6815               661.7556               742.8665
 Red. masses --      1.8505                 1.9322                 3.4363
 Frc consts  --      0.3908                 0.4985                 1.1173
 IR Inten    --     36.1390                44.4812                23.2558

                     25                     26                     27
                      A                      A                      A
 Frequencies --    759.7934               797.6747               804.8640
 Red. masses --      3.5603                 2.7994                 2.0273
 Frc consts  --      1.2110                 1.0494                 0.7738
 IR Inten    --     41.1609                 4.9364                12.2017

                     28                     29                     30
                      A                      A                      A
 Frequencies --    824.9735               881.3341               894.0584
 Red. masses --      2.8441                 2.6538                 2.2278
 Frc consts  --      1.1404                 1.2145                 1.0492
 IR Inten    --      2.9785                42.9398                 8.3111

                     31                     32                     33
                      A                      A                      A
 Frequencies --    924.3365               955.4690               961.2441
 Red. masses --      2.3607                 1.6306                 2.3913
 Frc consts  --      1.1883                 0.8771                 1.3018
 IR Inten    --      3.9251                 6.7672                24.8800

                     34                     35                     36
                      A                      A                      A
 Frequencies --   1000.6264              1038.5373              1047.5242
 Red. masses --      1.9351                 1.8699                 1.8798
 Frc consts  --      1.1416                 1.1883                 1.2153
 IR Inten    --     11.2066                18.6785                35.1187

                     37                     38                     39
                      A                      A                      A
 Frequencies --   1072.5185              1078.0573              1112.1668
 Red. masses --      2.1800                 2.7474                 2.3797
 Frc consts  --      1.4775                 1.8813                 1.7343
 IR Inten    --     41.2096                72.7200                 4.6623

                     40                     41                     42
                      A                      A                      A
 Frequencies --   1136.0268              1147.0203              1167.3844
 Red. masses --      2.6709                 2.8984                 2.0798
 Frc consts  --      2.0309                 2.2468                 1.6699
 IR Inten    --     67.2879               129.6592                39.6098

                     43                     44                     45
                      A                      A                      A
 Frequencies --   1185.9124              1188.4317              1194.5822
 Red. masses --      1.4145                 2.6243                 2.3074
 Frc consts  --      1.1720                 2.1838                 1.9400
 IR Inten    --     19.0633                43.7905               183.4428

                     46                     47                     48
                      A                      A                      A
 Frequencies --   1224.9593              1238.1699              1261.7215
 Red. masses --      1.3683                 1.5509                 1.2751
 Frc consts  --      1.2097                 1.4008                 1.1960
 IR Inten    --     26.0685                30.3778                14.5074

                     49                     50                     51
                      A                      A                      A
 Frequencies --   1300.9292              1304.7782              1322.7839
 Red. masses --      1.2072                 1.2985                 1.4138
 Frc consts  --      1.2038                 1.3024                 1.4575
 IR Inten    --      7.5173                 2.6536                14.6425

                     52                     53                     54
                      A                      A                      A
 Frequencies --   1329.4294              1350.3507              1362.6684
 Red. masses --      1.4227                 1.4075                 1.3603
 Frc consts  --      1.4815                 1.5122                 1.4882
 IR Inten    --     10.6498                 2.7058                 3.1718

                     55                     56                     57
                      A                      A                      A
 Frequencies --   1385.9523              1399.3223              1406.9806
 Red. masses --      1.3335                 1.5448                 1.4438
 Frc consts  --      1.5092                 1.7822                 1.6839
 IR Inten    --     13.9658                18.2287                 1.7780

                     58                     59                     60
                      A                      A                      A
 Frequencies --   1414.2648              1425.9786              1434.0307
 Red. masses --      1.6230                 1.2808                 1.4253
 Frc consts  --      1.9127                 1.5345                 1.7269
 IR Inten    --     12.4306                18.1264                 0.9880

                     61                     62                     63
                      A                      A                      A
 Frequencies --   1444.2271              1448.2659              1502.6107
 Red. masses --      1.3310                 1.1956                 1.1054
 Frc consts  --      1.6357                 1.4775                 1.4705
 IR Inten    --      8.6552                 3.5356                 0.8403

                     64                     65                     66
                      A                      A                      A
 Frequencies --   1513.0741              1514.2669              1517.6108
 Red. masses --      1.1218                 1.0851                 1.0866
 Frc consts  --      1.5131                 1.4659                 1.4744
 IR Inten    --      4.5551                 2.3734                 3.1973

                     67                     68                     69
                      A                      A                      A
 Frequencies --   1528.4928              1533.6480              1540.6928
 Red. masses --      1.0489                 1.0673                 1.0620
 Frc consts  --      1.4439                 1.4790                 1.4853
 IR Inten    --      9.5233                 3.3952                11.5107

                     70                     71                     72
                      A                      A                      A
 Frequencies --   1542.3478              1547.7724              1827.3300
 Red. masses --      1.0643                 1.0709                 9.6632
 Frc consts  --      1.4918                 1.5115                19.0111
 IR Inten    --     10.9439                 6.5637               269.0295

                     73                     74                     75
                      A                      A                      A
 Frequencies --   3013.1179              3028.1078              3029.7519
 Red. masses --      1.0621                 1.0452                 1.0793
 Frc consts  --      5.6813                 5.6469                 5.8372
 IR Inten    --     13.4137                65.0252                11.0813

                     76                     77                     78
                      A                      A                      A
 Frequencies --   3037.4161              3042.6688              3049.5941
 Red. masses --      1.0623                 1.0673                 1.0663
 Frc consts  --      5.7743                 5.8216                 5.8426
 IR Inten    --     14.1808                 3.7648                41.7055

                     79                     80                     81
                      A                      A                      A
 Frequencies --   3064.4819              3080.7512              3089.6123
 Red. masses --      1.0370                 1.0892                 1.0987
 Frc consts  --      5.7376                 6.0907                 6.1793
 IR Inten    --     14.0109                 8.8745                29.7685

                     82                     83                     84
                      A                      A                      A
 Frequencies --   3090.8808              3095.2318              3099.9766
 Red. masses --      1.1002                 1.0909                 1.0888
 Frc consts  --      6.1926                 6.1578                 6.1646
 IR Inten    --     37.8857                51.8240                40.0356

                     85                     86                     87
                      A                      A                      A
 Frequencies --   3103.9550              3108.3307              3128.7194
 Red. masses --      1.0957                 1.0972                 1.1020
 Frc consts  --      6.2198                 6.2458                 6.3559
 IR Inten    --     48.2846                45.9938                48.7503

                     88                     89                     90
                      A                      A                      A
 Frequencies --   3130.7053              3151.1195              3683.7887
 Red. masses --      1.1025                 1.1020                 1.0640
 Frc consts  --      6.3666                 6.4472                 8.5074
 IR Inten    --     16.3741                20.7188                49.6958

 - Thermochemistry -
 -------------------
 Temperature   298.150 Kelvin.  Pressure   1.00000 Atm.
 Atom     1 has atomic number  6 and mass  12.00000

 Molecular mass:   202.12051 amu.
 Principal axes and moments of inertia in atomic units:
                           1         2         3
     Eigenvalues --  1612.043914235.681285010.19202
           X            0.99989   0.01489   0.00150
           Y           -0.01489   0.99988  -0.00328
           Z           -0.00155   0.00326   0.99999
 This molecule is an asymmetric top.
 Rotational symmetry number  1.
 Warning -- assumption of classical behavior for rotation
           may cause significant error
 Rotational temperatures (Kelvin)      0.05373     0.02045     0.01729
 Rotational constants (GHZ):           1.11954     0.42608     0.36021
 Zero-point vibrational energy     739804.8 (Joules/Mol)
                                  176.81760 (Kcal/Mol)
 Warning -- explicit consideration of  22 degrees of freedom as
           vibrations may cause significant error
 Vibrational temperatures:     47.01    56.74    97.59   113.18   136.82
          (Kelvin)            236.22   245.32   342.24   361.12   367.77
                              375.14   418.90   450.78   473.23   509.37
                              585.57   627.78   655.83   723.53   793.41
                              812.25   861.37   952.12  1068.82  1093.17
                             1147.68  1158.02  1186.95  1268.04  1286.35
                             1329.91  1374.71  1383.02  1439.68  1494.22
                             1507.15  1543.11  1551.08  1600.16  1634.49
                             1650.31  1679.61  1706.26  1709.89  1718.74
                             1762.44  1781.45  1815.34  1871.75  1877.28
                             1903.19  1912.75  1942.85  1960.58  1994.08
                             2013.31  2024.33  2034.81  2051.67  2063.25
                             2077.92  2083.73  2161.92  2176.98  2178.69
                             2183.50  2199.16  2206.58  2216.71  2219.09
                             2226.90  2629.12  4335.20  4356.77  4359.14
                             4370.16  4377.72  4387.69  4409.11  4432.51
                             4445.26  4447.09  4453.35  4460.17  4465.90
                             4472.19  4501.53  4504.39  4533.76  5300.15

 Zero-point correction=                           0.281777 (Hartree/Particle)
 Thermal correction to Energy=                    0.296273
 Thermal correction to Enthalpy=                  0.297217
 Thermal correction to Gibbs Free Energy=         0.239523
 Sum of electronic and zero-point Energies=           -692.565065
 Sum of electronic and thermal Energies=              -692.550569
 Sum of electronic and thermal Enthalpies=            -692.549624
 Sum of electronic and thermal Free Energies=         -692.607319

                     E (Thermal)             CV                S
                      KCal/Mol        Cal/Mol-Kelvin    Cal/Mol-Kelvin
 Total                  185.914             54.542            121.428
 Electronic               0.000              0.000              0.000
 Translational            0.889              2.981             41.816
 Rotational               0.889              2.981             31.903
 Vibrational            184.136             48.581             47.708
 Vibration     1          0.594              1.983              5.660
 Vibration     2          0.594              1.981              5.287
 Vibration     3          0.598              1.970              4.215
 Vibration     4          0.600              1.964              3.924
 Vibration     5          0.603              1.953              3.552
 Vibration     6          0.623              1.886              2.501
 Vibration     7          0.626              1.879              2.430
 Vibration     8          0.656              1.783              1.819
 Vibration     9          0.663              1.761              1.724
 Vibration    10          0.666              1.753              1.692
 Vibration    11          0.669              1.745              1.657
 Vibration    12          0.687              1.690              1.467
 Vibration    13          0.701              1.648              1.345
 Vibration    14          0.712              1.618              1.265
 Vibration    15          0.730              1.567              1.148
 Vibration    16          0.772              1.455              0.937
 Vibration    17          0.797              1.391              0.838
 Vibration    18          0.814              1.348              0.778
 Vibration    19          0.858              1.244              0.651
 Vibration    20          0.907              1.137              0.541
 Vibration    21          0.920              1.108              0.515
 Vibration    22          0.957              1.035              0.452

                           ! Non-Optimized Parameters !
 Normal termination of Gaussian 16 at Thu Dec 10 11:16:50 2020.

 ----------------------------------------------------------------------
 # B3LYP/6-311++G(d,p) empiricaldispersion=gd3bj scf=xqc pop=npa geom=c
 heck
 ----------------------------------------------------------------------

 ---------------------------------------
 CID_151510299_JID_4947_Energie_neutraal
 ---------------------------------------
 Structure from the checkpoint file:  "JID_4947.chk"
 Charge =  0 Multiplicity = 1

 SCF Done:  E(RB3LYP) =  -693.057807389     A.U. after   14 cycles
 Normal termination of Gaussian 16 at Thu Dec 10 11:20:24 2020.

 ----------------------------------------------------------------------
 # B3LYP/6-311++G(d,p) empiricaldispersion=gd3bj scf=xqc pop=npa geom=c
 heck
 ----------------------------------------------------------------------

 -------------------------------------
 CID_151510299_JID_4947_Energie_kation
 -------------------------------------
 Structure from the checkpoint file:  "JID_4947.chk"
 Charge =  1 Multiplicity = 2

 SCF Done:  E(UB3LYP) =  -692.727401554     A.U. after   27 cycles
 Normal termination of Gaussian 16 at Thu Dec 10 11:29:30 2020.
 Gaussian 16:  ES64L-G16RevA.03 25-Dec-2016

 ----------------------------------------------------------------------
 # B3LYP/6-311++G(d,p) empiricaldispersion=gd3bj scf=xqc pop=npa geom=c
 heck
 ----------------------------------------------------------------------

 ------------------------------------
 CID_151510299_JID_4947_Energie_anion
 ------------------------------------
 Structure from the checkpoint file:  "JID_4947.chk"
 Charge = -1 Multiplicity = 2

                         Standard orientation:
 ---------------------------------------------------------------------
 Center     Atomic      Atomic             Coordinates (Angstroms)
 Number     Number       Type             X           Y           Z
 ---------------------------------------------------------------------
      1          6           0       -2.475378   -1.538371   -0.940451
      2          6           0       -2.379738   -0.740769    0.373579
      3          6           0       -1.066595   -0.953472    1.141842
      4          6           0        0.214369   -0.596241    0.354733
      5          6           0        0.936341   -1.818468   -0.228170
      6          6           0        2.219348   -1.380293   -0.928703
      7          8           0        3.095511   -0.686326   -0.045454
      8          6           0        2.570165    0.458296    0.607508
      9          6           0        1.200783    0.177463    1.244994
     10          8           0        2.648134    1.626866   -0.185819
     11          6           0        1.552626    2.031304   -0.990570
     12          6           0       -2.623892    0.739953    0.128730
     13          8           0       -1.890699    1.653860    0.445842
     14          8           0       -3.807159    0.960018   -0.496611
     15          1           0       -1.717758   -1.213202   -1.660592
     16          1           0       -3.457256   -1.414049   -1.403075
     17          1           0       -2.316169   -2.602852   -0.740589
     18          1           0       -3.211515   -1.068760    1.013522
     19          1           0       -1.111814   -0.349597    2.054622
     20          1           0       -1.023493   -2.001973    1.463728
     21          1           0       -0.069532    0.048631   -0.482230
     22          1           0        1.193308   -2.514545    0.582137
     23          1           0        0.295167   -2.361336   -0.933320
     24          1           0        2.791299   -2.243826   -1.281530
     25          1           0        1.983147   -0.760419   -1.806475
     26          1           0        3.302327    0.649305    1.396257
     27          1           0        0.750139    1.117295    1.580341
     28          1           0        1.392925   -0.424518    2.143181
     29          1           0        1.357503    1.339441   -1.821197
     30          1           0        0.628879    2.162346   -0.414080
     31          1           0        1.837631    2.998919   -1.413081
     32          1           0       -3.879253    1.927383   -0.602215
 ---------------------------------------------------------------------

 SCF Done:  E(UB3LYP) =  -693.047282577     A.U. after   32 cycles

 The electronic state is 2-A.
 Alpha  occ. eigenvalues --  -19.06091 -19.03339 -19.03153 -19.00992 -10.19705
 Alpha  occ. eigenvalues --  -10.17508 -10.12269 -10.11689 -10.08780 -10.07866
 Alpha  occ. eigenvalues --  -10.07555 -10.07163 -10.06956 -10.06018  -1.00331
 Alpha  occ. eigenvalues --   -0.97158  -0.91742  -0.91404  -0.73339  -0.69104
 Alpha  occ. eigenvalues --   -0.67647  -0.61224  -0.59408  -0.56240  -0.54484
 Alpha  occ. eigenvalues --   -0.51558  -0.47046  -0.46317  -0.41536  -0.40820
 Alpha  occ. eigenvalues --   -0.39258  -0.38711  -0.38010  -0.37337  -0.36127
 Alpha  occ. eigenvalues --   -0.34705  -0.34091  -0.33381  -0.31955  -0.31165
 Alpha  occ. eigenvalues --   -0.30536  -0.28911  -0.28739  -0.27957  -0.26438
 Alpha  occ. eigenvalues --   -0.25776  -0.24767  -0.24131  -0.22879  -0.22085
 Alpha  occ. eigenvalues --   -0.21489  -0.21268  -0.17886  -0.17653  -0.16861
 Alpha  occ. eigenvalues --    0.04404
 Alpha virt. eigenvalues --    0.06691   0.07057   0.07617   0.08338   0.09348
 Alpha virt. eigenvalues --    0.09551   0.09843   0.10324   0.10782   0.11494
 Alpha virt. eigenvalues --    0.12402   0.12753   0.13107   0.13247   0.13502

  Beta  occ. eigenvalues --  -19.06032 -19.03338 -19.03150 -19.00948 -10.19655
  Beta  occ. eigenvalues --  -10.17508 -10.12258 -10.11679 -10.08761 -10.07861
  Beta  occ. eigenvalues --  -10.07550 -10.07148 -10.06943 -10.05963  -1.00226
  Beta  occ. eigenvalues --   -0.97153  -0.91737  -0.91308  -0.73307  -0.69046
  Beta  occ. eigenvalues --   -0.67634  -0.61198  -0.59365  -0.56119  -0.54432
  Beta  occ. eigenvalues --   -0.51510  -0.47018  -0.46218  -0.41507  -0.40802
  Beta  occ. eigenvalues --   -0.39181  -0.38681  -0.37961  -0.37305  -0.36024
  Beta  occ. eigenvalues --   -0.34656  -0.34045  -0.33351  -0.31894  -0.31130
  Beta  occ. eigenvalues --   -0.30495  -0.28864  -0.28699  -0.27931  -0.26380
  Beta  occ. eigenvalues --   -0.25742  -0.24729  -0.24085  -0.22842  -0.21962
  Beta  occ. eigenvalues --   -0.21452  -0.21240  -0.17863  -0.17591  -0.16846
  Beta virt. eigenvalues --    0.06705   0.07554   0.07770   0.07934   0.09048
  Beta virt. eigenvalues --    0.09626   0.10009   0.10117   0.10949   0.11018
  Beta virt. eigenvalues --    0.11916   0.12654   0.13027   0.13255   0.13502

 Mulliken charges and spin densities:
               1          2
     1  C    1.526270  -2.167041
     2  C   -0.209301   0.561593
     3  C    0.041162  -0.634382
     4  C    0.174125   0.627314
     5  C   -0.020953  -0.328899
     6  C    0.021298  -0.521976
     7  O   -0.075424   0.015069
     8  C   -0.794880   0.195319
     9  C   -0.090732  -0.487148
    10  O   -0.105728   0.001682
    11  C   -0.172318  -0.200517
    12  C    0.204453  -0.502077
    13  O   -0.260182  -0.000785
    14  O   -0.198064   0.065634
    15  H   -0.503706   0.651960
    16  H   -0.168001   0.349883
    17  H   -0.454193   0.608164
    18  H   -0.817817   1.074471
    19  H   -0.039189   0.228553
    20  H    0.059596   0.115791
    21  H    0.686926  -0.444417
    22  H    0.008177   0.162671
    23  H   -0.020310   0.170210
    24  H   -0.002214   0.191693
    25  H    0.090784   0.050060
    26  H    0.133597   0.070084
    27  H    0.232799  -0.016990
    28  H    0.096328   0.056828
    29  H   -0.042268   0.168916
    30  H    0.138687   0.055164
    31  H   -0.002833   0.158050
    32  H   -0.436090   0.725124
 Sum of Mulliken charges =  -1.00000   1.00000

 Dipole moment (field-independent basis, Debye):
    X=              7.1511    Y=              0.9083    Z=              1.6063  Tot=              7.3854
 Quadrupole moment (field-independent basis, Debye-Ang):
   XX=           -168.2485   YY=           -131.6663   ZZ=           -114.5181
   XY=             -2.1541   XZ=             -0.9261   YZ=             -0.5906

 Summary of Natural Population Analysis:

                                       Natural Population
                Natural  -----------------------------------------------
    Atom  No    Charge         Core      Valence    Rydberg      Total
 -----------------------------------------------------------------------
      C    1   -0.28287      0.99965     2.27646    0.00676     3.28287
      C    2   -0.15429      0.99955     2.14264    0.01210     3.15429
      C    3   -0.18370      0.99960     2.17236    0.01174     3.18370
      C    4   -0.12294      0.99958     2.11155    0.01181     3.12294
      C    5   -0.20199      0.99961     2.19360    0.00878     3.20199
      C    6   -0.01119      0.99957     1.99839    0.01323     3.01119
      O    7   -0.30468      0.99988     3.29619    0.00861     4.30468
      C    8    0.22477      0.99956     1.75685    0.01882     2.77523
      C    9   -0.21521      0.99959     2.20879    0.00683     3.21521
      O   10   -0.30314      0.99988     3.29442    0.00885     4.30314
      C   11   -0.10679      0.99960     2.09719    0.01001     3.10679
      C   12    0.41992      0.99968     1.55512    0.02528     2.58008
      O   13   -0.31569      0.99987     3.30944    0.00639     4.31569
      O   14   -0.34414      0.99988     3.33709    0.00717     4.34414
      H   15    0.09739      0.00000     0.40082    0.00178     0.40261
      H   16    0.11026      0.00000     0.38802    0.00172     0.38974
      H   17    0.10231      0.00000     0.39557    0.00213     0.39769
      H   18    0.11736      0.00000     0.37938    0.00326     0.38264
      H   19    0.10379      0.00000     0.39494    0.00127     0.39621
      H   20    0.10009      0.00000     0.39873    0.00119     0.39991
      H   21    0.10138      0.00000     0.39521    0.00342     0.39862
      H   22    0.09473      0.00000     0.40400    0.00127     0.40527
      H   23    0.10639      0.00000     0.39242    0.00119     0.39361
      H   24    0.09006      0.00000     0.40879    0.00115     0.40994
      H   25    0.07830      0.00000     0.42027    0.00143     0.42170
      H   26    0.08360      0.00000     0.41523    0.00117     0.41640
      H   27    0.11255      0.00000     0.38652    0.00092     0.38745
      H   28    0.10205      0.00000     0.39687    0.00108     0.39795
      H   29    0.07825      0.00000     0.42049    0.00127     0.42175
      H   30    0.09269      0.00000     0.40606    0.00125     0.40731
      H   31    0.08796      0.00000     0.41113    0.00090     0.41204
      H   32    0.24282      0.00000     0.24325    0.01393     0.25718
 =======================================================================
   * Total *    0.00000     13.99549    40.80779    0.19672    55.00000

 Normal termination of Gaussian 16 at Thu Dec 10 11:40:19 2020.
