 Gaussian 16, Revision A.03,

 -----------------------------------------------------------
 # opt freq B3LYP/6-31G(d) empiricaldispersion=gd3bj scf=xqc
 -----------------------------------------------------------

 ------------------------------
 CID_88058986_JID_7433_neutraal
 ------------------------------
 Symbolic Z-matrix:
 Charge =  0 Multiplicity = 1

 SCF Done:  E(RB3LYP) =  -880.210431492     A.U. after   15 cycles
 SCF Done:  E(RB3LYP) =  -880.214890326     A.U. after   14 cycles
 SCF Done:  E(RB3LYP) =  -880.207757064     A.U. after   15 cycles
 SCF Done:  E(RB3LYP) =  -880.213716305     A.U. after   14 cycles
 SCF Done:  E(RB3LYP) =  -880.217339980     A.U. after   11 cycles
 SCF Done:  E(RB3LYP) =  -880.217888641     A.U. after   13 cycles
 SCF Done:  E(RB3LYP) =  -880.218532067     A.U. after   13 cycles
 SCF Done:  E(RB3LYP) =  -880.218992725     A.U. after   13 cycles
 SCF Done:  E(RB3LYP) =  -880.219154282     A.U. after   12 cycles
 SCF Done:  E(RB3LYP) =  -880.219212988     A.U. after   12 cycles
 SCF Done:  E(RB3LYP) =  -880.221949778     A.U. after    8 cycles
 SCF Done:  E(RB3LYP) =  -880.221950356     A.U. after    8 cycles
 SCF Done:  E(RB3LYP) =  -880.221950756     A.U. after    9 cycles
 SCF Done:  E(RB3LYP) =  -880.221950849     A.U. after    7 cycles
 SCF Done:  E(RB3LYP) =  -880.221950893     A.U. after    7 cycles
 Optimization completed.
    -- Stationary point found.
 Normal termination of Gaussian 16 at Mon Dec 14 17:14:12 2020.

 --------------------------------------------------------------------
 #N Geom=AllCheck Guess=TCheck SCRF=Check GenChk RB3LYP/6-31G(d) Freq
 --------------------------------------------------------------------

 Structure from the checkpoint file:  "JID_7433.chk"
 ------------------------------
 CID_88058986_JID_7433_neutraal
 ------------------------------
 Charge =  0 Multiplicity = 1

 SCF Done:  E(RB3LYP) =  -880.221950893     A.U. after    1 cycles

  Exact polarizability: 141.158  -3.986 125.879   4.114  -2.310 115.212
 Approx polarizability: 201.099  -7.904 182.723   8.788  -9.734 169.502

                      1                      2                      3
                      A                      A                      A
 Frequencies --     16.7527                34.3401                44.7015
 Red. masses --      4.5209                 3.7672                 6.3922
 Frc consts  --      0.0007                 0.0026                 0.0075
 IR Inten    --      0.9073                 3.3940                 1.1214

                      4                      5                      6
                      A                      A                      A
 Frequencies --     54.1277                78.5054               102.6174
 Red. masses --      4.3294                 4.5706                 2.8096
 Frc consts  --      0.0075                 0.0166                 0.0174
 IR Inten    --      3.3839                 4.4448                 1.6714

                      7                      8                      9
                      A                      A                      A
 Frequencies --    109.5632               123.6994               133.2949
 Red. masses --      2.8863                 2.0473                 3.8106
 Frc consts  --      0.0204                 0.0185                 0.0399
 IR Inten    --      1.4020                 0.1988                 0.0932

                     10                     11                     12
                      A                      A                      A
 Frequencies --    139.4417               156.5451               164.5550
 Red. masses --      1.8216                 3.3984                 3.2489
 Frc consts  --      0.0209                 0.0491                 0.0518
 IR Inten    --      1.7814                 0.7389                 1.5440

                     13                     14                     15
                      A                      A                      A
 Frequencies --    189.4214               203.3683               205.2914
 Red. masses --      1.1531                 1.2774                 1.8991
 Frc consts  --      0.0244                 0.0311                 0.0472
 IR Inten    --      0.6261                 0.0904                 1.8065

                     16                     17                     18
                      A                      A                      A
 Frequencies --    226.4966               278.4149               283.5149
 Red. masses --      2.0603                 4.3383                 3.3642
 Frc consts  --      0.0623                 0.1981                 0.1593
 IR Inten    --      1.1807                 9.6545                12.0947

                     19                     20                     21
                      A                      A                      A
 Frequencies --    299.5322               332.5074               340.7908
 Red. masses --      3.4122                 2.9167                 3.8184
 Frc consts  --      0.1804                 0.1900                 0.2613
 IR Inten    --     13.0944                 2.4620                 1.7020

                     22                     23                     24
                      A                      A                      A
 Frequencies --    362.7511               384.3653               389.2657
 Red. masses --      3.4436                 4.4723                 6.4086
 Frc consts  --      0.2670                 0.3893                 0.5721
 IR Inten    --      9.2922                 2.7979                 5.2723

                     25                     26                     27
                      A                      A                      A
 Frequencies --    468.1852               497.2614               527.8280
 Red. masses --      4.0444                 3.4053                 3.1920
 Frc consts  --      0.5223                 0.4961                 0.5240
 IR Inten    --     13.1780                 5.5626                 7.8007

                     28                     29                     30
                      A                      A                      A
 Frequencies --    535.9078               585.8466               638.4409
 Red. masses --      2.7683                 3.5180                 3.3938
 Frc consts  --      0.4684                 0.7114                 0.8150
 IR Inten    --     10.9019                25.0068                 5.0585

                     31                     32                     33
                      A                      A                      A
 Frequencies --    664.4120               727.6381               755.3979
 Red. masses --      4.4062                 7.0463                 5.5457
 Frc consts  --      1.1460                 2.1981                 1.8645
 IR Inten    --      3.6672                 9.3405                 7.1121

                     34                     35                     36
                      A                      A                      A
 Frequencies --    779.4100               811.7465               820.7711
 Red. masses --      1.4830                 3.3936                 3.9368
 Frc consts  --      0.5308                 1.3175                 1.5626
 IR Inten    --      6.7482                 4.0211                16.9859

                     37                     38                     39
                      A                      A                      A
 Frequencies --    884.4211               924.3956               933.1413
 Red. masses --      1.7722                 2.8006                 2.4236
 Frc consts  --      0.8167                 1.4100                 1.2434
 IR Inten    --      1.4096                 8.0814                13.7953

                     40                     41                     42
                      A                      A                      A
 Frequencies --    961.2408              1005.1772              1016.8534
 Red. masses --      4.4263                 2.0170                 2.4415
 Frc consts  --      2.4097                 1.2007                 1.4874
 IR Inten    --      8.4537                15.8532                10.7866

                     43                     44                     45
                      A                      A                      A
 Frequencies --   1025.6785              1047.4214              1059.3941
 Red. masses --      2.7335                 1.9588                 2.0284
 Frc consts  --      1.6943                 1.2662                 1.3413
 IR Inten    --     17.3131                10.7774                 6.0553

                     46                     47                     48
                      A                      A                      A
 Frequencies --   1071.8210              1129.4883              1144.1537
 Red. masses --      2.7256                 3.5024                 2.6136
 Frc consts  --      1.8448                 2.6326                 2.0158
 IR Inten    --     66.6800                45.7264                50.2893

                     49                     50                     51
                      A                      A                      A
 Frequencies --   1166.8013              1177.0670              1185.7728
 Red. masses --      2.0615                 1.5537                 1.2823
 Frc consts  --      1.6536                 1.2683                 1.0623
 IR Inten    --    103.7577                39.4785                 1.5413

                     52                     53                     54
                      A                      A                      A
 Frequencies --   1216.8944              1223.3498              1251.5876
 Red. masses --      2.9228                 1.5498                 3.1484
 Frc consts  --      2.5501                 1.3665                 2.9058
 IR Inten    --    150.0757                16.9464                52.2693

                     55                     56                     57
                      A                      A                      A
 Frequencies --   1292.0791              1303.9647              1325.6654
 Red. masses --      1.7104                 3.2199                 3.5646
 Frc consts  --      1.6824                 3.2257                 3.6909
 IR Inten    --     53.3518               287.7390               206.6372

                     58                     59                     60
                      A                      A                      A
 Frequencies --   1342.7960              1387.8529              1410.7280
 Red. masses --      1.2798                 1.4271                 1.3241
 Frc consts  --      1.3596                 1.6195                 1.5526
 IR Inten    --      7.0130                 0.1618                39.9520

                     61                     62                     63
                      A                      A                      A
 Frequencies --   1427.7526              1440.2969              1478.8816
 Red. masses --      1.2883                 1.2404                 1.1025
 Frc consts  --      1.5474                 1.5160                 1.4206
 IR Inten    --     34.0235                 5.9143                11.0510

                     64                     65                     66
                      A                      A                      A
 Frequencies --   1490.2016              1496.2759              1499.4413
 Red. masses --      1.2140                 1.0570                 1.0548
 Frc consts  --      1.5884                 1.3943                 1.3972
 IR Inten    --     13.1385                15.4369                12.3019

                     67                     68                     69
                      A                      A                      A
 Frequencies --   1501.8222              1506.7593              1511.0186
 Red. masses --      1.0551                 1.0853                 1.0466
 Frc consts  --      1.4021                 1.4517                 1.4079
 IR Inten    --     25.2386                10.1019                11.0082

                     70                     71                     72
                      A                      A                      A
 Frequencies --   1513.1741              1520.9054              1532.3066
 Red. masses --      1.0472                 1.0458                 1.0393
 Frc consts  --      1.4128                 1.4253                 1.4377
 IR Inten    --      6.4800                 6.9166                 6.7202

                     73                     74                     75
                      A                      A                      A
 Frequencies --   1539.3129              1807.6200              1815.2128
 Red. masses --      1.0508                11.8956                11.6819
 Frc consts  --      1.4670                22.9009                22.6788
 IR Inten    --      3.1979               493.5848               195.0498

                     76                     77                     78
                      A                      A                      A
 Frequencies --   1820.4728              1839.7785              3050.6495
 Red. masses --     11.1130                10.4243                 1.0379
 Frc consts  --     21.6996                20.7887                 5.6913
 IR Inten    --     58.6875                33.9426                 8.6839

                     79                     80                     81
                      A                      A                      A
 Frequencies --   3065.1126              3065.8337              3084.3828
 Red. masses --      1.0374                 1.0354                 1.0291
 Frc consts  --      5.7422                 5.7337                 5.7683
 IR Inten    --      1.0153                20.8527                25.6349

                     82                     83                     84
                      A                      A                      A
 Frequencies --   3087.1549              3091.1166              3111.2315
 Red. masses --      1.0600                 1.0588                 1.0988
 Frc consts  --      5.9519                 5.9607                 6.2668
 IR Inten    --      7.4284                 1.7100                 7.0099

                     85                     86                     87
                      A                      A                      A
 Frequencies --   3126.8928              3133.9520              3134.1796
 Red. masses --      1.1033                 1.1007                 1.0988
 Frc consts  --      6.3557                 6.3694                 6.3594
 IR Inten    --      4.2310                16.4462                 7.1819

                     88                     89                     90
                      A                      A                      A
 Frequencies --   3149.4970              3153.3162              3164.3757
 Red. masses --      1.1043                 1.1059                 1.1082
 Frc consts  --      6.4537                 6.4787                 6.5381
 IR Inten    --     22.2691                 1.7952                13.4564

                     91                     92                     93
                      A                      A                      A
 Frequencies --   3170.8813              3177.5340              3196.9960
 Red. masses --      1.1026                 1.1045                 1.1077
 Frc consts  --      6.5317                 6.5702                 6.6702
 IR Inten    --      6.9885                 7.3915                12.4389

 - Thermochemistry -
 -------------------
 Temperature   298.150 Kelvin.  Pressure   1.00000 Atm.
 Atom     1 has atomic number  6 and mass  12.00000

 Molecular mass:   244.09469 amu.
 Principal axes and moments of inertia in atomic units:
                           1         2         3
     Eigenvalues --  2809.901894910.511645692.91302
           X            0.99999   0.00524   0.00153
           Y           -0.00523   0.99997  -0.00490
           Z           -0.00155   0.00489   0.99999
 This molecule is an asymmetric top.
 Rotational symmetry number  1.
 Warning -- assumption of classical behavior for rotation
           may cause significant error
 Rotational temperatures (Kelvin)      0.03082     0.01764     0.01521
 Rotational constants (GHZ):           0.64228     0.36753     0.31702
 Zero-point vibrational energy     697774.5 (Joules/Mol)
                                  166.77212 (Kcal/Mol)
 Warning -- explicit consideration of  29 degrees of freedom as
           vibrations may cause significant error
 Vibrational temperatures:     24.10    49.41    64.32    77.88   112.95
          (Kelvin)            147.64   157.64   177.98   191.78   200.63
                              225.23   236.76   272.54   292.60   295.37
                              325.88   400.58   407.91   430.96   478.40
                              490.32   521.92   553.02   560.07   673.61
                              715.45   759.43   771.05   842.90   918.57
                              955.94  1046.91  1086.85  1121.40  1167.92
                             1180.91  1272.48  1330.00  1342.58  1383.01
                             1446.23  1463.03  1475.72  1507.01  1524.23
                             1542.11  1625.08  1646.18  1678.77  1693.54
                             1706.06  1750.84  1760.13  1800.76  1859.01
                             1876.11  1907.34  1931.98  1996.81  2029.72
                             2054.22  2072.27  2127.78  2144.07  2152.81
                             2157.36  2160.79  2167.89  2174.02  2177.12
                             2188.24  2204.65  2214.73  2600.76  2611.69
                             2619.25  2647.03  4389.20  4410.01  4411.05
                             4437.74  4441.73  4447.43  4476.37  4498.90
                             4509.06  4509.39  4531.42  4536.92  4552.83
                             4562.19  4571.76  4599.76

 Zero-point correction=                           0.265768 (Hartree/Particle)
 Thermal correction to Energy=                    0.285206
 Thermal correction to Enthalpy=                  0.286150
 Thermal correction to Gibbs Free Energy=         0.216414
 Sum of electronic and zero-point Energies=           -879.956183
 Sum of electronic and thermal Energies=              -879.936745
 Sum of electronic and thermal Enthalpies=            -879.935801
 Sum of electronic and thermal Free Energies=         -880.005537

                     E (Thermal)             CV                S
                      KCal/Mol        Cal/Mol-Kelvin    Cal/Mol-Kelvin
 Total                  178.969             68.212            146.771
 Electronic               0.000              0.000              0.000
 Translational            0.889              2.981             42.378
 Rotational               0.889              2.981             32.729
 Vibrational            177.192             62.251             71.664
 Vibration     1          0.593              1.986              6.986
 Vibration     2          0.594              1.983              5.561
 Vibration     3          0.595              1.980              5.039
 Vibration     4          0.596              1.976              4.661
 Vibration     5          0.600              1.964              3.928
 Vibration     6          0.605              1.947              3.404
 Vibration     7          0.606              1.942              3.277
 Vibration     8          0.610              1.929              3.042
 Vibration     9          0.613              1.920              2.898
 Vibration    10          0.615              1.914              2.812
 Vibration    11          0.620              1.895              2.591
 Vibration    12          0.623              1.886              2.497
 Vibration    13          0.633              1.854              2.233
 Vibration    14          0.639              1.835              2.102
 Vibration    15          0.640              1.832              2.085
 Vibration    16          0.650              1.801              1.907
 Vibration    17          0.679              1.713              1.543
 Vibration    18          0.682              1.704              1.512
 Vibration    19          0.692              1.675              1.420
 Vibration    20          0.714              1.611              1.248
 Vibration    21          0.720              1.594              1.208
 Vibration    22          0.737              1.549              1.110
 Vibration    23          0.753              1.504              1.022
 Vibration    24          0.757              1.493              1.003
 Vibration    25          0.825              1.321              0.743
 Vibration    26          0.853              1.256              0.665
 Vibration    27          0.883              1.188              0.592
 Vibration    28          0.891              1.171              0.574
 Vibration    29          0.943              1.062              0.475

 Optimization completed.
    -- Stationary point found.
 Normal termination of Gaussian 16 at Mon Dec 14 17:27:30 2020.

 ----------------------------------------------------------------------
 # B3LYP/6-311++G(d,p) empiricaldispersion=gd3bj scf=xqc pop=npa geom=c
 heck
 ----------------------------------------------------------------------

 --------------------------------------
 CID_88058986_JID_7433_Energie_neutraal
 --------------------------------------
 Structure from the checkpoint file:  "JID_7433.chk"
 Charge =  0 Multiplicity = 1

 SCF Done:  E(RB3LYP) =  -880.484089888     A.U. after   16 cycles
 Normal termination of Gaussian 16 at Mon Dec 14 17:34:08 2020.

 ----------------------------------------------------------------------
 # B3LYP/6-311++G(d,p) empiricaldispersion=gd3bj scf=xqc pop=npa geom=c
 heck
 ----------------------------------------------------------------------

 ------------------------------------
 CID_88058986_JID_7433_Energie_kation
 ------------------------------------
 Structure from the checkpoint file:  "JID_7433.chk"
 Charge =  1 Multiplicity = 2

 SCF Done:  E(UB3LYP) =  -880.153794064     A.U. after   27 cycles
 Normal termination of Gaussian 16 at Mon Dec 14 17:50:09 2020.
 Gaussian 16:  ES64L-G16RevA.03 25-Dec-2016

 ----------------------------------------------------------------------
 # B3LYP/6-311++G(d,p) empiricaldispersion=gd3bj scf=xqc pop=npa geom=c
 heck
 ----------------------------------------------------------------------

 -----------------------------------
 CID_88058986_JID_7433_Energie_anion
 -----------------------------------
 Structure from the checkpoint file:  "JID_7433.chk"
 Charge = -1 Multiplicity = 2

                         Standard orientation:
 ---------------------------------------------------------------------
 Center     Atomic      Atomic             Coordinates (Angstroms)
 Number     Number       Type             X           Y           Z
 ---------------------------------------------------------------------
      1          6           0       -0.563823   -2.763166    1.508664
      2          6           0       -0.885817   -1.273827    1.640758
      3          6           0       -0.847218   -0.513691    0.303672
      4          6           0       -1.936341   -1.055474   -0.658649
      5          8           0       -3.016938   -1.351886   -0.192799
      6          6           0       -1.611380   -1.202483   -2.123519
      7          6           0       -1.036825    0.988935    0.607867
      8          8           0       -0.269657    1.611989    1.309059
      9          8           0       -2.156641    1.479907    0.076407
     10          6           0       -2.388142    2.881134    0.313939
     11          8           0        0.488731   -0.723183   -0.216311
     12          6           0        1.036718    0.178152   -1.065511
     13          8           0        0.440637    1.122256   -1.535582
     14          6           0        2.492644   -0.150583   -1.286304
     15          6           0        3.321555    0.031242    0.003944
     16          8           0        4.101322   -0.828207    0.352882
     17          6           0        3.108670    1.321876    0.759274
     18          1           0       -1.301253   -3.275429    0.882576
     19          1           0       -0.580737   -3.235544    2.495871
     20          1           0        0.429495   -2.915477    1.077340
     21          1           0       -1.889089   -1.137758    2.054612
     22          1           0       -0.173561   -0.780459    2.308430
     23          1           0       -0.757095   -1.875413   -2.260114
     24          1           0       -2.484395   -1.604442   -2.639702
     25          1           0       -1.333020   -0.230995   -2.543010
     26          1           0       -2.438557    3.080246    1.386691
     27          1           0       -1.579768    3.467183   -0.129223
     28          1           0       -3.339691    3.101709   -0.167954
     29          1           0        2.609554   -1.187858   -1.608054
     30          1           0        2.873587    0.522780   -2.060235
     31          1           0        3.177932    2.182281    0.083135
     32          1           0        2.098457    1.341562    1.188455
     33          1           0        3.848274    1.407905    1.557132
 ---------------------------------------------------------------------

 SCF Done:  E(UB3LYP) =  -880.481177845     A.U. after   33 cycles
 SCF Done:  E(UB3LYP) =  -880.481177845     a.u. after    1 cycles

 The electronic state is 2-A.
 Alpha  occ. eigenvalues --  -19.06964 -19.05773 -19.00965 -18.99772 -18.99020
 Alpha  occ. eigenvalues --  -18.97512 -10.20060 -10.18337 -10.14274 -10.13702
 Alpha  occ. eigenvalues --  -10.12532 -10.11842 -10.07389 -10.07049 -10.05929
 Alpha  occ. eigenvalues --  -10.05536 -10.05176  -1.01536  -0.99505  -0.92692
 Alpha  occ. eigenvalues --   -0.92249  -0.91795  -0.90929  -0.71021  -0.66679
 Alpha  occ. eigenvalues --   -0.64626  -0.62623  -0.61370  -0.59080  -0.51460
 Alpha  occ. eigenvalues --   -0.50125  -0.46828  -0.44329  -0.43068  -0.39641
 Alpha  occ. eigenvalues --   -0.38667  -0.38074  -0.37344  -0.37245  -0.36024
 Alpha  occ. eigenvalues --   -0.34562  -0.33600  -0.33403  -0.33120  -0.31505
 Alpha  occ. eigenvalues --   -0.31392  -0.30709  -0.30455  -0.29290  -0.28739
 Alpha  occ. eigenvalues --   -0.28101  -0.27347  -0.26876  -0.26548  -0.25430
 Alpha  occ. eigenvalues --   -0.24677  -0.24219  -0.23798  -0.23426  -0.21244
 Alpha  occ. eigenvalues --   -0.20790  -0.18106  -0.17396  -0.13551  -0.12578
 Alpha  occ. eigenvalues --    0.04815
 Alpha virt. eigenvalues --    0.06808   0.07530   0.08157   0.08861   0.08969
 Alpha virt. eigenvalues --    0.09652   0.10202   0.10404   0.10696   0.10952
 Alpha virt. eigenvalues --    0.11608   0.11806   0.12486   0.13127   0.13416

  Beta  occ. eigenvalues --  -19.06960 -19.05745 -19.00956 -18.99657 -18.98856
  Beta  occ. eigenvalues --  -18.97236 -10.20011 -10.18161 -10.14300 -10.13484
  Beta  occ. eigenvalues --  -10.12504 -10.11512 -10.07414 -10.07038 -10.05928
  Beta  occ. eigenvalues --  -10.05545 -10.05203  -1.01489  -0.99374  -0.92360
  Beta  occ. eigenvalues --   -0.92205  -0.91405  -0.90615  -0.70883  -0.66487
  Beta  occ. eigenvalues --   -0.64541  -0.62404  -0.61249  -0.59035  -0.51349
  Beta  occ. eigenvalues --   -0.49971  -0.46443  -0.44205  -0.42646  -0.39498
  Beta  occ. eigenvalues --   -0.38533  -0.37971  -0.37184  -0.36952  -0.35784
  Beta  occ. eigenvalues --   -0.34390  -0.33403  -0.33222  -0.32946  -0.31393
  Beta  occ. eigenvalues --   -0.30934  -0.30483  -0.30203  -0.29097  -0.28594
  Beta  occ. eigenvalues --   -0.28012  -0.27247  -0.26827  -0.26408  -0.25254
  Beta  occ. eigenvalues --   -0.24581  -0.23913  -0.23286  -0.22345  -0.20931
  Beta  occ. eigenvalues --   -0.20675  -0.17918  -0.17305  -0.13383  -0.12356
  Beta virt. eigenvalues --    0.07220   0.08040   0.08458   0.08938   0.09508
  Beta virt. eigenvalues --    0.09892   0.10304   0.10470   0.10780   0.10967
  Beta virt. eigenvalues --    0.11221   0.11869   0.12521   0.12678   0.13159

 Mulliken charges and spin densities:
               1          2
     1  C   -0.476016  -0.086959
     2  C   -0.003873  -0.086873
     3  C    0.579996  -0.544079
     4  C   -0.377596   0.340280
     5  O   -0.298709   0.097997
     6  C   -0.270592  -0.170882
     7  C   -0.911726   0.485655
     8  O   -0.151025   0.002220
     9  O    0.046929   0.039808
    10  C    0.353472  -0.558532
    11  O    0.218882   0.012653
    12  C   -0.229282   0.405517
    13  O   -0.162734   0.053421
    14  C    0.130799  -0.760662
    15  C   -0.077568   0.423297
    16  O   -0.310538   0.062178
    17  C   -0.264460  -0.261134
    18  H    0.168088  -0.010080
    19  H    0.111217   0.015029
    20  H    0.183573  -0.008874
    21  H    0.173771   0.034436
    22  H    0.136744   0.019211
    23  H    0.158802  -0.015796
    24  H    0.141367   0.033495
    25  H    0.042596   0.152744
    26  H   -0.133854   0.298519
    27  H    0.008764   0.172218
    28  H   -0.169914   0.322787
    29  H    0.149963   0.047489
    30  H   -0.105449   0.305056
    31  H   -0.004992   0.150193
    32  H    0.231967  -0.019273
    33  H    0.111397   0.048942
 Sum of Mulliken charges =  -1.00000   1.00000

 Dipole moment (field-independent basis, Debye):
    X=             -0.5185    Y=             -1.2021    Z=              0.5527  Tot=              1.4210
 Quadrupole moment (field-independent basis, Debye-Ang):
   XX=           -164.1378   YY=           -128.5851   ZZ=           -120.9284
   XY=              3.4478   XZ=             -1.7997   YZ=              1.8111

 Summary of Natural Population Analysis:

                                       Natural Population
                Natural  -----------------------------------------------
    Atom  No    Charge         Core      Valence    Rydberg      Total
 -----------------------------------------------------------------------
      C    1   -0.28716      0.99966     2.28348    0.00401     3.28716
      C    2   -0.19156      0.99960     2.18275    0.00921     3.19156
      C    3    0.06534      0.99941     1.91843    0.01682     2.93466
      C    4    0.32453      0.99964     1.65165    0.02417     2.67547
      O    5   -0.26937      0.99987     3.26311    0.00639     4.26937
      C    6   -0.34121      0.99962     2.33657    0.00502     3.34121
      C    7    0.41843      0.99962     1.55256    0.02938     2.58157
      O    8   -0.31356      0.99986     3.30791    0.00579     4.31356
      O    9   -0.26548      0.99985     3.25673    0.00890     4.26548
      C   10   -0.10236      0.99959     2.09499    0.00778     3.10236
      O   11   -0.28999      0.99985     3.28023    0.00991     4.28999
      C   12    0.43074      0.99969     1.54372    0.02585     2.56926
      O   13   -0.29703      0.99987     3.29139    0.00577     4.29703
      C   14   -0.27877      0.99954     2.27041    0.00881     3.27877
      C   15    0.32080      0.99970     1.65754    0.02196     2.67920
      O   16   -0.27801      0.99987     3.27151    0.00663     4.27801
      C   17   -0.34591      0.99961     2.34136    0.00494     3.34591
      H   18    0.10153      0.00000     0.39766    0.00081     0.39847
      H   19    0.09485      0.00000     0.40435    0.00080     0.40515
      H   20    0.10367      0.00000     0.39549    0.00084     0.39633
      H   21    0.10979      0.00000     0.38904    0.00117     0.39021
      H   22    0.10499      0.00000     0.39383    0.00118     0.39501
      H   23    0.10689      0.00000     0.39227    0.00084     0.39311
      H   24    0.10469      0.00000     0.39430    0.00100     0.39531
      H   25    0.12197      0.00000     0.37653    0.00150     0.37803
      H   26    0.09100      0.00000     0.40733    0.00167     0.40900
      H   27    0.09456      0.00000     0.40416    0.00128     0.40544
      H   28    0.09150      0.00000     0.40730    0.00121     0.40850
      H   29    0.11702      0.00000     0.38179    0.00119     0.38298
      H   30    0.11757      0.00000     0.38061    0.00182     0.38243
      H   31    0.10811      0.00000     0.39084    0.00105     0.39189
      H   32    0.12813      0.00000     0.37076    0.00110     0.37187
      H   33    0.10428      0.00000     0.39478    0.00094     0.39572
 =======================================================================
   * Total *    0.00000     16.99485    47.78540    0.21975    65.00000

 Normal termination of Gaussian 16 at Mon Dec 14 18:09:08 2020.
