 Gaussian 16, Revision A.03,

 -----------------------------------------------------------
 # opt freq B3LYP/6-31G(d) empiricaldispersion=gd3bj scf=xqc
 -----------------------------------------------------------

 ------------------------------
 CID_51296320_JID_9671_neutraal
 ------------------------------
 Symbolic Z-matrix:
 Charge =  0 Multiplicity = 1

 SCF Done:  E(RB3LYP) =  -1148.14785008     A.U. after   15 cycles
 SCF Done:  E(RB3LYP) =  -1148.15267867     A.U. after   13 cycles
 SCF Done:  E(RB3LYP) =  -1148.15400913     A.U. after   13 cycles
 SCF Done:  E(RB3LYP) =  -1148.15480898     A.U. after   13 cycles
 SCF Done:  E(RB3LYP) =  -1148.15521633     A.U. after   12 cycles
 SCF Done:  E(RB3LYP) =  -1148.15539655     A.U. after   12 cycles
 SCF Done:  E(RB3LYP) =  -1148.15546660     A.U. after   11 cycles
 SCF Done:  E(RB3LYP) =  -1148.15548627     A.U. after   11 cycles
 SCF Done:  E(RB3LYP) =  -1148.15549899     A.U. after   10 cycles
 SCF Done:  E(RB3LYP) =  -1148.15550430     A.U. after   10 cycles
 SCF Done:  E(RB3LYP) =  -1148.15551315     A.U. after   10 cycles
 SCF Done:  E(RB3LYP) =  -1148.15551325     A.U. after    9 cycles
 SCF Done:  E(RB3LYP) =  -1148.15551326     A.U. after    8 cycles
 SCF Done:  E(RB3LYP) =  -1148.15551327     A.U. after    8 cycles
 SCF Done:  E(RB3LYP) =  -1148.15551327     A.U. after    7 cycles
 Optimization completed.
    -- Stationary point found.
 Normal termination of Gaussian 16 at Sun Dec 13 12:50:13 2020.

 --------------------------------------------------------------------
 #N Geom=AllCheck Guess=TCheck SCRF=Check GenChk RB3LYP/6-31G(d) Freq
 --------------------------------------------------------------------

 Structure from the checkpoint file:  "JID_9671.chk"
 ------------------------------
 CID_51296320_JID_9671_neutraal
 ------------------------------
 Charge =  0 Multiplicity = 1

 SCF Done:  E(RB3LYP) =  -1148.15551327     A.U. after    1 cycles

  Exact polarizability: 162.305 -18.228 192.415   2.338   2.136 177.194
 Approx polarizability: 217.605 -30.457 298.394  12.068   6.835 347.681

                      1                      2                      3
                      A                      A                      A
 Frequencies --     11.0416                21.7943                22.6411
 Red. masses --      5.8459                 1.3426                 2.4719
 Frc consts  --      0.0004                 0.0004                 0.0007
 IR Inten    --      0.5773                 0.2265                 0.2217

                      4                      5                      6
                      A                      A                      A
 Frequencies --     53.4693                61.2112                66.7286
 Red. masses --      4.2469                 4.7432                 3.3926
 Frc consts  --      0.0072                 0.0105                 0.0089
 IR Inten    --      0.0730                 1.7005                 0.0613

                      7                      8                      9
                      A                      A                      A
 Frequencies --     91.2918               110.6201               161.8764
 Red. masses --      4.6717                 4.3649                 3.4492
 Frc consts  --      0.0229                 0.0315                 0.0533
 IR Inten    --      0.5511                 0.5571                 0.6856

                     10                     11                     12
                      A                      A                      A
 Frequencies --    172.9597               179.1974               209.4430
 Red. masses --      5.0657                 4.9448                 5.1092
 Frc consts  --      0.0893                 0.0936                 0.1320
 IR Inten    --      0.9376                 0.8454                 4.5137

                     13                     14                     15
                      A                      A                      A
 Frequencies --    229.6413               306.5356               335.7340
 Red. masses --      4.7281                 3.6756                 3.5803
 Frc consts  --      0.1469                 0.2035                 0.2378
 IR Inten    --      0.4270                 0.2770                 0.3069

                     16                     17                     18
                      A                      A                      A
 Frequencies --    366.9000               377.0610               407.8874
 Red. masses --      3.3465                 4.2404                 4.2230
 Frc consts  --      0.2654                 0.3552                 0.4140
 IR Inten    --      2.5176                 4.9587                 0.1103

                     19                     20                     21
                      A                      A                      A
 Frequencies --    420.1694               433.2457               480.1489
 Red. masses --      3.0946                 4.8714                 4.5635
 Frc consts  --      0.3219                 0.5387                 0.6199
 IR Inten    --      0.0823                 0.9534                 1.2329

                     22                     23                     24
                      A                      A                      A
 Frequencies --    522.6733               559.1387               575.6043
 Red. masses --      3.9584                 3.9369                 3.2657
 Frc consts  --      0.6371                 0.7252                 0.6375
 IR Inten    --      5.2320                13.8330                 2.8710

                     25                     26                     27
                      A                      A                      A
 Frequencies --    596.6804               650.1567               662.8307
 Red. masses --      3.3294                 6.0450                 4.6480
 Frc consts  --      0.6984                 1.5055                 1.2031
 IR Inten    --     10.0480                13.3143                22.4005

                     28                     29                     30
                      A                      A                      A
 Frequencies --    681.3835               719.7005               724.6495
 Red. masses --      2.0201                 1.2178                 3.4813
 Frc consts  --      0.5526                 0.3716                 1.0771
 IR Inten    --     51.6129                50.6552                 6.1515

                     31                     32                     33
                      A                      A                      A
 Frequencies --    731.3806               761.1349               767.8086
 Red. masses --      3.6639                 6.1385                 2.9448
 Frc consts  --      1.1547                 2.0953                 1.0228
 IR Inten    --      7.3468                16.7830                 4.0536

                     34                     35                     36
                      A                      A                      A
 Frequencies --    779.4056               797.5575               824.6095
 Red. masses --      3.1389                 1.2306                 2.4284
 Frc consts  --      1.1235                 0.4612                 0.9729
 IR Inten    --     67.0505                 0.3382                 4.6374

                     37                     38                     39
                      A                      A                      A
 Frequencies --    841.8257               850.4541               852.0096
 Red. masses --      1.6034                 1.5348                 1.3772
 Frc consts  --      0.6695                 0.6540                 0.5890
 IR Inten    --     18.4408                16.2981                 4.2815

                     40                     41                     42
                      A                      A                      A
 Frequencies --    860.1556               873.3261               875.6696
 Red. masses --      1.2851                 2.7850                 3.4382
 Frc consts  --      0.5602                 1.2515                 1.5533
 IR Inten    --      4.9724                 2.2760                12.7520

                     43                     44                     45
                      A                      A                      A
 Frequencies --    914.1726               953.0462               958.5332
 Red. masses --      1.3401                 3.6034                 1.3093
 Frc consts  --      0.6599                 1.9284                 0.7088
 IR Inten    --      1.8705                 8.3645                 1.8248

                     46                     47                     48
                      A                      A                      A
 Frequencies --    973.3207              1016.2265              1021.6141
 Red. masses --      1.3419                 2.7149                 1.4990
 Frc consts  --      0.7490                 1.6519                 0.9218
 IR Inten    --      4.8902                 5.3495                 1.4976

                     49                     50                     51
                      A                      A                      A
 Frequencies --   1043.6167              1060.9517              1069.8330
 Red. masses --      2.9309                 2.2104                 1.3148
 Frc consts  --      1.8808                 1.4659                 0.8866
 IR Inten    --      2.4583                13.3053                 5.5198

                     52                     53                     54
                      A                      A                      A
 Frequencies --   1076.4993              1095.9403              1099.5185
 Red. masses --      1.5238                 1.5021                 1.9076
 Frc consts  --      1.0404                 1.0630                 1.3588
 IR Inten    --     11.4222                 4.5709                 5.6669

                     55                     56                     57
                      A                      A                      A
 Frequencies --   1118.4038              1133.9716              1143.3174
 Red. masses --      1.3461                 1.5834                 2.3498
 Frc consts  --      0.9921                 1.1996                 1.8097
 IR Inten    --      1.5903                 8.8063                40.2245

                     58                     59                     60
                      A                      A                      A
 Frequencies --   1156.5446              1161.4395              1215.2920
 Red. masses --      1.1120                 1.5588                 1.3924
 Frc consts  --      0.8764                 1.2389                 1.2117
 IR Inten    --      0.2761                 9.6653                 1.3860

                     61                     62                     63
                      A                      A                      A
 Frequencies --   1221.9899              1232.9633              1247.9006
 Red. masses --      1.1980                 2.2044                 2.9206
 Frc consts  --      1.0540                 1.9745                 2.6797
 IR Inten    --      6.1620                 8.9406                 3.4532

                     64                     65                     66
                      A                      A                      A
 Frequencies --   1259.6916              1264.8195              1324.7085
 Red. masses --      1.9469                 1.4776                 2.3024
 Frc consts  --      1.8202                 1.3927                 2.3805
 IR Inten    --      3.1163                 7.8008                 4.8115

                     67                     68                     69
                      A                      A                      A
 Frequencies --   1335.0134              1355.9623              1377.1673
 Red. masses --      1.3853                 2.0350                 3.4989
 Frc consts  --      1.4547                 2.2045                 3.9098
 IR Inten    --     14.5614                 3.9504               228.7976

                     70                     71                     72
                      A                      A                      A
 Frequencies --   1390.4244              1402.1116              1422.7840
 Red. masses --      2.0117                 2.5963                 1.5934
 Frc consts  --      2.2914                 3.0072                 1.9005
 IR Inten    --     48.0610                67.7221                20.0114

                     73                     74                     75
                      A                      A                      A
 Frequencies --   1443.1397              1460.6222              1468.4318
 Red. masses --      1.2481                 1.8356                 1.9265
 Frc consts  --      1.5315                 2.3073                 2.4476
 IR Inten    --      0.0086                36.0767                46.0969

                     76                     77                     78
                      A                      A                      A
 Frequencies --   1486.5599              1491.8896              1518.5831
 Red. masses --      3.3218                 1.1056                 1.0490
 Frc consts  --      4.3250                 1.4498                 1.4254
 IR Inten    --     39.5358                 4.7017                 5.4036

                     79                     80                     81
                      A                      A                      A
 Frequencies --   1522.8960              1536.5027              1568.0154
 Red. masses --      1.1089                 1.3859                 2.4918
 Frc consts  --      1.5153                 1.9278                 3.6096
 IR Inten    --     11.1704                11.3014                13.2651

                     82                     83                     84
                      A                      A                      A
 Frequencies --   1590.0808              1637.1161              1679.0825
 Red. masses --      5.2593                 5.6270                 5.8133
 Frc consts  --      7.8346                 8.8856                 9.6565
 IR Inten    --     28.5480                 0.3987                 2.6322

                     85                     86                     87
                      A                      A                      A
 Frequencies --   1748.1928              3041.9339              3070.3479
 Red. masses --      8.3026                 1.0410                 1.0836
 Frc consts  --     14.9500                 5.6753                 6.0186
 IR Inten    --    288.8535                33.2959                22.7415

                     88                     89                     90
                      A                      A                      A
 Frequencies --   3099.7814              3127.1451              3151.0056
 Red. masses --      1.0951                 1.1028                 1.0789
 Frc consts  --      6.1995                 6.3540                 6.3116
 IR Inten    --     19.3876                14.9491                18.9747

                     91                     92                     93
                      A                      A                      A
 Frequencies --   3154.9219              3158.5959              3171.2806
 Red. masses --      1.0514                 1.0672                 1.0866
 Frc consts  --      6.1661                 6.2728                 6.4385
 IR Inten    --     13.4003                14.8832                12.7060

                     94                     95                     96
                      A                      A                      A
 Frequencies --   3182.2084              3189.3433              3207.4482
 Red. masses --      1.0884                 1.0941                 1.0928
 Frc consts  --      6.4937                 6.5571                 6.6237
 IR Inten    --     15.6205                19.4795                 5.3636

                     97                     98                     99
                      A                      A                      A
 Frequencies --   3222.5311              3231.9298              3242.7458
 Red. masses --      1.0889                 1.1189                 1.0946
 Frc consts  --      6.6625                 6.8861                 6.7814
 IR Inten    --      8.3489                 0.6633                 5.3701

                    100                    101                    102
                      A                      A                      A
 Frequencies --   3243.2711              3268.2686              3565.3540
 Red. masses --      1.1160                 1.0970                 1.0751
 Frc consts  --      6.9162                 6.9040                 8.0520
 IR Inten    --     18.0105                 1.0935                27.2977

 - Thermochemistry -
 -------------------
 Temperature   298.150 Kelvin.  Pressure   1.00000 Atm.
 Atom     1 has atomic number  6 and mass  12.00000

 Molecular mass:   271.10309 amu.
 Principal axes and moments of inertia in atomic units:
                           1         2         3
     Eigenvalues --  4293.133745883.502458021.89684
           X            0.99971  -0.02076  -0.01207
           Y            0.02058   0.99968  -0.01470
           Z            0.01237   0.01444   0.99982
 This molecule is an asymmetric top.
 Rotational symmetry number  1.
 Warning -- assumption of classical behavior for rotation
           may cause significant error
 Rotational temperatures (Kelvin)      0.02017     0.01472     0.01080
 Rotational constants (GHZ):           0.42038     0.30675     0.22498
 Zero-point vibrational energy     774909.5 (Joules/Mol)
                                  185.20782 (Kcal/Mol)
 Warning -- explicit consideration of  25 degrees of freedom as
           vibrations may cause significant error
 Vibrational temperatures:     15.89    31.36    32.58    76.93    88.07
          (Kelvin)             96.01   131.35   159.16   232.90   248.85
                              257.83   301.34   330.40   441.04   483.05
                              527.89   542.51   586.86   604.53   623.34
                              690.83   752.01   804.48   828.17   858.49
                              935.43   953.67   980.36  1035.49  1042.61
                             1052.29  1095.10  1104.71  1121.39  1147.51
                             1186.43  1211.20  1223.61  1225.85  1237.57
                             1256.52  1259.89  1315.29  1371.22  1379.12
                             1400.39  1462.12  1469.87  1501.53  1526.47
                             1539.25  1548.84  1576.81  1581.96  1609.13
                             1631.53  1644.98  1664.01  1671.05  1748.53
                             1758.17  1773.96  1795.45  1812.42  1819.79
                             1905.96  1920.79  1950.93  1981.44  2000.51
                             2017.33  2047.07  2076.36  2101.51  2112.75
                             2138.83  2146.50  2184.90  2191.11  2210.68
                             2256.02  2287.77  2355.44  2415.83  2515.26
                             4376.66  4417.55  4459.89  4499.26  4533.59
                             4539.23  4544.52  4562.77  4578.49  4588.75
                             4614.80  4636.50  4650.03  4665.59  4666.34
                             4702.31  5129.75

 Zero-point correction=                           0.295147 (Hartree/Particle)
 Thermal correction to Energy=                    0.312982
 Thermal correction to Enthalpy=                  0.313926
 Thermal correction to Gibbs Free Energy=         0.245292
 Sum of electronic and zero-point Energies=          -1147.860366
 Sum of electronic and thermal Energies=             -1147.842532
 Sum of electronic and thermal Enthalpies=           -1147.841587
 Sum of electronic and thermal Free Energies=        -1147.910221

                     E (Thermal)             CV                S
                      KCal/Mol        Cal/Mol-Kelvin    Cal/Mol-Kelvin
 Total                  196.399             67.350            144.452
 Electronic               0.000              0.000              0.000
 Translational            0.889              2.981             42.691
 Rotational               0.889              2.981             33.671
 Vibrational            194.622             61.389             68.091
 Vibration     1          0.593              1.987              7.814
 Vibration     2          0.593              1.985              6.464
 Vibration     3          0.593              1.985              6.388
 Vibration     4          0.596              1.976              4.685
 Vibration     5          0.597              1.973              4.418
 Vibration     6          0.598              1.970              4.248
 Vibration     7          0.602              1.955              3.632
 Vibration     8          0.606              1.941              3.258
 Vibration     9          0.622              1.889              2.528
 Vibration    10          0.626              1.876              2.403
 Vibration    11          0.629              1.868              2.337
 Vibration    12          0.642              1.826              2.049
 Vibration    13          0.652              1.796              1.882
 Vibration    14          0.697              1.661              1.381
 Vibration    15          0.717              1.604              1.232
 Vibration    16          0.740              1.540              1.093
 Vibration    17          0.748              1.519              1.051
 Vibration    18          0.772              1.453              0.934
 Vibration    19          0.783              1.426              0.891
 Vibration    20          0.794              1.398              0.848
 Vibration    21          0.837              1.294              0.710
 Vibration    22          0.878              1.200              0.604
 Vibration    23          0.915              1.120              0.526
 Vibration    24          0.932              1.084              0.494
 Vibration    25          0.955              1.039              0.455

                           ! Non-Optimized Parameters !
 Normal termination of Gaussian 16 at Sun Dec 13 13:11:39 2020.

 ----------------------------------------------------------------------
 # B3LYP/6-311++G(d,p) empiricaldispersion=gd3bj scf=xqc pop=npa geom=c
 heck
 ----------------------------------------------------------------------

 --------------------------------------
 CID_51296320_JID_9671_Energie_neutraal
 --------------------------------------
 Structure from the checkpoint file:  "JID_9671.chk"
 Charge =  0 Multiplicity = 1

 SCF Done:  E(RB3LYP) =  -1148.38380763     A.U. after   16 cycles
 Normal termination of Gaussian 16 at Sun Dec 13 13:21:48 2020.

 ----------------------------------------------------------------------
 # B3LYP/6-311++G(d,p) empiricaldispersion=gd3bj scf=xqc pop=npa geom=c
 heck
 ----------------------------------------------------------------------

 ------------------------------------
 CID_51296320_JID_9671_Energie_kation
 ------------------------------------
 Structure from the checkpoint file:  "JID_9671.chk"
 Charge =  1 Multiplicity = 2

 SCF Done:  E(UB3LYP) =  -1148.08761278     A.U. after   31 cycles
 Normal termination of Gaussian 16 at Sun Dec 13 13:49:00 2020.
 Gaussian 16:  ES64L-G16RevA.03 25-Dec-2016

 ----------------------------------------------------------------------
 # B3LYP/6-311++G(d,p) empiricaldispersion=gd3bj scf=xqc pop=npa geom=c
 heck
 ----------------------------------------------------------------------

 -----------------------------------
 CID_51296320_JID_9671_Energie_anion
 -----------------------------------
 Structure from the checkpoint file:  "JID_9671.chk"
 Charge = -1 Multiplicity = 2

                         Standard orientation:
 ---------------------------------------------------------------------
 Center     Atomic      Atomic             Coordinates (Angstroms)
 Number     Number       Type             X           Y           Z
 ---------------------------------------------------------------------
      1          6           0       -1.774447   -4.209645    0.584043
      2          6           0       -1.523318   -2.750091    0.295005
      3          6           0       -1.300003   -1.837190    1.331852
      4          6           0       -1.088775   -0.484678    1.070929
      5          6           0       -1.091673   -0.003518   -0.242225
      6          6           0       -1.304252   -0.913594   -1.281593
      7          6           0       -1.518631   -2.264368   -1.017939
      8          6           0       -0.878335    1.467526   -0.561379
      9          6           0       -2.161298    2.295602   -0.571326
     10          6           0       -3.499668    1.710322   -0.927291
     11          6           0       -3.219536    2.130229    0.494579
     12          7           0        0.042014    2.138524    0.371739
     13          6           0        1.228903    1.626316    0.853459
     14          8           0        1.622883    1.900409    1.984987
     15          6           0        2.018333    0.747344   -0.036598
     16          6           0        2.117079    0.679482   -1.406897
     17          6           0        3.044741   -0.303702   -1.849900
     18          6           0        3.635845   -0.970428   -0.807213
     19         16           0        3.091571   -0.393517    0.727157
     20          1           0       -1.262540   -4.529886    1.497348
     21          1           0       -2.845388   -4.407991    0.724008
     22          1           0       -1.430939   -4.845339   -0.238665
     23          1           0       -1.280747   -2.190766    2.359809
     24          1           0       -0.887891    0.193235    1.894754
     25          1           0       -1.287683   -0.561390   -2.310483
     26          1           0       -1.670731   -2.954891   -1.844088
     27          1           0       -0.462861    1.528602   -1.572039
     28          1           0       -1.982025    3.315569   -0.906775
     29          1           0       -4.172672    2.316587   -1.526401
     30          1           0       -3.551029    0.644823   -1.128044
     31          1           0       -3.086799    1.336891    1.223970
     32          1           0       -3.700993    3.023729    0.880922
     33          1           0       -0.424402    2.679613    1.092396
     34          1           0        1.566025    1.328083   -2.076362
     35          1           0        3.262684   -0.504081   -2.892948
     36          1           0        4.365888   -1.767100   -0.859024
 ---------------------------------------------------------------------

 SCF Done:  E(UB3LYP) =  -1148.38480548     A.U. after   33 cycles
 SCF Done:  E(UB3LYP) =  -1148.38480548     a.u. after    1 cycles

 The electronic state is 2-A.
 Alpha  occ. eigenvalues --  -88.72234 -18.93709 -14.19511 -10.11872 -10.10583
 Alpha  occ. eigenvalues --  -10.08771 -10.07969 -10.07913 -10.07337 -10.07302
 Alpha  occ. eigenvalues --  -10.06523 -10.06036 -10.05815 -10.05719 -10.05708
 Alpha  occ. eigenvalues --  -10.04734 -10.04536 -10.03769 -10.02921  -7.80878
 Alpha  occ. eigenvalues --   -5.77168  -5.76803  -5.76504  -0.89192  -0.80070
 Alpha  occ. eigenvalues --   -0.75929  -0.74618  -0.73423  -0.67336  -0.63433
 Alpha  occ. eigenvalues --   -0.61532  -0.59498  -0.59183  -0.56657  -0.51393
 Alpha  occ. eigenvalues --   -0.49727  -0.49174  -0.47967  -0.45887  -0.42078
 Alpha  occ. eigenvalues --   -0.41444  -0.40628  -0.38804  -0.37968  -0.37339
 Alpha  occ. eigenvalues --   -0.35878  -0.34577  -0.32492  -0.32224  -0.31352
 Alpha  occ. eigenvalues --   -0.30878  -0.30294  -0.28458  -0.28053  -0.27667
 Alpha  occ. eigenvalues --   -0.27072  -0.26318  -0.25427  -0.24558  -0.23783
 Alpha  occ. eigenvalues --   -0.23349  -0.22935  -0.22376  -0.20831  -0.20145
 Alpha  occ. eigenvalues --   -0.19749  -0.14456  -0.14297  -0.12431  -0.11963
 Alpha  occ. eigenvalues --   -0.11081  -0.09939   0.04794
 Alpha virt. eigenvalues --    0.06568   0.06955   0.07915   0.08498   0.08934
 Alpha virt. eigenvalues --    0.09306   0.09575   0.09831   0.09966   0.10796
 Alpha virt. eigenvalues --    0.11084   0.11717   0.12006   0.12926   0.13021

  Beta  occ. eigenvalues --  -88.72177 -18.93480 -14.19480 -10.11674 -10.10571
  Beta  occ. eigenvalues --  -10.08771 -10.07966 -10.07905 -10.07333 -10.07304
  Beta  occ. eigenvalues --  -10.06526 -10.06001 -10.05807 -10.05644 -10.05631
  Beta  occ. eigenvalues --  -10.04436 -10.04393 -10.03858 -10.02745  -7.80827
  Beta  occ. eigenvalues --   -5.77141  -5.76777  -5.76319  -0.88783  -0.79945
  Beta  occ. eigenvalues --   -0.75874  -0.74528  -0.73138  -0.67280  -0.63301
  Beta  occ. eigenvalues --   -0.61429  -0.59148  -0.58804  -0.56570  -0.51348
  Beta  occ. eigenvalues --   -0.49603  -0.49048  -0.47545  -0.45837  -0.41874
  Beta  occ. eigenvalues --   -0.41395  -0.40391  -0.38694  -0.37887  -0.37203
  Beta  occ. eigenvalues --   -0.35811  -0.34498  -0.32460  -0.32170  -0.31209
  Beta  occ. eigenvalues --   -0.30796  -0.30061  -0.28361  -0.27734  -0.27566
  Beta  occ. eigenvalues --   -0.26828  -0.25925  -0.25246  -0.24331  -0.23456
  Beta  occ. eigenvalues --   -0.23236  -0.22789  -0.21714  -0.20809  -0.19935
  Beta  occ. eigenvalues --   -0.19612  -0.14071  -0.13834  -0.12097  -0.11488
  Beta  occ. eigenvalues --   -0.10284  -0.08607
  Beta virt. eigenvalues --    0.06522   0.06925   0.07963   0.08463   0.08805
  Beta virt. eigenvalues --    0.09185   0.09370   0.09753   0.09783   0.10703
  Beta virt. eigenvalues --    0.10915   0.11144   0.11677   0.11966   0.12779

 Mulliken charges and spin densities:
               1          2
     1  C   -0.184843  -0.447641
     2  C    0.366772   0.067089
     3  C   -0.840664   0.159568
     4  C   -0.505271   0.046513
     5  C    1.564993  -0.313184
     6  C   -0.310260  -0.077988
     7  C   -0.877257   0.210449
     8  C    0.592442  -0.276661
     9  C   -0.673470   0.275578
    10  C   -0.259106  -0.186921
    11  C   -0.222317  -0.085102
    12  N   -0.117660  -0.001860
    13  C   -0.945526   0.135583
    14  O   -0.341391   0.080734
    15  C    0.701640  -0.101937
    16  C    0.063762   0.383046
    17  C   -0.481864  -0.145955
    18  C   -0.178849   0.231108
    19  S   -0.125004   0.075005
    20  H    0.040121   0.098132
    21  H    0.145911   0.007130
    22  H    0.088297   0.044855
    23  H    0.091856   0.056770
    24  H    0.124529   0.095743
    25  H   -0.082219   0.242842
    26  H   -0.079477   0.233905
    27  H    0.090964   0.070094
    28  H    0.188005   0.028369
    29  H    0.066910   0.071703
    30  H    0.165274  -0.019585
    31  H    0.151597  -0.008183
    32  H    0.083451   0.059787
    33  H    0.291853  -0.008518
    34  H    0.130623  -0.017119
    35  H    0.083092   0.026776
    36  H    0.193088  -0.010125
 Sum of Mulliken charges =  -1.00000   1.00000

 Dipole moment (field-independent basis, Debye):
    X=             -5.6779    Y=             -1.0128    Z=             -2.0714  Tot=              6.1282
 Quadrupole moment (field-independent basis, Debye-Ang):
   XX=           -163.0259   YY=           -144.7969   ZZ=           -143.1061
   XY=            -10.2290   XZ=             -7.5880   YZ=             -7.8173

 Summary of Natural Population Analysis:

                                       Natural Population
                Natural  -----------------------------------------------
    Atom  No    Charge         Core      Valence    Rydberg      Total
 -----------------------------------------------------------------------
      C    1   -0.28990      0.99964     2.28537    0.00490     3.28990
      C    2   -0.02359      0.99952     2.01635    0.00773     3.02359
      C    3   -0.08492      0.99952     2.07734    0.00806     3.08492
      C    4   -0.09907      0.99951     2.08984    0.00972     3.09907
      C    5   -0.02148      0.99949     2.00957    0.01243     3.02148
      C    6   -0.08300      0.99951     2.07347    0.01002     3.08300
      C    7   -0.09730      0.99952     2.08793    0.00985     3.09730
      C    8   -0.01345      0.99953     2.00014    0.01378     3.01345
      C    9   -0.11129      0.99958     2.09903    0.01267     3.11129
      C   10   -0.19916      0.99962     2.19306    0.00648     3.19916
      C   11   -0.20402      0.99962     2.19762    0.00678     3.20402
      N   12   -0.32617      0.99967     2.81601    0.01049     3.82617
      C   13    0.35177      0.99958     1.62644    0.02220     2.64823
      O   14   -0.30730      0.99988     3.30242    0.00500     4.30730
      C   15   -0.12694      0.99945     2.11352    0.01397     3.12694
      C   16   -0.08881      0.99949     2.07800    0.01132     3.08881
      C   17   -0.15906      0.99954     2.14951    0.01001     3.15906
      C   18   -0.14393      0.99956     2.13358    0.01079     3.14393
      S   19    0.23702      4.99942     2.74109    0.02247     7.76298
      H   20    0.10097      0.00000     0.39798    0.00106     0.39903
      H   21    0.09857      0.00000     0.40016    0.00127     0.40143
      H   22    0.09992      0.00000     0.39906    0.00102     0.40008
      H   23    0.09399      0.00000     0.40460    0.00141     0.40601
      H   24    0.10688      0.00000     0.39120    0.00192     0.39312
      H   25    0.09750      0.00000     0.40083    0.00167     0.40250
      H   26    0.09475      0.00000     0.40426    0.00099     0.40525
      H   27    0.10135      0.00000     0.39692    0.00172     0.39865
      H   28    0.10424      0.00000     0.39483    0.00093     0.39576
      H   29    0.09768      0.00000     0.40143    0.00089     0.40232
      H   30    0.11043      0.00000     0.38861    0.00096     0.38957
      H   31    0.10917      0.00000     0.38979    0.00104     0.39083
      H   32    0.09826      0.00000     0.40081    0.00093     0.40174
      H   33    0.18624      0.00000     0.31154    0.00223     0.31376
      H   34    0.09736      0.00000     0.40134    0.00129     0.40264
      H   35    0.09720      0.00000     0.40169    0.00111     0.40280
      H   36    0.09610      0.00000     0.40303    0.00087     0.40390
 =======================================================================
   * Total *   -0.00000     22.99163    48.77836    0.23002    72.00000

 Normal termination of Gaussian 16 at Sun Dec 13 14:18:06 2020.
