 Gaussian 16, Revision A.03,

 -----------------------------------------------------------
 # opt freq B3LYP/6-31G(d) empiricaldispersion=gd3bj scf=xqc
 -----------------------------------------------------------

 ------------------------------
 CID_118210602_JID_519_neutraal
 ------------------------------
 Symbolic Z-matrix:
 Charge =  0 Multiplicity = 1

 SCF Done:  E(RB3LYP) =  -786.616901116     A.U. after   13 cycles
 SCF Done:  E(RB3LYP) =  -786.634021583     A.U. after   11 cycles
 SCF Done:  E(RB3LYP) =  -786.637275402     A.U. after   11 cycles
 SCF Done:  E(RB3LYP) =  -786.637574189     A.U. after   10 cycles
 SCF Done:  E(RB3LYP) =  -786.637639898     A.U. after   10 cycles
 SCF Done:  E(RB3LYP) =  -786.637656268     A.U. after    8 cycles
 SCF Done:  E(RB3LYP) =  -786.637659145     A.U. after    8 cycles
 SCF Done:  E(RB3LYP) =  -786.637660879     A.U. after    7 cycles
 SCF Done:  E(RB3LYP) =  -786.637661926     A.U. after    8 cycles
 SCF Done:  E(RB3LYP) =  -786.637662114     A.U. after    7 cycles
 Optimization completed.
    -- Stationary point found.
 Normal termination of Gaussian 16 at Tue Dec  8 12:51:29 2020.

 --------------------------------------------------------------------
 #N Geom=AllCheck Guess=TCheck SCRF=Check GenChk RB3LYP/6-31G(d) Freq
 --------------------------------------------------------------------

 Structure from the checkpoint file:  "JID_519.chk"
 ------------------------------
 CID_118210602_JID_519_neutraal
 ------------------------------
 Charge =  0 Multiplicity = 1

 SCF Done:  E(RB3LYP) =  -786.637662114     A.U. after    1 cycles

  Exact polarizability: 102.976  -1.460 101.498   2.688  -0.921  90.992
 Approx polarizability: 151.440  -1.230 149.914   1.757  -4.470 134.003

                      1                      2                      3
                      A                      A                      A
 Frequencies --     79.7758               180.7538               186.4903
 Red. masses --      2.6077                 2.5517                 2.6377
 Frc consts  --      0.0098                 0.0491                 0.0540
 IR Inten    --      2.8841                 1.0501                 2.6497

                      4                      5                      6
                      A                      A                      A
 Frequencies --    229.4607               266.9141               319.4545
 Red. masses --      2.8595                 2.8671                 2.5491
 Frc consts  --      0.0887                 0.1203                 0.1533
 IR Inten    --      0.3079                 2.9025                 0.8179

                      7                      8                      9
                      A                      A                      A
 Frequencies --    339.2685               378.0069               421.9843
 Red. masses --      2.4369                 3.5458                 3.3908
 Frc consts  --      0.1653                 0.2985                 0.3558
 IR Inten    --      0.7544                 3.4658                 1.3590

                     10                     11                     12
                      A                      A                      A
 Frequencies --    496.7303               515.3258               539.1375
 Red. masses --      3.3250                 3.9517                 3.4066
 Frc consts  --      0.4834                 0.6183                 0.5834
 IR Inten    --      0.1543                 4.3136                 3.7540

                     13                     14                     15
                      A                      A                      A
 Frequencies --    603.2187               638.6330               717.9973
 Red. masses --      4.1145                 3.0883                 2.5177
 Frc consts  --      0.8821                 0.7421                 0.7647
 IR Inten    --      0.5383                 6.9103                 0.8639

                     16                     17                     18
                      A                      A                      A
 Frequencies --    722.3363               766.9724               818.2354
 Red. masses --      1.8478                 2.8209                 1.9654
 Frc consts  --      0.5681                 0.9777                 0.7753
 IR Inten    --      1.9704                 3.6488                 7.8791

                     19                     20                     21
                      A                      A                      A
 Frequencies --    862.4854               886.0058               899.9348
 Red. masses --      3.0388                 2.5377                 2.5634
 Frc consts  --      1.3319                 1.1737                 1.2232
 IR Inten    --      7.1468                27.8467                 1.8803

                     22                     23                     24
                      A                      A                      A
 Frequencies --    931.1629               962.8480               971.8867
 Red. masses --      2.1683                 2.4624                 2.3957
 Frc consts  --      1.1077                 1.3450                 1.3332
 IR Inten    --     10.4946                 6.6798                 5.8061

                     25                     26                     27
                      A                      A                      A
 Frequencies --    986.5562              1021.0584              1051.0055
 Red. masses --      2.4813                 1.8799                 2.7801
 Frc consts  --      1.4229                 1.1547                 1.8093
 IR Inten    --      0.0667                13.2830                22.1127

                     28                     29                     30
                      A                      A                      A
 Frequencies --   1073.3484              1131.9556              1151.5428
 Red. masses --      2.9166                 2.0924                 2.7350
 Frc consts  --      1.9797                 1.5796                 2.1368
 IR Inten    --     76.4582                 4.0161                 6.9827

                     31                     32                     33
                      A                      A                      A
 Frequencies --   1194.0536              1221.5048              1230.5090
 Red. masses --      1.2637                 1.2829                 1.1732
 Frc consts  --      1.0615                 1.1278                 1.0467
 IR Inten    --     14.6580                 1.3203                 2.3985

                     34                     35                     36
                      A                      A                      A
 Frequencies --   1254.1198              1268.1549              1279.6515
 Red. masses --      1.3186                 1.2756                 1.2242
 Frc consts  --      1.2219                 1.2086                 1.1811
 IR Inten    --     18.2361                12.2509                 1.6436

                     37                     38                     39
                      A                      A                      A
 Frequencies --   1304.5234              1339.6828              1343.8871
 Red. masses --      1.2001                 1.3282                 1.2115
 Frc consts  --      1.2033                 1.4045                 1.2892
 IR Inten    --      7.8034                 9.0876                 9.6336

                     40                     41                     42
                      A                      A                      A
 Frequencies --   1350.7286              1363.0127              1381.4386
 Red. masses --      1.2664                 1.3039                 1.2814
 Frc consts  --      1.3613                 1.4272                 1.4408
 IR Inten    --      0.7747                 4.6681                 1.0267

                     43                     44                     45
                      A                      A                      A
 Frequencies --   1398.3365              1418.2525              1449.4673
 Red. masses --      1.1757                 1.2363                 1.0965
 Frc consts  --      1.3545                 1.4651                 1.3573
 IR Inten    --      3.1887                 6.0044                 4.2605

                     46                     47                     48
                      A                      A                      A
 Frequencies --   1488.9096              1500.8492              1503.3667
 Red. masses --      1.0829                 1.0917                 1.0804
 Frc consts  --      1.4145                 1.4488                 1.4387
 IR Inten    --      1.4754                 3.2173                 4.5132

                     49                     50                     51
                      A                      A                      A
 Frequencies --   1506.2029              1529.1351              1535.5043
 Red. masses --      1.0786                 1.0938                 1.0804
 Frc consts  --      1.4417                 1.5069                 1.5008
 IR Inten    --      0.2080                 7.4043                 1.6678

                     52                     53                     54
                      A                      A                      A
 Frequencies --   1591.0414              3017.5237              3044.3464
 Red. masses --      1.0545                 1.0703                 1.0650
 Frc consts  --      1.5728                 5.7419                 5.8153
 IR Inten    --      1.4552                45.4475                 6.4877

                     55                     56                     57
                      A                      A                      A
 Frequencies --   3050.9808              3062.1657              3066.6891
 Red. masses --      1.0662                 1.0616                 1.0755
 Frc consts  --      5.8477                 5.8652                 5.9592
 IR Inten    --      5.4003                21.6624                87.5927

                     58                     59                     60
                      A                      A                      A
 Frequencies --   3073.8527              3075.3116              3095.4886
 Red. masses --      1.0633                 1.0671                 1.1000
 Frc consts  --      5.9192                 5.9461                 6.2102
 IR Inten    --     36.9693                29.0042                29.0234

                     61                     62                     63
                      A                      A                      A
 Frequencies --   3101.0341              3107.9667              3115.1183
 Red. masses --      1.1010                 1.0942                 1.1053
 Frc consts  --      6.2382                 6.2272                 6.3192
 IR Inten    --      6.8375                52.2530                23.2895

                     64                     65                     66
                      A                      A                      A
 Frequencies --   3127.1172              3128.1385              3577.0261
 Red. masses --      1.1076                 1.1030                 1.0719
 Frc consts  --      6.3814                 6.3590                 8.0807
 IR Inten    --      9.1294                33.0302                 9.5205

 - Thermochemistry -
 -------------------
 Temperature   298.150 Kelvin.  Pressure   1.00000 Atm.
 Atom     1 has atomic number  6 and mass  12.00000

 Molecular mass:   158.07654 amu.
 Principal axes and moments of inertia in atomic units:
                           1         2         3
     Eigenvalues --  1218.672471617.050091744.85185
           X            0.99702  -0.06420   0.04282
           Y            0.06254   0.99728   0.03896
           Z           -0.04520  -0.03617   0.99832
 This molecule is an asymmetric top.
 Rotational symmetry number  1.
 Warning -- assumption of classical behavior for rotation
           may cause significant error
 Rotational temperatures (Kelvin)      0.07107     0.05356     0.04964
 Rotational constants (GHZ):           1.48091     1.11607     1.03432
 Zero-point vibrational energy     563713.7 (Joules/Mol)
                                  134.73082 (Kcal/Mol)
 Warning -- explicit consideration of  13 degrees of freedom as
           vibrations may cause significant error
 Vibrational temperatures:    114.78   260.06   268.32   330.14   384.03
          (Kelvin)            459.62   488.13   543.87   607.14   714.68
                              741.44   775.70   867.90   918.85  1033.04
                             1039.28  1103.50  1177.26  1240.92  1274.76
                             1294.81  1339.74  1385.32  1398.33  1419.43
                             1469.08  1512.16  1544.31  1628.63  1656.81
                             1717.98  1757.47  1770.43  1804.40  1824.59
                             1841.13  1876.92  1927.50  1933.55  1943.40
                             1961.07  1987.58  2011.89  2040.55  2085.46
                             2142.21  2159.39  2163.01  2167.09  2200.08
                             2209.25  2289.15  4341.54  4380.14  4389.68
                             4405.77  4412.28  4422.59  4424.69  4453.72
                             4461.70  4471.67  4481.96  4499.22  4500.69
                             5146.54

 Zero-point correction=                           0.214707 (Hartree/Particle)
 Thermal correction to Energy=                    0.223833
 Thermal correction to Enthalpy=                  0.224777
 Thermal correction to Gibbs Free Energy=         0.180820
 Sum of electronic and zero-point Energies=           -786.422955
 Sum of electronic and thermal Energies=              -786.413829
 Sum of electronic and thermal Enthalpies=            -786.412885
 Sum of electronic and thermal Free Energies=         -786.456842

                     E (Thermal)             CV                S
                      KCal/Mol        Cal/Mol-Kelvin    Cal/Mol-Kelvin
 Total                  140.458             37.229             92.517
 Electronic               0.000              0.000              0.000
 Translational            0.889              2.981             41.083
 Rotational               0.889              2.981             29.621
 Vibrational            138.680             31.267             21.813
 Vibration     1          0.600              1.963              3.896
 Vibration     2          0.630              1.866              2.321
 Vibration     3          0.632              1.858              2.262
 Vibration     4          0.652              1.796              1.883
 Vibration     5          0.672              1.734              1.616
 Vibration     6          0.705              1.636              1.313
 Vibration     7          0.719              1.597              1.216
 Vibration     8          0.748              1.517              1.047
 Vibration     9          0.784              1.422              0.885
 Vibration    10          0.852              1.257              0.666
 Vibration    11          0.870              1.216              0.621
 Vibration    12          0.894              1.164              0.567
 Vibration    13          0.962              1.025              0.444

                           ! Non-Optimized Parameters !
 Normal termination of Gaussian 16 at Tue Dec  8 13:08:24 2020.

 ----------------------------------------------------------------------
 # B3LYP/6-311++G(d,p) empiricaldispersion=gd3bj scf=xqc pop=npa geom=c
 heck
 ----------------------------------------------------------------------

 --------------------------------------
 CID_118210602_JID_519_Energie_neutraal
 --------------------------------------
 Structure from the checkpoint file:  "JID_519.chk"
 Charge =  0 Multiplicity = 1

 SCF Done:  E(RB3LYP) =  -786.774090552     A.U. after   14 cycles
 Normal termination of Gaussian 16 at Tue Dec  8 13:16:58 2020.

 ----------------------------------------------------------------------
 # B3LYP/6-311++G(d,p) empiricaldispersion=gd3bj scf=xqc pop=npa geom=c
 heck
 ----------------------------------------------------------------------

 ------------------------------------
 CID_118210602_JID_519_Energie_kation
 ------------------------------------
 Structure from the checkpoint file:  "JID_519.chk"
 Charge =  1 Multiplicity = 2

 SCF Done:  E(UB3LYP) =  -786.467691142     A.U. after   22 cycles
 Normal termination of Gaussian 16 at Tue Dec  8 13:32:01 2020.
 Gaussian 16:  ES64L-G16RevA.03 25-Dec-2016

 ----------------------------------------------------------------------
 # B3LYP/6-311++G(d,p) empiricaldispersion=gd3bj scf=xqc pop=npa geom=c
 heck
 ----------------------------------------------------------------------

 -----------------------------------
 CID_118210602_JID_519_Energie_anion
 -----------------------------------
 Structure from the checkpoint file:  "JID_519.chk"
 Charge = -1 Multiplicity = 2

                         Standard orientation:
 ---------------------------------------------------------------------
 Center     Atomic      Atomic             Coordinates (Angstroms)
 Number     Number       Type             X           Y           Z
 ---------------------------------------------------------------------
      1          6           0        1.323883    0.614386    1.462331
      2          6           0        0.239850   -0.447592    1.837063
      3          6           0       -0.343792   -0.897303    0.494638
      4          6           0        0.488240   -1.897860   -0.321429
      5          6           0        1.151049   -1.009303   -1.406857
      6          8           0        1.769179    0.214836   -0.951736
      7          6           0        1.198836    1.150282    0.004166
      8          6           0       -0.204721    1.834251   -0.344946
      9          6           0       -1.491392    1.084584   -0.847960
     10         16           0       -2.081131   -0.424680    0.112914
     11          1           0        2.329467    0.187482    1.534569
     12          1           0        1.291075    1.466419    2.152619
     13          1           0        0.670479   -1.270610    2.417385
     14          1           0       -0.541388    0.008566    2.449631
     15          1           0       -0.063454   -0.060998   -0.063548
     16          1           0        1.243161   -2.376303    0.313066
     17          1           0       -0.096210   -2.689154   -0.801721
     18          1           0        0.382137   -0.768235   -2.155358
     19          1           0        1.964923   -1.528053   -1.921966
     20          1           0        1.912755    1.978547   -0.068239
     21          1           0        0.000128    2.565360   -1.135924
     22          1           0       -0.466818    2.404266    0.555017
     23          1           0       -1.335654    0.768270   -1.883506
     24          1           0       -2.317658    1.801974   -0.846796
 ---------------------------------------------------------------------

 SCF Done:  E(UB3LYP) =  -786.757721825     A.U. after   33 cycles
 SCF Done:  E(UB3LYP) =  -786.757721825     a.u. after    1 cycles

 The electronic state is 2-A.
 Alpha  occ. eigenvalues --  -88.73690 -19.01780 -10.13034 -10.11709 -10.10005
 Alpha  occ. eigenvalues --  -10.08004 -10.07958 -10.07573 -10.06827 -10.06390
 Alpha  occ. eigenvalues --   -7.82202  -5.78565  -5.78285  -5.77570  -0.91870
 Alpha  occ. eigenvalues --   -0.74492  -0.69102  -0.66938  -0.61720  -0.57547
 Alpha  occ. eigenvalues --   -0.54723  -0.51463  -0.47305  -0.44070  -0.38368
 Alpha  occ. eigenvalues --   -0.38006  -0.35713  -0.35287  -0.34384  -0.32175
 Alpha  occ. eigenvalues --   -0.31025  -0.29986  -0.28865  -0.27397  -0.26581
 Alpha  occ. eigenvalues --   -0.24780  -0.23141  -0.22791  -0.22244  -0.19276
 Alpha  occ. eigenvalues --   -0.17194  -0.15379  -0.12423   0.04719
 Alpha virt. eigenvalues --    0.06907   0.07522   0.08379   0.09161   0.09683
 Alpha virt. eigenvalues --    0.09899   0.10851   0.11090   0.12135   0.12375
 Alpha virt. eigenvalues --    0.12745   0.13285   0.13594   0.14771   0.15726

  Beta  occ. eigenvalues --  -88.73688 -19.01777 -10.13024 -10.11689 -10.09982
  Beta  occ. eigenvalues --  -10.07966 -10.07945 -10.07554 -10.06813 -10.06367
  Beta  occ. eigenvalues --   -7.82199  -5.78564  -5.78281  -5.77568  -0.91857
  Beta  occ. eigenvalues --   -0.74462  -0.69059  -0.66897  -0.61677  -0.57500
  Beta  occ. eigenvalues --   -0.54673  -0.51397  -0.47248  -0.44010  -0.38338
  Beta  occ. eigenvalues --   -0.37948  -0.35679  -0.35256  -0.34350  -0.32125
  Beta  occ. eigenvalues --   -0.30969  -0.29955  -0.28826  -0.27358  -0.26542
  Beta  occ. eigenvalues --   -0.24727  -0.23108  -0.22757  -0.22197  -0.19250
  Beta  occ. eigenvalues --   -0.17146  -0.15354  -0.12411
  Beta virt. eigenvalues --    0.07123   0.08058   0.08284   0.08954   0.09562
  Beta virt. eigenvalues --    0.10308   0.10623   0.11209   0.11373   0.12604
  Beta virt. eigenvalues --    0.12892   0.13482   0.13673   0.14136   0.15010

 Mulliken charges and spin densities:
               1          2
     1  C    0.651838  -0.963872
     2  C   -2.202010   1.572911
     3  C   -0.425478   1.592197
     4  C   -0.155967  -0.413834
     5  C   -1.431173   1.333146
     6  O   -0.092433  -0.052155
     7  C   -2.423876   2.481252
     8  C    0.093825  -0.455889
     9  C   -1.172696   0.820141
    10  S   -1.432937   1.528640
    11  H    0.055927   0.119208
    12  H   -0.497628   0.634570
    13  H   -0.525441   0.683511
    14  H    0.002525   0.148549
    15  H   12.671615 -13.966969
    16  H   -0.243518   0.407602
    17  H   -0.156095   0.298691
    18  H   -0.255402   0.449267
    19  H   -0.743352   0.942987
    20  H   -0.650697   0.926772
    21  H   -1.068229   1.272014
    22  H   -0.249565   0.425694
    23  H   -0.056690   0.266004
    24  H   -0.692544   0.949562
 Sum of Mulliken charges =  -1.00000   1.00000

 Dipole moment (field-independent basis, Debye):
    X=             -2.0467    Y=             -4.2556    Z=              0.8845  Tot=              4.8043
 Quadrupole moment (field-independent basis, Debye-Ang):
   XX=           -113.8011   YY=           -125.4670   ZZ=           -109.8740
   XY=              2.4891   XZ=              0.2741   YZ=              1.6349

 Summary of Natural Population Analysis:

                                       Natural Population
                Natural  -----------------------------------------------
    Atom  No    Charge         Core      Valence    Rydberg      Total
 -----------------------------------------------------------------------
      C    1   -0.20054      0.99959     2.19268    0.00826     3.20054
      C    2   -0.19515      0.99958     2.18502    0.01054     3.19515
      C    3   -0.22423      0.99928     2.21266    0.01229     3.22423
      C    4   -0.20312      0.99958     2.19331    0.01023     3.20312
      C    5   -0.00651      0.99955     1.99474    0.01222     3.00651
      O    6   -0.31337      0.99988     3.30362    0.00987     4.31337
      C    7    0.04887      0.99952     1.93432    0.01730     2.95113
      C    8   -0.21260      0.99958     2.20242    0.01060     3.21260
      C    9   -0.24898      0.99956     2.23818    0.01124     3.24898
      S   10    0.08334      4.99962     2.90188    0.01516     7.91666
      H   11    0.10355      0.00000     0.39490    0.00155     0.39645
      H   12    0.10298      0.00000     0.39541    0.00161     0.39702
      H   13    0.09914      0.00000     0.39977    0.00109     0.40086
      H   14    0.10577      0.00000     0.39269    0.00155     0.39423
      H   15    0.15284      0.00000     0.33872    0.00844     0.34716
      H   16    0.10059      0.00000     0.39811    0.00130     0.39941
      H   17    0.10622      0.00000     0.39246    0.00132     0.39378
      H   18    0.07825      0.00000     0.42003    0.00171     0.42175
      H   19    0.09256      0.00000     0.40607    0.00137     0.40744
      H   20    0.10468      0.00000     0.39290    0.00242     0.39532
      H   21    0.11354      0.00000     0.38279    0.00367     0.38646
      H   22    0.10666      0.00000     0.39098    0.00236     0.39334
      H   23    0.09726      0.00000     0.40090    0.00184     0.40274
      H   24    0.10823      0.00000     0.39041    0.00135     0.39177
 =======================================================================
   * Total *    0.00000     13.99574    28.85495    0.14931    43.00000

 Normal termination of Gaussian 16 at Tue Dec  8 13:45:54 2020.
