 Gaussian 16, Revision A.03,

 -----------------------------------------------------------
 # opt freq B3LYP/6-31G(d) empiricaldispersion=gd3bj scf=xqc
 -----------------------------------------------------------

 ------------------------------
 CID_76872417_JID_8502_neutraal
 ------------------------------
 Symbolic Z-matrix:
 Charge =  0 Multiplicity = 1

 SCF Done:  E(RB3LYP) =  -1156.74482639     A.U. after   15 cycles
 SCF Done:  E(RB3LYP) =  -1156.75831652     A.U. after   13 cycles
 SCF Done:  E(RB3LYP) =  -1156.76296633     A.U. after   13 cycles
 SCF Done:  E(RB3LYP) =  -1156.76640364     A.U. after   13 cycles
 SCF Done:  E(RB3LYP) =  -1156.76702780     A.U. after   12 cycles
 SCF Done:  E(RB3LYP) =  -1156.76720959     A.U. after   12 cycles
 SCF Done:  E(RB3LYP) =  -1156.76726023     A.U. after   11 cycles
 SCF Done:  E(RB3LYP) =  -1156.76728284     A.U. after   10 cycles
 SCF Done:  E(RB3LYP) =  -1156.76729190     A.U. after   10 cycles
 SCF Done:  E(RB3LYP) =  -1156.76729936     A.U. after   10 cycles
 SCF Done:  E(RB3LYP) =  -1156.76768196     A.U. after   12 cycles
 SCF Done:  E(RB3LYP) =  -1156.76769093     A.U. after   10 cycles
 SCF Done:  E(RB3LYP) =  -1156.76769289     A.U. after    8 cycles
 SCF Done:  E(RB3LYP) =  -1156.76769357     A.U. after    8 cycles
 SCF Done:  E(RB3LYP) =  -1156.76769365     A.U. after    7 cycles
 SCF Done:  E(RB3LYP) =  -1156.76769367     A.U. after    7 cycles
 Optimization completed.
    -- Stationary point found.
 Normal termination of Gaussian 16 at Fri Dec 11 21:22:26 2020.

 --------------------------------------------------------------------
 #N Geom=AllCheck Guess=TCheck SCRF=Check GenChk RB3LYP/6-31G(d) Freq
 --------------------------------------------------------------------

 Structure from the checkpoint file:  "JID_8502.chk"
 ------------------------------
 CID_76872417_JID_8502_neutraal
 ------------------------------
 Charge =  0 Multiplicity = 1

 SCF Done:  E(RB3LYP) =  -1156.76769367     A.U. after    1 cycles

  Exact polarizability: 297.957  26.010 209.672   6.255  -2.585  98.254
 Approx polarizability: 420.222  64.338 330.846   9.790  -6.370 157.351

                      1                      2                      3
                      A                      A                      A
 Frequencies --     30.8361                38.2874                47.3619
 Red. masses --      3.8092                 3.4535                 3.9184
 Frc consts  --      0.0021                 0.0030                 0.0052
 IR Inten    --      1.5745                 0.3309                 1.5662

                      4                      5                      6
                      A                      A                      A
 Frequencies --     57.6704                60.9539                67.0048
 Red. masses --      3.8757                 2.1314                 1.4768
 Frc consts  --      0.0076                 0.0047                 0.0039
 IR Inten    --      1.0372                 0.2883                 0.2773

                      7                      8                      9
                      A                      A                      A
 Frequencies --    117.4202               128.4761               189.2470
 Red. masses --      6.4615                 5.1228                 4.0715
 Frc consts  --      0.0525                 0.0498                 0.0859
 IR Inten    --      0.6369                 0.0555                 6.0046

                     10                     11                     12
                      A                      A                      A
 Frequencies --    206.4422               213.6681               232.7010
 Red. masses --      3.2606                 3.8925                 2.3165
 Frc consts  --      0.0819                 0.1047                 0.0739
 IR Inten    --      2.1722                 7.8321                 0.8282

                     13                     14                     15
                      A                      A                      A
 Frequencies --    239.1748               252.9808               294.9884
 Red. masses --      3.8903                 2.9451                 5.1727
 Frc consts  --      0.1311                 0.1111                 0.2652
 IR Inten    --      1.0256                14.8174                 4.8504

                     16                     17                     18
                      A                      A                      A
 Frequencies --    325.7767               356.9696               376.1377
 Red. masses --      5.4830                 3.5178                 1.7271
 Frc consts  --      0.3429                 0.2641                 0.1440
 IR Inten    --      1.5957                 2.9121                 6.1274

                     19                     20                     21
                      A                      A                      A
 Frequencies --    408.2824               437.8266               454.2800
 Red. masses --      1.1046                 3.5890                 2.0978
 Frc consts  --      0.1085                 0.4053                 0.2551
 IR Inten    --     80.8275                 6.9152                59.0980

                     22                     23                     24
                      A                      A                      A
 Frequencies --    463.5513               474.6209               487.5076
 Red. masses --      1.4975                 2.9251                 2.9286
 Frc consts  --      0.1896                 0.3882                 0.4101
 IR Inten    --     89.2129                 7.6317                 0.4180

                     25                     26                     27
                      A                      A                      A
 Frequencies --    535.8264               551.8388               579.7857
 Red. masses --      3.2277                 4.4182                 4.3857
 Frc consts  --      0.5460                 0.7927                 0.8686
 IR Inten    --      1.2259                15.3959                29.0595

                     28                     29                     30
                      A                      A                      A
 Frequencies --    612.0134               622.6573               638.0224
 Red. masses --      2.6630                 5.0959                 3.1871
 Frc consts  --      0.5877                 1.1640                 0.7644
 IR Inten    --     44.9391                 4.4414               119.0939

                     31                     32                     33
                      A                      A                      A
 Frequencies --    660.2436               683.0104               716.4374
 Red. masses --      6.0391                 4.0473                 7.0770
 Frc consts  --      1.5511                 1.1124                 2.1402
 IR Inten    --     12.1202                18.0437                28.8364

                     34                     35                     36
                      A                      A                      A
 Frequencies --    737.0734               752.4081               803.6422
 Red. masses --      1.4325                 4.9924                 2.0049
 Frc consts  --      0.4585                 1.6652                 0.7629
 IR Inten    --    476.2279                39.9962               266.9054

                     37                     38                     39
                      A                      A                      A
 Frequencies --    825.6353               840.0864               872.4230
 Red. masses --      1.4896                 3.5148                 1.3871
 Frc consts  --      0.5983                 1.4615                 0.6220
 IR Inten    --      0.4362                 8.8581                20.2552

                     40                     41                     42
                      A                      A                      A
 Frequencies --    902.2214               905.8322               932.4527
 Red. masses --      3.0700                 1.3343                 2.4833
 Frc consts  --      1.4724                 0.6450                 1.2721
 IR Inten    --     26.4928                 3.6087                11.6865

                     43                     44                     45
                      A                      A                      A
 Frequencies --    970.6781               981.0328              1014.5030
 Red. masses --      4.6968                 1.3012                 2.9043
 Frc consts  --      2.6074                 0.7378                 1.7611
 IR Inten    --     25.9118                 1.1658                11.0749

                     46                     47                     48
                      A                      A                      A
 Frequencies --   1045.5032              1052.4027              1060.0338
 Red. masses --      2.6300                 2.1423                 2.1059
 Frc consts  --      1.6938                 1.3980                 1.3942
 IR Inten    --      9.7359                 4.5393                22.9665

                     49                     50                     51
                      A                      A                      A
 Frequencies --   1070.2978              1074.7283              1092.0065
 Red. masses --      1.5159                 3.0108                 1.6146
 Frc consts  --      1.0231                 2.0489                 1.1344
 IR Inten    --      2.0369                18.4362                 0.5856

                     52                     53                     54
                      A                      A                      A
 Frequencies --   1144.5191              1161.1002              1168.1407
 Red. masses --      1.4016                 2.3031                 2.0487
 Frc consts  --      1.0817                 1.8294                 1.6471
 IR Inten    --     19.3684                31.2975                32.8279

                     55                     56                     57
                      A                      A                      A
 Frequencies --   1194.2641              1226.7944              1255.7420
 Red. masses --      1.2117                 1.9038                 2.7291
 Frc consts  --      1.0182                 1.6882                 2.5356
 IR Inten    --      2.2874                15.1031                13.8541

                     58                     59                     60
                      A                      A                      A
 Frequencies --   1269.8414              1296.6187              1306.3932
 Red. masses --      2.7692                 1.9299                 1.3716
 Frc consts  --      2.6309                 1.9117                 1.3792
 IR Inten    --    168.4609                96.7871                 6.7480

                     61                     62                     63
                      A                      A                      A
 Frequencies --   1319.8487              1371.8356              1374.4540
 Red. masses --      1.2133                 2.7406                 1.2872
 Frc consts  --      1.2453                 3.0388                 1.4327
 IR Inten    --     14.6093               242.3573                 0.1073

                     64                     65                     66
                      A                      A                      A
 Frequencies --   1383.0790              1403.3921              1404.5521
 Red. masses --      2.9350                 1.4529                 1.4912
 Frc consts  --      3.3079                 1.6859                 1.7333
 IR Inten    --    104.0824                 6.6223                51.9425

                     67                     68                     69
                      A                      A                      A
 Frequencies --   1407.3058              1412.6241              1441.1287
 Red. masses --      1.4407                 1.4630                 1.6585
 Frc consts  --      1.6811                 1.7201                 2.0294
 IR Inten    --      1.7014                 5.7699                19.0138

                     70                     71                     72
                      A                      A                      A
 Frequencies --   1445.3011              1484.0762              1504.3514
 Red. masses --      1.3203                 3.3051                 1.0507
 Frc consts  --      1.6249                 4.2889                 1.4010
 IR Inten    --     43.3598                66.9796                 6.7764

                     73                     74                     75
                      A                      A                      A
 Frequencies --   1505.0088              1506.6909              1514.8977
 Red. masses --      1.3486                 1.0975                 1.0863
 Frc consts  --      1.7998                 1.4680                 1.4688
 IR Inten    --     50.6101                 4.5810                 8.8762

                     76                     77                     78
                      A                      A                      A
 Frequencies --   1515.8538              1522.5690              1536.1697
 Red. masses --      1.1149                 1.0955                 1.1163
 Frc consts  --      1.5094                 1.4964                 1.5521
 IR Inten    --     59.8919                20.9168                32.0504

                     79                     80                     81
                      A                      A                      A
 Frequencies --   1572.1930              1578.0566              1614.7034
 Red. masses --      4.7051                 3.5534                 1.5434
 Frc consts  --      6.8522                 5.2136                 2.3709
 IR Inten    --    638.8614               115.4983                82.7515

                     82                     83                     84
                      A                      A                      A
 Frequencies --   1656.6049              1668.6476              1721.2204
 Red. masses --      1.9255                 2.2640                 2.7830
 Frc consts  --      3.1134                 3.7141                 4.8578
 IR Inten    --    222.9176                50.8000               889.3903

                     85                     86                     87
                      A                      A                      A
 Frequencies --   2976.8494              2981.5387              3028.1241
 Red. masses --      1.0732                 1.0741                 1.0678
 Frc consts  --      5.6035                 5.6255                 5.7691
 IR Inten    --     20.2595                96.6838                32.9636

                     88                     89                     90
                      A                      A                      A
 Frequencies --   3047.4338              3048.6080              3055.1458
 Red. masses --      1.0607                 1.0618                 1.0391
 Frc consts  --      5.8040                 5.8141                 5.7145
 IR Inten    --     27.4064                21.3356                31.7648

                     91                     92                     93
                      A                      A                      A
 Frequencies --   3084.3974              3090.7165              3095.5794
 Red. masses --      1.0938                 1.1037                 1.1050
 Frc consts  --      6.1312                 6.2118                 6.2389
 IR Inten    --     71.1436                31.0821                63.4168

                     94                     95                     96
                      A                      A                      A
 Frequencies --   3105.3921              3114.2653              3155.0678
 Red. masses --      1.1008                 1.0903                 1.0980
 Frc consts  --      6.2544                 6.2302                 6.4398
 IR Inten    --     15.4848                18.2707                 8.5521

                     97                     98                     99
                      A                      A                      A
 Frequencies --   3165.2736              3177.0243              3511.2696
 Red. masses --      1.0894                 1.0873                 1.0486
 Frc consts  --      6.4306                 6.4662                 7.6171
 IR Inten    --      5.3025                33.5601                30.1532

                    100                    101                    102
                      A                      A                      A
 Frequencies --   3535.3858              3629.6757              3642.1413
 Red. masses --      1.0480                 1.0963                 1.0973
 Frc consts  --      7.7173                 8.5095                 8.5762
 IR Inten    --      9.2674                33.5369                 9.9007

 - Thermochemistry -
 -------------------
 Temperature   298.150 Kelvin.  Pressure   1.00000 Atm.
 Atom     1 has atomic number  6 and mass  12.00000

 Molecular mass:   266.13137 amu.
 Principal axes and moments of inertia in atomic units:
                           1         2         3
     Eigenvalues --  2736.858629287.37295**********
           X            0.99997  -0.00819   0.00023
           Y            0.00819   0.99997   0.00039
           Z           -0.00023  -0.00038   1.00000
 This molecule is an asymmetric top.
 Rotational symmetry number  1.
 Warning -- assumption of classical behavior for rotation
           may cause significant error
 Rotational temperatures (Kelvin)      0.03165     0.00933     0.00729
 Rotational constants (GHZ):           0.65942     0.19432     0.15196
 Zero-point vibrational energy     794480.9 (Joules/Mol)
                                  189.88549 (Kcal/Mol)
 Warning -- explicit consideration of  28 degrees of freedom as
           vibrations may cause significant error
 Vibrational temperatures:     44.37    55.09    68.14    82.97    87.70
          (Kelvin)             96.40   168.94   184.85   272.28   297.02
                              307.42   334.80   344.12   363.98   424.42
                              468.72   513.60   541.18   587.43   629.93
                              653.61   666.95   682.87   701.41   770.93
                              793.97   834.18   880.55   895.86   917.97
                              949.94   982.70  1030.79  1060.48  1082.55
                             1156.26  1187.91  1208.70  1255.22  1298.10
                             1303.29  1341.59  1396.59  1411.49  1459.64
                             1504.25  1514.17  1525.15  1539.92  1546.29
                             1571.15  1646.71  1670.56  1680.69  1718.28
                             1765.08  1806.73  1827.02  1865.55  1879.61
                             1898.97  1973.77  1977.53  1989.94  2019.17
                             2020.84  2024.80  2032.45  2073.46  2079.47
                             2135.25  2164.43  2165.37  2167.79  2179.60
                             2180.98  2190.64  2210.21  2262.04  2270.47
                             2323.20  2383.48  2400.81  2476.45  4283.02
                             4289.77  4356.80  4384.58  4386.27  4395.67
                             4437.76  4446.85  4453.85  4467.97  4480.73
                             4539.44  4554.12  4571.03  5051.93  5086.63
                             5222.29  5240.23

 Zero-point correction=                           0.302602 (Hartree/Particle)
 Thermal correction to Energy=                    0.320592
 Thermal correction to Enthalpy=                  0.321536
 Thermal correction to Gibbs Free Energy=         0.254913
 Sum of electronic and zero-point Energies=          -1156.465092
 Sum of electronic and thermal Energies=             -1156.447102
 Sum of electronic and thermal Enthalpies=           -1156.446158
 Sum of electronic and thermal Free Energies=        -1156.512780

                     E (Thermal)             CV                S
                      KCal/Mol        Cal/Mol-Kelvin    Cal/Mol-Kelvin
 Total                  201.174             67.926            140.219
 Electronic               0.000              0.000              0.000
 Translational            0.889              2.981             42.636
 Rotational               0.889              2.981             34.067
 Vibrational            199.397             61.965             63.516
 Vibration     1          0.594              1.984              5.775
 Vibration     2          0.594              1.982              5.346
 Vibration     3          0.595              1.979              4.925
 Vibration     4          0.596              1.974              4.535
 Vibration     5          0.597              1.973              4.426
 Vibration     6          0.598              1.970              4.239
 Vibration     7          0.608              1.935              3.142
 Vibration     8          0.611              1.925              2.969
 Vibration     9          0.633              1.855              2.235
 Vibration    10          0.641              1.831              2.075
 Vibration    11          0.644              1.820              2.012
 Vibration    12          0.653              1.791              1.858
 Vibration    13          0.657              1.781              1.809
 Vibration    14          0.664              1.758              1.710
 Vibration    15          0.689              1.683              1.445
 Vibration    16          0.710              1.624              1.281
 Vibration    17          0.732              1.561              1.135
 Vibration    18          0.747              1.521              1.055
 Vibration    19          0.773              1.452              0.933
 Vibration    20          0.798              1.388              0.833
 Vibration    21          0.813              1.351              0.783
 Vibration    22          0.821              1.331              0.756
 Vibration    23          0.831              1.306              0.725
 Vibration    24          0.843              1.278              0.690
 Vibration    25          0.891              1.171              0.574
 Vibration    26          0.907              1.136              0.540
 Vibration    27          0.936              1.075              0.486
 Vibration    28          0.971              1.006              0.429

 Optimization completed.
    -- Stationary point found.
 Normal termination of Gaussian 16 at Fri Dec 11 21:37:47 2020.

 ----------------------------------------------------------------------
 # B3LYP/6-311++G(d,p) empiricaldispersion=gd3bj scf=xqc pop=npa geom=c
 heck
 ----------------------------------------------------------------------

 --------------------------------------
 CID_76872417_JID_8502_Energie_neutraal
 --------------------------------------
 Structure from the checkpoint file:  "JID_8502.chk"
 Charge =  0 Multiplicity = 1

 SCF Done:  E(RB3LYP) =  -1157.01126588     A.U. after   15 cycles
 Normal termination of Gaussian 16 at Fri Dec 11 21:45:20 2020.

 ----------------------------------------------------------------------
 # B3LYP/6-311++G(d,p) empiricaldispersion=gd3bj scf=xqc pop=npa geom=c
 heck
 ----------------------------------------------------------------------

 ------------------------------------
 CID_76872417_JID_8502_Energie_kation
 ------------------------------------
 Structure from the checkpoint file:  "JID_8502.chk"
 Charge =  1 Multiplicity = 2

 SCF Done:  E(UB3LYP) =  -1156.77304965     A.U. after   21 cycles
 Normal termination of Gaussian 16 at Fri Dec 11 22:00:00 2020.
 Gaussian 16:  ES64L-G16RevA.03 25-Dec-2016

 ----------------------------------------------------------------------
 # B3LYP/6-311++G(d,p) empiricaldispersion=gd3bj scf=xqc pop=npa geom=c
 heck
 ----------------------------------------------------------------------

 -----------------------------------
 CID_76872417_JID_8502_Energie_anion
 -----------------------------------
 Structure from the checkpoint file:  "JID_8502.chk"
 Charge = -1 Multiplicity = 2

                         Standard orientation:
 ---------------------------------------------------------------------
 Center     Atomic      Atomic             Coordinates (Angstroms)
 Number     Number       Type             X           Y           Z
 ---------------------------------------------------------------------
      1          6           0       -0.313481    3.812561   -0.067512
      2          6           0       -0.111470    2.326998   -0.012899
      3          6           0       -1.102097    1.361236    0.011418
      4         16           0       -0.348970   -0.240726    0.085497
      5          6           0        1.229444    0.562699    0.053573
      6          7           0        1.182833    1.878238    0.018618
      7          7           0        2.402165   -0.137777    0.040197
      8          6           0        3.645240    0.589005    0.318812
      9          6           0        4.828355   -0.071115   -0.388358
     10          6           0        4.920499   -1.558951   -0.033010
     11          6           0        3.594702   -2.256816   -0.353775
     12          6           0        2.419474   -1.565499    0.342253
     13          6           0       -2.523121    1.584733   -0.017724
     14          7           0       -3.500247    0.736468    0.004616
     15          7           0       -3.101661   -0.591125    0.085429
     16          6           0       -4.107416   -1.410594   -0.019638
     17          7           0       -5.391282   -1.046780   -0.361240
     18          7           0       -3.904742   -2.759895    0.217345
     19          1           0        0.162018    4.286612    0.798944
     20          1           0        0.167624    4.224145   -0.962391
     21          1           0       -1.366979    4.097500   -0.080721
     22          1           0        3.821304    0.606270    1.408180
     23          1           0        3.500665    1.618395   -0.006822
     24          1           0        5.748988    0.454774   -0.108755
     25          1           0        4.703476    0.041746   -1.472998
     26          1           0        5.745218   -2.037115   -0.574081
     27          1           0        5.138717   -1.664857    1.039703
     28          1           0        3.422241   -2.235719   -1.437425
     29          1           0        3.620498   -3.308932   -0.046287
     30          1           0        1.479688   -2.008580    0.003481
     31          1           0        2.481879   -1.719830    1.433490
     32          1           0       -2.835504    2.625898   -0.067427
     33          1           0       -6.121591   -1.547618    0.130429
     34          1           0       -5.485253   -0.034097   -0.331632
     35          1           0       -2.918728   -2.974118    0.316053
     36          1           0       -4.370984   -3.372311   -0.443287
 ---------------------------------------------------------------------

 SCF Done:  E(UB3LYP) =  -1157.00649510     A.U. after   30 cycles

 The electronic state is 2-A.
 Alpha  occ. eigenvalues --  -88.74837 -14.23409 -14.22110 -14.21876 -14.19430
 Alpha  occ. eigenvalues --  -14.18960 -14.17811 -10.15097 -10.13573 -10.10711
 Alpha  occ. eigenvalues --  -10.10028 -10.08461 -10.07734 -10.07701 -10.07678
 Alpha  occ. eigenvalues --  -10.07614 -10.07193 -10.06590  -7.83376  -5.79704
 Alpha  occ. eigenvalues --   -5.79326  -5.78901  -0.89196  -0.87410  -0.82597
 Alpha  occ. eigenvalues --   -0.81441  -0.77390  -0.71282  -0.69982  -0.67378
 Alpha  occ. eigenvalues --   -0.65698  -0.65281  -0.58605  -0.55963  -0.53938
 Alpha  occ. eigenvalues --   -0.51452  -0.48891  -0.46996  -0.45048  -0.43963
 Alpha  occ. eigenvalues --   -0.43379  -0.40700  -0.39413  -0.37190  -0.36832
 Alpha  occ. eigenvalues --   -0.35662  -0.35363  -0.34521  -0.33260  -0.33007
 Alpha  occ. eigenvalues --   -0.32464  -0.31376  -0.30616  -0.29415  -0.29168
 Alpha  occ. eigenvalues --   -0.27829  -0.27519  -0.26189  -0.25448  -0.24558
 Alpha  occ. eigenvalues --   -0.24022  -0.23410  -0.23231  -0.22011  -0.18049
 Alpha  occ. eigenvalues --   -0.17825  -0.15390  -0.15087  -0.12670  -0.11319
 Alpha  occ. eigenvalues --   -0.07334   0.03965
 Alpha virt. eigenvalues --    0.05846   0.06178   0.07412   0.07773   0.07935
 Alpha virt. eigenvalues --    0.08361   0.09167   0.10186   0.10426   0.10839
 Alpha virt. eigenvalues --    0.11000   0.11667   0.11849   0.12393   0.13028

  Beta  occ. eigenvalues --  -88.74824 -14.23398 -14.22107 -14.21820 -14.19236
  Beta  occ. eigenvalues --  -14.19027 -14.17887 -10.14949 -10.13387 -10.10698
  Beta  occ. eigenvalues --  -10.10017 -10.08266 -10.07723 -10.07682 -10.07659
  Beta  occ. eigenvalues --  -10.07494 -10.07205 -10.06603  -7.83363  -5.79700
  Beta  occ. eigenvalues --   -5.79320  -5.78857  -0.89044  -0.87290  -0.82411
  Beta  occ. eigenvalues --   -0.81355  -0.77334  -0.71212  -0.69871  -0.67337
  Beta  occ. eigenvalues --   -0.65637  -0.65128  -0.58524  -0.55812  -0.53882
  Beta  occ. eigenvalues --   -0.51233  -0.48770  -0.46867  -0.44956  -0.43862
  Beta  occ. eigenvalues --   -0.43296  -0.40571  -0.39321  -0.37140  -0.36786
  Beta  occ. eigenvalues --   -0.35573  -0.35272  -0.34422  -0.33184  -0.32905
  Beta  occ. eigenvalues --   -0.32230  -0.31176  -0.30520  -0.29362  -0.29012
  Beta  occ. eigenvalues --   -0.27562  -0.27401  -0.26156  -0.25175  -0.24477
  Beta  occ. eigenvalues --   -0.23955  -0.23324  -0.22850  -0.21953  -0.17773
  Beta  occ. eigenvalues --   -0.17613  -0.15406  -0.14891  -0.12360  -0.11214
  Beta  occ. eigenvalues --   -0.06772
  Beta virt. eigenvalues --    0.06194   0.06576   0.07603   0.07641   0.08051
  Beta virt. eigenvalues --    0.08253   0.08767   0.09436   0.10215   0.10671
  Beta virt. eigenvalues --    0.10868   0.11081   0.11800   0.11928   0.12481

 Mulliken charges and spin densities:
               1          2
     1  C   -0.642704  -0.055307
     2  C   -0.033879   0.040013
     3  C    0.819976  -0.030241
     4  S    0.054654  -0.113738
     5  C   -0.692269   0.177477
     6  N   -0.061361  -0.043279
     7  N    0.399915   0.072444
     8  C   -0.207915  -0.203948
     9  C   -0.103256  -0.149183
    10  C    0.047742  -0.365157
    11  C   -0.013117  -0.180571
    12  C    0.031023  -0.343449
    13  C   -0.507040  -0.055648
    14  N   -0.236309   0.061573
    15  N   -0.068243  -0.048609
    16  C    0.369802  -0.262191
    17  N   -0.370173  -0.008660
    18  N   -0.397933   0.042553
    19  H    0.129912   0.018468
    20  H    0.142352   0.006849
    21  H    0.115870  -0.005086
    22  H   -0.070093   0.218160
    23  H    0.246802  -0.037662
    24  H   -0.047899   0.195540
    25  H    0.088441   0.051368
    26  H   -0.240431   0.399654
    27  H   -0.056002   0.192025
    28  H    0.082482   0.064300
    29  H   -0.222458   0.384506
    30  H   -0.089877   0.219845
    31  H   -0.012433   0.179393
    32  H    0.121109   0.004824
    33  H    0.190366   0.037242
    34  H    0.269732  -0.003780
    35  H    0.147973   0.107842
    36  H   -0.184760   0.432429
 Sum of Mulliken charges =  -1.00000   1.00000

 Dipole moment (field-independent basis, Debye):
    X=             -0.2465    Y=              3.1599    Z=             -0.2380  Tot=              3.1784
 Quadrupole moment (field-independent basis, Debye-Ang):
   XX=           -190.5488   YY=           -155.7875   ZZ=           -136.6820
   XY=             -0.2113   XZ=             -7.3366   YZ=             -1.3971

 Summary of Natural Population Analysis:

                                       Natural Population
                Natural  -----------------------------------------------
    Atom  No    Charge         Core      Valence    Rydberg      Total
 -----------------------------------------------------------------------
      C    1   -0.29402      0.99963     2.28991    0.00448     3.29402
      C    2    0.12209      0.99948     1.86560    0.01283     2.87791
      C    3   -0.15772      0.99939     2.14736    0.01097     3.15772
      S    4    0.18726      4.99945     2.79276    0.02053     7.81274
      C    5    0.17847      0.99958     1.80409    0.01786     2.82153
      N    6   -0.30757      0.99963     2.79698    0.01096     3.80757
      N    7   -0.25734      0.99961     2.74656    0.01117     3.75734
      C    8   -0.08395      0.99961     2.07319    0.01115     3.08395
      C    9   -0.19476      0.99963     2.18585    0.00929     3.19476
      C   10   -0.19148      0.99963     2.18349    0.00836     3.19148
      C   11   -0.19390      0.99963     2.18494    0.00932     3.19390
      C   12   -0.08172      0.99961     2.07120    0.01091     3.08172
      C   13    0.05042      0.99959     1.93320    0.01680     2.94958
      N   14   -0.16446      0.99967     2.64896    0.01583     3.66446
      N   15   -0.24507      0.99963     2.73027    0.01517     3.74507
      C   16    0.32072      0.99969     1.66143    0.01816     2.67928
      N   17   -0.41898      0.99970     2.90944    0.00983     3.91898
      N   18   -0.40618      0.99971     2.89674    0.00973     3.90618
      H   19    0.10334      0.00000     0.39520    0.00146     0.39666
      H   20    0.10343      0.00000     0.39549    0.00108     0.39657
      H   21    0.09817      0.00000     0.40102    0.00081     0.40183
      H   22    0.08536      0.00000     0.41305    0.00159     0.41464
      H   23    0.11543      0.00000     0.38282    0.00175     0.38457
      H   24    0.09883      0.00000     0.40035    0.00083     0.40117
      H   25    0.09566      0.00000     0.40307    0.00128     0.40434
      H   26    0.09834      0.00000     0.40061    0.00105     0.40166
      H   27    0.09468      0.00000     0.40364    0.00168     0.40532
      H   28    0.09605      0.00000     0.40269    0.00126     0.40395
      H   29    0.10161      0.00000     0.39725    0.00115     0.39839
      H   30    0.10530      0.00000     0.39297    0.00173     0.39470
      H   31    0.08806      0.00000     0.41046    0.00148     0.41194
      H   32    0.08578      0.00000     0.41302    0.00121     0.41422
      H   33    0.18400      0.00000     0.31440    0.00160     0.31600
      H   34    0.20365      0.00000     0.29425    0.00211     0.29635
      H   35    0.19369      0.00000     0.30400    0.00231     0.30631
      H   36    0.18683      0.00000     0.30874    0.00443     0.31317
 =======================================================================
   * Total *   -0.00000     21.99286    48.75499    0.25214    71.00000

 Normal termination of Gaussian 16 at Fri Dec 11 22:21:30 2020.
