 Gaussian 16, Revision A.03,

 -----------------------------------------------------------
 # opt freq B3LYP/6-31G(d) empiricaldispersion=gd3bj scf=xqc
 -----------------------------------------------------------

 ------------------------------
 CID_99780291_JID_5902_neutraal
 ------------------------------
 Symbolic Z-matrix:
 Charge =  0 Multiplicity = 1

 SCF Done:  E(RB3LYP) =  -635.363885010     A.U. after   14 cycles
 SCF Done:  E(RB3LYP) =  -635.370139524     A.U. after   12 cycles
 SCF Done:  E(RB3LYP) =  -635.370919479     A.U. after   12 cycles
 SCF Done:  E(RB3LYP) =  -635.371542082     A.U. after   11 cycles
 SCF Done:  E(RB3LYP) =  -635.371858262     A.U. after   11 cycles
 SCF Done:  E(RB3LYP) =  -635.371973038     A.U. after   11 cycles
 SCF Done:  E(RB3LYP) =  -635.372024591     A.U. after   10 cycles
 SCF Done:  E(RB3LYP) =  -635.372040591     A.U. after    9 cycles
 SCF Done:  E(RB3LYP) =  -635.372042985     A.U. after    8 cycles
 SCF Done:  E(RB3LYP) =  -635.372043743     A.U. after    7 cycles
 SCF Done:  E(RB3LYP) =  -635.372044025     A.U. after    7 cycles
 SCF Done:  E(RB3LYP) =  -635.372044156     A.U. after    7 cycles
 SCF Done:  E(RB3LYP) =  -635.372044246     A.U. after    7 cycles
 SCF Done:  E(RB3LYP) =  -635.372044271     A.U. after    6 cycles
 Optimization completed.
    -- Stationary point found.
 Normal termination of Gaussian 16 at Thu Dec 10 17:34:45 2020.

 --------------------------------------------------------------------
 #N Geom=AllCheck Guess=TCheck SCRF=Check GenChk RB3LYP/6-31G(d) Freq
 --------------------------------------------------------------------

 Structure from the checkpoint file:  "JID_5902.chk"
 ------------------------------
 CID_99780291_JID_5902_neutraal
 ------------------------------
 Charge =  0 Multiplicity = 1

 SCF Done:  E(RB3LYP) =  -635.372044271     A.U. after    1 cycles

  Exact polarizability: 172.570  10.188 149.157  18.946   3.423 117.984
 Approx polarizability: 209.699  20.459 214.901  30.923   9.374 179.343

                      1                      2                      3
                      A                      A                      A
 Frequencies --     21.5976                34.8041                42.1452
 Red. masses --      3.5320                 3.5273                 3.3428
 Frc consts  --      0.0010                 0.0025                 0.0035
 IR Inten    --      0.0988                 0.4418                 0.1916

                      4                      5                      6
                      A                      A                      A
 Frequencies --     53.4601                64.3939                77.7938
 Red. masses --      2.6789                 2.4701                 3.1339
 Frc consts  --      0.0045                 0.0060                 0.0112
 IR Inten    --      0.2800                 0.2416                 0.0783

                      7                      8                      9
                      A                      A                      A
 Frequencies --    107.9680               124.2521               132.0157
 Red. masses --      2.6318                 2.2690                 2.8447
 Frc consts  --      0.0181                 0.0206                 0.0292
 IR Inten    --      0.4621                 0.4683                 0.7347

                     10                     11                     12
                      A                      A                      A
 Frequencies --    143.1377               191.3844               210.8392
 Red. masses --      3.7257                 1.5741                 1.7818
 Frc consts  --      0.0450                 0.0340                 0.0467
 IR Inten    --      1.2918                 1.0443                 0.2369

                     13                     14                     15
                      A                      A                      A
 Frequencies --    223.7928               245.0805               275.7491
 Red. masses --      1.4635                 2.2073                 1.5862
 Frc consts  --      0.0432                 0.0781                 0.0711
 IR Inten    --      0.1115                 0.5880                 1.5601

                     16                     17                     18
                      A                      A                      A
 Frequencies --    316.3920               340.5564               359.1501
 Red. masses --      2.9211                 2.2312                 2.7980
 Frc consts  --      0.1723                 0.1525                 0.2126
 IR Inten    --      4.5175                 3.9582                 0.8556

                     19                     20                     21
                      A                      A                      A
 Frequencies --    387.0802               425.4131               428.6607
 Red. masses --      2.4531                 2.2794                 2.2506
 Frc consts  --      0.2166                 0.2430                 0.2437
 IR Inten    --      2.1328                 3.6411                 1.3767

                     22                     23                     24
                      A                      A                      A
 Frequencies --    469.9587               482.6252               552.2312
 Red. masses --      2.6594                 3.4045                 2.2736
 Frc consts  --      0.3461                 0.4672                 0.4085
 IR Inten    --      4.0266                 4.7064                44.9299

                     25                     26                     27
                      A                      A                      A
 Frequencies --    606.8869               663.8313               664.1427
 Red. masses --      2.8176                 1.9432                 1.7405
 Frc consts  --      0.6114                 0.5045                 0.4523
 IR Inten    --      7.8582                 4.3049                13.5409

                     28                     29                     30
                      A                      A                      A
 Frequencies --    743.3026               777.2571               782.1628
 Red. masses --      2.4165                 1.3094                 1.5755
 Frc consts  --      0.7866                 0.4661                 0.5679
 IR Inten    --     27.8079                 2.2101                 5.1377

                     31                     32                     33
                      A                      A                      A
 Frequencies --    798.4340               823.5639               829.7782
 Red. masses --      1.4283                 1.2662                 1.7020
 Frc consts  --      0.5365                 0.5060                 0.6904
 IR Inten    --      0.6149                 3.1381                 5.5396

                     34                     35                     36
                      A                      A                      A
 Frequencies --    870.1637               879.2696               894.8928
 Red. masses --      2.0719                 2.5183                 1.9924
 Frc consts  --      0.9243                 1.1471                 0.9401
 IR Inten    --      6.6144                 3.8866                 3.9196

                     37                     38                     39
                      A                      A                      A
 Frequencies --    913.9122               936.9297               958.2174
 Red. masses --      2.0551                 1.3579                 2.9510
 Frc consts  --      1.0113                 0.7023                 1.5964
 IR Inten    --      2.9126                41.3151                22.6918

                     40                     41                     42
                      A                      A                      A
 Frequencies --   1000.0814              1021.0201              1030.8742
 Red. masses --      1.7001                 1.7073                 1.6643
 Frc consts  --      1.0018                 1.0486                 1.0421
 IR Inten    --      5.4942                 2.6098                 4.1064

                     43                     44                     45
                      A                      A                      A
 Frequencies --   1039.5836              1046.6726              1066.2325
 Red. masses --      1.6769                 1.7572                 1.5291
 Frc consts  --      1.0678                 1.1342                 1.0242
 IR Inten    --     43.6862                 3.9234                 6.2890

                     46                     47                     48
                      A                      A                      A
 Frequencies --   1073.7005              1078.4363              1085.4856
 Red. masses --      2.6085                 2.3019                 1.3909
 Frc consts  --      1.7718                 1.5774                 0.9656
 IR Inten    --     12.2658                18.1102                 1.9185

                     49                     50                     51
                      A                      A                      A
 Frequencies --   1121.2721              1132.9652              1136.0747
 Red. masses --      1.7118                 1.1973                 1.9457
 Frc consts  --      1.2680                 0.9055                 1.4796
 IR Inten    --     15.0227                 5.4815                 2.2381

                     52                     53                     54
                      A                      A                      A
 Frequencies --   1163.5017              1183.0493              1202.4657
 Red. masses --      1.3476                 1.6382                 2.3294
 Frc consts  --      1.0748                 1.3509                 1.9845
 IR Inten    --     14.9619                 5.1394                19.4437

                     55                     56                     57
                      A                      A                      A
 Frequencies --   1210.1183              1220.3107              1253.8044
 Red. masses --      1.3803                 2.2246                 1.3292
 Frc consts  --      1.1909                 1.9518                 1.2312
 IR Inten    --      1.3436                11.7615                 1.0592

                     58                     59                     60
                      A                      A                      A
 Frequencies --   1257.5314              1277.4116              1282.1913
 Red. masses --      1.8129                 1.9079                 2.1135
 Frc consts  --      1.6891                 1.8343                 2.0472
 IR Inten    --      5.5039                14.8805                47.7092

                     61                     62                     63
                      A                      A                      A
 Frequencies --   1315.3177              1332.1053              1348.3610
 Red. masses --      1.3246                 1.2761                 1.3566
 Frc consts  --      1.3502                 1.3341                 1.4532
 IR Inten    --     27.5230                14.0795                53.5890

                     64                     65                     66
                      A                      A                      A
 Frequencies --   1363.3885              1375.6773              1381.4931
 Red. masses --      1.3043                 1.2759                 1.3514
 Frc consts  --      1.4285                 1.4227                 1.5196
 IR Inten    --      9.6115                10.6813                66.9010

                     67                     68                     69
                      A                      A                      A
 Frequencies --   1408.5028              1425.6896              1430.5143
 Red. masses --      1.4067                 1.5943                 1.3142
 Frc consts  --      1.6442                 1.9092                 1.5845
 IR Inten    --     46.0506                83.4620                 2.5710

                     70                     71                     72
                      A                      A                      A
 Frequencies --   1435.7037              1475.0800              1475.8663
 Red. masses --      1.6277                 1.2390                 1.2021
 Frc consts  --      1.9768                 1.5883                 1.5427
 IR Inten    --     79.9933                 7.5711                 0.7278

                     73                     74                     75
                      A                      A                      A
 Frequencies --   1481.8270              1486.1024              1509.0606
 Red. masses --      1.2475                 1.1670                 1.0766
 Frc consts  --      1.6140                 1.5185                 1.4444
 IR Inten    --     24.8843                 0.5955                 7.4498

                     76                     77                     78
                      A                      A                      A
 Frequencies --   1510.4611              1519.6293              1521.2923
 Red. masses --      1.1035                 1.1006                 1.0549
 Frc consts  --      1.4834                 1.4975                 1.4385
 IR Inten    --     13.0097                 4.5889                 3.4719

                     79                     80                     81
                      A                      A                      A
 Frequencies --   1528.2894              1531.4582              1532.4490
 Red. masses --      1.3825                 1.0545                 1.0664
 Frc consts  --      1.9025                 1.4572                 1.4755
 IR Inten    --      8.4868                 0.1877                 1.8926

                     82                     83                     84
                      A                      A                      A
 Frequencies --   1544.3228              1574.2558              1712.5925
 Red. masses --      1.1271                 1.0888                 5.7254
 Frc consts  --      1.5838                 1.5899                 9.8938
 IR Inten    --     22.7693                 8.1081               505.3626

                     85                     86                     87
                      A                      A                      A
 Frequencies --   1734.0741              2934.4493              3023.9151
 Red. masses --      4.5031                 1.0757                 1.0605
 Frc consts  --      7.9780                 5.4576                 5.7137
 IR Inten    --      6.0978                86.4207                30.7478

                     88                     89                     90
                      A                      A                      A
 Frequencies --   3031.6534              3045.9631              3047.0961
 Red. masses --      1.0474                 1.0358                 1.0654
 Frc consts  --      5.6719                 5.6620                 5.8281
 IR Inten    --     42.0373                30.0748                11.8357

                     91                     92                     93
                      A                      A                      A
 Frequencies --   3064.9036              3065.3333              3085.1025
 Red. masses --      1.0944                 1.0865                 1.0841
 Frc consts  --      6.0570                 6.0150                 6.0796
 IR Inten    --     18.3187                51.6164                 8.7461

                     94                     95                     96
                      A                      A                      A
 Frequencies --   3096.1313              3102.7389              3111.7580
 Red. masses --      1.0873                 1.0911                 1.1021
 Frc consts  --      6.1408                 6.1888                 6.2874
 IR Inten    --     41.3661                49.1154                69.4576

                     97                     98                     99
                      A                      A                      A
 Frequencies --   3127.0777              3134.1685              3143.9485
 Red. masses --      1.1020                 1.0840                 1.0519
 Frc consts  --      6.3493                 6.2736                 6.1263
 IR Inten    --     28.1612                26.3063                18.8617

                    100                    101                    102
                      A                      A                      A
 Frequencies --   3148.5478              3155.6788              3157.7995
 Red. masses --      1.0576                 1.0656                 1.0903
 Frc consts  --      6.1770                 6.2524                 6.4055
 IR Inten    --      6.7866                 5.9275                10.6354

                    103                    104                    105
                      A                      A                      A
 Frequencies --   3159.9983              3166.8047              3222.5320
 Red. masses --      1.0946                 1.0994                 1.1193
 Frc consts  --      6.4400                 6.4962                 6.8482
 IR Inten    --     13.8954                15.0872                 1.5756

                    106                    107                    108
                      A                      A                      A
 Frequencies --   3234.4346              3238.1868              3600.5652
 Red. masses --      1.1156                 1.1166                 1.0741
 Frc consts  --      6.8762                 6.8983                 8.2045
 IR Inten    --     22.2717                19.8371                 9.4662

 - Thermochemistry -
 -------------------
 Temperature   298.150 Kelvin.  Pressure   1.00000 Atm.
 Atom     1 has atomic number  6 and mass  12.00000

 Molecular mass:   209.18920 amu.
 Principal axes and moments of inertia in atomic units:
                           1         2         3
     Eigenvalues --  2234.947555337.602846707.35464
           X            1.00000  -0.00047   0.00256
           Y            0.00048   0.99999  -0.00463
           Z           -0.00256   0.00463   0.99999
 This molecule is an asymmetric top.
 Rotational symmetry number  1.
 Warning -- assumption of classical behavior for rotation
           may cause significant error
 Rotational temperatures (Kelvin)      0.03875     0.01623     0.01291
 Rotational constants (GHZ):           0.80751     0.33812     0.26907
 Zero-point vibrational energy     901914.4 (Joules/Mol)
                                  215.56271 (Kcal/Mol)
 Warning -- explicit consideration of  25 degrees of freedom as
           vibrations may cause significant error
 Vibrational temperatures:     31.07    50.08    60.64    76.92    92.65
          (Kelvin)            111.93   155.34   178.77   189.94   205.94
                              275.36   303.35   321.99   352.62   396.74
                              455.22   489.98   516.74   556.92   612.07
                              616.75   676.17   694.39   794.54   873.17
                              955.11   955.55  1069.45  1118.30  1125.36
                             1148.77  1184.92  1193.87  1251.97  1265.07
                             1287.55  1314.92  1348.03  1378.66  1438.89
                             1469.02  1483.20  1495.73  1505.93  1534.07
                             1544.82  1551.63  1561.77  1613.26  1630.08
                             1634.56  1674.02  1702.14  1730.08  1741.09
                             1755.75  1803.94  1809.31  1837.91  1844.79
                             1892.45  1916.60  1939.99  1961.61  1979.29
                             1987.66  2026.52  2051.25  2058.19  2065.66
                             2122.31  2123.44  2132.02  2138.17  2171.20
                             2173.22  2186.41  2188.80  2198.87  2203.43
                             2204.85  2221.94  2265.00  2464.04  2494.95
                             4222.02  4350.74  4361.87  4382.46  4384.09
                             4409.71  4410.33  4438.77  4454.64  4464.15
                             4477.13  4499.17  4509.37  4523.44  4530.06
                             4540.32  4543.37  4546.53  4556.33  4636.50
                             4653.63  4659.03  5180.41

 Zero-point correction=                           0.343521 (Hartree/Particle)
 Thermal correction to Energy=                    0.361229
 Thermal correction to Enthalpy=                  0.362174
 Thermal correction to Gibbs Free Energy=         0.295896
 Sum of electronic and zero-point Energies=           -635.028523
 Sum of electronic and thermal Energies=              -635.010815
 Sum of electronic and thermal Enthalpies=            -635.009871
 Sum of electronic and thermal Free Energies=         -635.076148

                     E (Thermal)             CV                S
                      KCal/Mol        Cal/Mol-Kelvin    Cal/Mol-Kelvin
 Total                  226.675             64.634            139.492
 Electronic               0.000              0.000              0.000
 Translational            0.889              2.981             41.918
 Rotational               0.889              2.981             32.748
 Vibrational            224.897             58.673             64.826
 Vibration     1          0.593              1.985              6.482
 Vibration     2          0.594              1.983              5.535
 Vibration     3          0.595              1.980              5.156
 Vibration     4          0.596              1.976              4.685
 Vibration     5          0.597              1.971              4.318
 Vibration     6          0.599              1.964              3.946
 Vibration     7          0.606              1.943              3.305
 Vibration     8          0.610              1.929              3.033
 Vibration     9          0.612              1.921              2.916
 Vibration    10          0.616              1.910              2.762
 Vibration    11          0.634              1.852              2.214
 Vibration    12          0.643              1.824              2.036
 Vibration    13          0.649              1.805              1.928
 Vibration    14          0.660              1.771              1.766
 Vibration    15          0.677              1.718              1.560
 Vibration    16          0.703              1.642              1.329
 Vibration    17          0.720              1.594              1.210
 Vibration    18          0.734              1.556              1.126
 Vibration    19          0.756              1.498              1.011
 Vibration    20          0.787              1.415              0.874
 Vibration    21          0.790              1.408              0.863
 Vibration    22          0.827              1.317              0.738
 Vibration    23          0.839              1.289              0.703
 Vibration    24          0.908              1.135              0.540
 Vibration    25          0.966              1.017              0.438

 Optimization completed.
    -- Stationary point found.
 Normal termination of Gaussian 16 at Thu Dec 10 17:48:59 2020.

 ----------------------------------------------------------------------
 # B3LYP/6-311++G(d,p) empiricaldispersion=gd3bj scf=xqc pop=npa geom=c
 heck
 ----------------------------------------------------------------------

 --------------------------------------
 CID_99780291_JID_5902_Energie_neutraal
 --------------------------------------
 Structure from the checkpoint file:  "JID_5902.chk"
 Charge =  0 Multiplicity = 1

 SCF Done:  E(RB3LYP) =  -635.552277072     A.U. after   13 cycles
 Normal termination of Gaussian 16 at Thu Dec 10 17:55:50 2020.

 ----------------------------------------------------------------------
 # B3LYP/6-311++G(d,p) empiricaldispersion=gd3bj scf=xqc pop=npa geom=c
 heck
 ----------------------------------------------------------------------

 ------------------------------------
 CID_99780291_JID_5902_Energie_kation
 ------------------------------------
 Structure from the checkpoint file:  "JID_5902.chk"
 Charge =  1 Multiplicity = 2

 SCF Done:  E(UB3LYP) =  -635.277741867     A.U. after   22 cycles
 Normal termination of Gaussian 16 at Thu Dec 10 18:11:43 2020.
 Gaussian 16:  ES64L-G16RevA.03 25-Dec-2016

 ----------------------------------------------------------------------
 # B3LYP/6-311++G(d,p) empiricaldispersion=gd3bj scf=xqc pop=npa geom=c
 heck
 ----------------------------------------------------------------------

 -----------------------------------
 CID_99780291_JID_5902_Energie_anion
 -----------------------------------
 Structure from the checkpoint file:  "JID_5902.chk"
 Charge = -1 Multiplicity = 2

                         Standard orientation:
 ---------------------------------------------------------------------
 Center     Atomic      Atomic             Coordinates (Angstroms)
 Number     Number       Type             X           Y           Z
 ---------------------------------------------------------------------
      1          6           0       -4.282458   -0.785328    0.041263
      2          6           0       -3.214665   -1.299718   -0.933756
      3          7           0       -1.946976   -1.564186   -0.274797
      4          6           0       -1.159491   -0.589984    0.019213
      5          7           0       -1.297160    0.736522   -0.424346
      6          6           0       -1.148759    1.839627    0.501138
      7          6           0       -0.134945    2.925645    0.226860
      8          6           0       -1.610090    3.192805    0.038856
      9          7           0       -0.059015   -0.815910    0.844947
     10          6           0        0.017571   -2.150972    1.427525
     11          6           0        1.235271   -0.251810    0.441717
     12          6           0        1.785015   -0.820477   -0.872035
     13          6           0        3.140655   -0.196957   -1.252505
     14          6           0        4.235777   -0.535692   -0.279370
     15          6           0        4.918340    0.345746    0.451779
     16          1           0       -4.394800   -1.488258    0.872915
     17          1           0       -5.253927   -0.673517   -0.454771
     18          1           0       -3.999621    0.186305    0.463048
     19          1           0       -3.558088   -2.245312   -1.369057
     20          1           0       -3.131105   -0.605577   -1.791440
     21          1           0       -2.125877    0.837435   -0.994365
     22          1           0       -1.318979    1.580901    1.544029
     23          1           0        0.377552    3.383617    1.068417
     24          1           0        0.463730    2.817302   -0.672857
     25          1           0       -1.972125    3.274973   -0.983313
     26          1           0       -2.128336    3.831475    0.747934
     27          1           0        0.794791   -2.143365    2.198180
     28          1           0       -0.943113   -2.403915    1.876903
     29          1           0        0.247839   -2.930299    0.688170
     30          1           0        1.144776    0.831316    0.355365
     31          1           0        1.939039   -0.441403    1.257980
     32          1           0        1.889255   -1.910495   -0.795069
     33          1           0        1.059395   -0.626926   -1.670569
     34          1           0        3.421369   -0.553882   -2.253698
     35          1           0        3.036879    0.894228   -1.324662
     36          1           0        4.457411   -1.599410   -0.171571
     37          1           0        5.697017    0.038120    1.144441
     38          1           0        4.725651    1.414398    0.379247
 ---------------------------------------------------------------------

 SCF Done:  E(UB3LYP) =  -635.536175887     A.U. after   33 cycles
 SCF Done:  E(UB3LYP) =  -635.536175887     a.u. after    1 cycles

 The electronic state is 2-A.
 Alpha  occ. eigenvalues --  -14.23013 -14.22944 -14.17381 -10.16245 -10.11993
 Alpha  occ. eigenvalues --  -10.10077 -10.09526 -10.09395 -10.08848 -10.08408
 Alpha  occ. eigenvalues --  -10.08219 -10.07976 -10.07586 -10.07514 -10.06418
 Alpha  occ. eigenvalues --   -0.89106  -0.82053  -0.78784  -0.73827  -0.71984
 Alpha  occ. eigenvalues --   -0.66470  -0.64577  -0.60738  -0.58354  -0.53406
 Alpha  occ. eigenvalues --   -0.51713  -0.51382  -0.50673  -0.46822  -0.46259
 Alpha  occ. eigenvalues --   -0.42883  -0.40945  -0.39537  -0.38082  -0.37802
 Alpha  occ. eigenvalues --   -0.36982  -0.36099  -0.34745  -0.33374  -0.32004
 Alpha  occ. eigenvalues --   -0.31401  -0.30944  -0.30714  -0.29237  -0.28516
 Alpha  occ. eigenvalues --   -0.28005  -0.27592  -0.26795  -0.25902  -0.25679
 Alpha  occ. eigenvalues --   -0.25558  -0.24145  -0.21786  -0.20670  -0.17672
 Alpha  occ. eigenvalues --   -0.15116  -0.14136  -0.12132   0.04326
 Alpha virt. eigenvalues --    0.05802   0.06584   0.06794   0.07547   0.07865
 Alpha virt. eigenvalues --    0.08217   0.08547   0.09255   0.09500   0.09919
 Alpha virt. eigenvalues --    0.10578   0.10694   0.11173   0.11286   0.12013

  Beta  occ. eigenvalues --  -14.22993 -14.22943 -14.17381 -10.16241 -10.11986
  Beta  occ. eigenvalues --  -10.10072 -10.09509 -10.09387 -10.08834 -10.08395
  Beta  occ. eigenvalues --  -10.08181 -10.07960 -10.07562 -10.07505 -10.06394
  Beta  occ. eigenvalues --   -0.89093  -0.82035  -0.78772  -0.73802  -0.71957
  Beta  occ. eigenvalues --   -0.66445  -0.64548  -0.60717  -0.58327  -0.53361
  Beta  occ. eigenvalues --   -0.51632  -0.51345  -0.50629  -0.46763  -0.46228
  Beta  occ. eigenvalues --   -0.42860  -0.40912  -0.39484  -0.38046  -0.37776
  Beta  occ. eigenvalues --   -0.36952  -0.36074  -0.34723  -0.33354  -0.31968
  Beta  occ. eigenvalues --   -0.31369  -0.30924  -0.30678  -0.29221  -0.28493
  Beta  occ. eigenvalues --   -0.27972  -0.27562  -0.26767  -0.25869  -0.25654
  Beta  occ. eigenvalues --   -0.25535  -0.24121  -0.21753  -0.20646  -0.17625
  Beta  occ. eigenvalues --   -0.15097  -0.14111  -0.12122
  Beta virt. eigenvalues --    0.06232   0.06769   0.07136   0.07165   0.07996
  Beta virt. eigenvalues --    0.08289   0.08469   0.08799   0.09473   0.09765
  Beta virt. eigenvalues --    0.10225   0.10787   0.10943   0.11353   0.11621

 Mulliken charges and spin densities:
               1          2
     1  C    0.266659  -0.659500
     2  C   -0.150974  -0.147408
     3  N   -0.118741   0.065393
     4  C   -0.352874  -0.133863
     5  N    0.064617  -0.098523
     6  C   -1.437952   1.382612
     7  C    0.345035  -0.710490
     8  C    1.184909  -1.563809
     9  N    0.295095   0.002673
    10  C    0.115880  -0.316399
    11  C   -0.618543  -0.213341
    12  C    0.367139  -0.329789
    13  C    0.493369  -0.833368
    14  C   -1.080830   1.297126
    15  C    0.824857  -1.420519
    16  H    0.093923   0.037741
    17  H   -0.238101   0.366897
    18  H   -0.242396   0.391403
    19  H   -0.066012   0.227474
    20  H   -0.343433   0.452425
    21  H    0.700916  -0.442893
    22  H   -0.000437   0.223967
    23  H   -0.120583   0.280771
    24  H    0.223564  -0.075291
    25  H   -0.495538   0.645288
    26  H   -0.291452   0.454193
    27  H   -0.025166   0.137393
    28  H    0.143949   0.027355
    29  H    0.075488   0.085206
    30  H    0.216849  -0.178502
    31  H    0.095982   0.096164
    32  H    0.166393  -0.027661
    33  H   -0.071229   0.259643
    34  H   -0.051903   0.212264
    35  H   -0.260868   0.398432
    36  H   -0.398702   0.563444
    37  H   -0.172776   0.293406
    38  H   -0.136113   0.250087
 Sum of Mulliken charges =  -1.00000   1.00000

 Dipole moment (field-independent basis, Debye):
    X=              0.9479    Y=             -2.7615    Z=              1.4107  Tot=              3.2426
 Quadrupole moment (field-independent basis, Debye-Ang):
   XX=           -190.9790   YY=           -151.0781   ZZ=           -129.4738
   XY=              7.7451   XZ=             -4.9824   YZ=             -1.2160

 Summary of Natural Population Analysis:

                                       Natural Population
                Natural  -----------------------------------------------
    Atom  No    Charge         Core      Valence    Rydberg      Total
 -----------------------------------------------------------------------
      C    1   -0.29054      0.99966     2.28574    0.00513     3.29054
      C    2   -0.09981      0.99963     2.08781    0.01237     3.09981
      N    3   -0.30131      0.99965     2.79171    0.00996     3.80131
      C    4    0.32358      0.99956     1.65928    0.01758     2.67642
      N    5   -0.33798      0.99966     2.82785    0.01047     3.83798
      C    6   -0.02198      0.99956     2.00918    0.01324     3.02198
      C    7   -0.20602      0.99962     2.19668    0.00972     3.20602
      C    8   -0.19844      0.99962     2.18880    0.01002     3.19844
      N    9   -0.26475      0.99966     2.75486    0.01023     3.76475
      C   10   -0.17416      0.99965     2.16742    0.00710     3.17416
      C   11   -0.08544      0.99959     2.07625    0.00960     3.08544
      C   12   -0.19511      0.99962     2.18762    0.00786     3.19511
      C   13   -0.20890      0.99961     2.19943    0.00987     3.20890
      C   14   -0.08328      0.99957     2.07223    0.01148     3.08328
      C   15   -0.19236      0.99955     2.18595    0.00686     3.19236
      H   16    0.09775      0.00000     0.40123    0.00102     0.40225
      H   17    0.09807      0.00000     0.40080    0.00113     0.40193
      H   18    0.09626      0.00000     0.40245    0.00129     0.40374
      H   19    0.09233      0.00000     0.40631    0.00136     0.40767
      H   20    0.07727      0.00000     0.42099    0.00174     0.42273
      H   21    0.19019      0.00000     0.30567    0.00414     0.30981
      H   22    0.10043      0.00000     0.39781    0.00176     0.39957
      H   23    0.10315      0.00000     0.39577    0.00108     0.39685
      H   24    0.10565      0.00000     0.39285    0.00150     0.39435
      H   25    0.10533      0.00000     0.39304    0.00163     0.39467
      H   26    0.10697      0.00000     0.39136    0.00167     0.39303
      H   27    0.09034      0.00000     0.40869    0.00097     0.40966
      H   28    0.10539      0.00000     0.39357    0.00105     0.39461
      H   29    0.09032      0.00000     0.40811    0.00157     0.40968
      H   30    0.10340      0.00000     0.39404    0.00256     0.39660
      H   31    0.09723      0.00000     0.40134    0.00143     0.40277
      H   32    0.09468      0.00000     0.40392    0.00140     0.40532
      H   33    0.10391      0.00000     0.39475    0.00134     0.39609
      H   34    0.10458      0.00000     0.39419    0.00124     0.39542
      H   35    0.09741      0.00000     0.40101    0.00158     0.40259
      H   36    0.09155      0.00000     0.40724    0.00121     0.40845
      H   37    0.09390      0.00000     0.40479    0.00131     0.40610
      H   38    0.09040      0.00000     0.40817    0.00143     0.40960
 =======================================================================
   * Total *    0.00000     14.99420    42.81890    0.18690    58.00000

 Normal termination of Gaussian 16 at Thu Dec 10 18:35:10 2020.
