 Gaussian 16, Revision A.03,

 -----------------------------------------------------------
 # opt freq B3LYP/6-31G(d) empiricaldispersion=gd3bj scf=xqc
 -----------------------------------------------------------

 -------------------------------
 CID_115712374_JID_4109_neutraal
 -------------------------------
 Symbolic Z-matrix:
 Charge =  0 Multiplicity = 1

 SCF Done:  E(RB3LYP) =  -601.136543282     A.U. after   12 cycles
 SCF Done:  E(RB3LYP) =  -601.141528972     A.U. after   11 cycles
 SCF Done:  E(RB3LYP) =  -601.141630480     A.U. after   10 cycles
 SCF Done:  E(RB3LYP) =  -601.141724057     A.U. after   10 cycles
 SCF Done:  E(RB3LYP) =  -601.141939771     A.U. after   10 cycles
 SCF Done:  E(RB3LYP) =  -601.141966307     A.U. after    9 cycles
 SCF Done:  E(RB3LYP) =  -601.141991817     A.U. after   10 cycles
 SCF Done:  E(RB3LYP) =  -601.142031841     A.U. after   10 cycles
 SCF Done:  E(RB3LYP) =  -601.142047493     A.U. after    9 cycles
 SCF Done:  E(RB3LYP) =  -601.142071202     A.U. after    9 cycles
 SCF Done:  E(RB3LYP) =  -601.142106646     A.U. after    6 cycles
 SCF Done:  E(RB3LYP) =  -601.142106680     A.U. after    7 cycles
 SCF Done:  E(RB3LYP) =  -601.142106712     A.U. after    6 cycles
 SCF Done:  E(RB3LYP) =  -601.142106742     A.U. after    6 cycles
 SCF Done:  E(RB3LYP) =  -601.142106760     A.U. after    6 cycles
 SCF Done:  E(RB3LYP) =  -601.142106776     A.U. after    6 cycles
 Optimization completed.
    -- Stationary point found.
 Normal termination of Gaussian 16 at Thu Dec 10 09:26:42 2020.

 --------------------------------------------------------------------
 #N Geom=AllCheck Guess=TCheck SCRF=Check GenChk RB3LYP/6-31G(d) Freq
 --------------------------------------------------------------------

 Structure from the checkpoint file:  "JID_4109.chk"
 -------------------------------
 CID_115712374_JID_4109_neutraal
 -------------------------------
 Charge =  0 Multiplicity = 1

 SCF Done:  E(RB3LYP) =  -601.142106776     A.U. after    1 cycles

  Exact polarizability: 151.028  -1.670 123.244   1.202   0.481 118.824
 Approx polarizability: 178.266   2.046 173.960   2.114  -0.338 182.680

                      1                      2                      3
                      A                      A                      A
 Frequencies --     23.5512                37.3827                61.8444
 Red. masses --      3.3377                 2.5962                 2.2016
 Frc consts  --      0.0011                 0.0021                 0.0050
 IR Inten    --      0.1074                 2.5318                 1.5810

                      4                      5                      6
                      A                      A                      A
 Frequencies --     70.0794                75.8440                98.5064
 Red. masses --      2.0171                 3.0441                 2.5819
 Frc consts  --      0.0058                 0.0103                 0.0148
 IR Inten    --      0.8979                 0.2260                 0.6220

                      7                      8                      9
                      A                      A                      A
 Frequencies --    123.2679               145.0146               152.2288
 Red. masses --      2.9476                 3.3215                 3.0480
 Frc consts  --      0.0264                 0.0412                 0.0416
 IR Inten    --      0.0422                 0.6953                 0.8130

                     10                     11                     12
                      A                      A                      A
 Frequencies --    230.7227               243.7427               263.2228
 Red. masses --      1.3945                 2.0803                 2.9026
 Frc consts  --      0.0437                 0.0728                 0.1185
 IR Inten    --      0.0525                 0.5857                 3.3748

                     13                     14                     15
                      A                      A                      A
 Frequencies --    285.2439               351.3076               373.9125
 Red. masses --      1.9249                 2.2229                 1.9571
 Frc consts  --      0.0923                 0.1616                 0.1612
 IR Inten    --      3.8650                 1.4467                 1.6253

                     16                     17                     18
                      A                      A                      A
 Frequencies --    427.5784               461.7663               503.4838
 Red. masses --      2.5046                 2.2684                 2.6549
 Frc consts  --      0.2698                 0.2850                 0.3965
 IR Inten    --      1.0619                 0.7494                 5.8908

                     19                     20                     21
                      A                      A                      A
 Frequencies --    622.4898               682.1624               689.0545
 Red. masses --      2.4361                 2.2209                 2.6658
 Frc consts  --      0.5562                 0.6089                 0.7457
 IR Inten    --     14.6281                17.4045                 1.8682

                     22                     23                     24
                      A                      A                      A
 Frequencies --    696.9048               735.7110               777.6916
 Red. masses --      2.6155                 2.6253                 1.3769
 Frc consts  --      0.7484                 0.8372                 0.4906
 IR Inten    --     45.8167                 8.0146                 1.7894

                     25                     26                     27
                      A                      A                      A
 Frequencies --    803.9583               832.4796               852.9307
 Red. masses --      1.4523                 1.8562                 1.7908
 Frc consts  --      0.5530                 0.7579                 0.7676
 IR Inten    --      1.7162                 2.3392                 7.1806

                     28                     29                     30
                      A                      A                      A
 Frequencies --    859.3490               885.5909               904.9981
 Red. masses --      2.1355                 3.0555                 2.3436
 Frc consts  --      0.9292                 1.4119                 1.1309
 IR Inten    --      1.0738                 0.2779                 4.2822

                     31                     32                     33
                      A                      A                      A
 Frequencies --    923.8552               931.1625               936.7134
 Red. masses --      2.1003                 2.6280                 2.1334
 Frc consts  --      1.0562                 1.3426                 1.1029
 IR Inten    --      9.8333                 7.1006                24.4447

                     34                     35                     36
                      A                      A                      A
 Frequencies --    955.1618               970.0943               977.4164
 Red. masses --      1.8613                 2.1218                 2.2149
 Frc consts  --      1.0005                 1.1765                 1.2467
 IR Inten    --      0.8484                12.1590                 7.7436

                     37                     38                     39
                      A                      A                      A
 Frequencies --   1010.7120              1015.3518              1028.1393
 Red. masses --      2.0841                 1.8669                 1.6583
 Frc consts  --      1.2544                 1.1340                 1.0328
 IR Inten    --     11.3232                 1.8936                 2.7326

                     40                     41                     42
                      A                      A                      A
 Frequencies --   1040.8869              1058.8028              1082.3338
 Red. masses --      2.1067                 1.5171                 2.2218
 Frc consts  --      1.3448                 1.0021                 1.5335
 IR Inten    --      3.1216                 1.5932                 3.1917

                     43                     44                     45
                      A                      A                      A
 Frequencies --   1105.4923              1119.0471              1145.7300
 Red. masses --      1.6424                 3.6575                 1.7420
 Frc consts  --      1.1826                 2.6986                 1.3473
 IR Inten    --     11.7051                68.1219                10.1036

                     46                     47                     48
                      A                      A                      A
 Frequencies --   1157.6302              1163.5577              1184.5298
 Red. masses --      1.8927                 2.6450                 2.5879
 Frc consts  --      1.4944                 2.1098                 2.1394
 IR Inten    --     20.5308                36.2999                27.6060

                     49                     50                     51
                      A                      A                      A
 Frequencies --   1206.4732              1222.6268              1231.5784
 Red. masses --      1.3818                 1.5350                 1.3929
 Frc consts  --      1.1850                 1.3519                 1.2448
 IR Inten    --      1.3878                27.6138                 3.7122

                     52                     53                     54
                      A                      A                      A
 Frequencies --   1234.7797              1247.9019              1255.0309
 Red. masses --      1.2829                 1.3333                 1.2403
 Frc consts  --      1.1524                 1.2234                 1.1510
 IR Inten    --      6.6851                 2.4867                 1.0349

                     55                     56                     57
                      A                      A                      A
 Frequencies --   1271.1336              1286.6495              1298.5365
 Red. masses --      1.2698                 1.2812                 1.2925
 Frc consts  --      1.2088                 1.2497                 1.2841
 IR Inten    --      1.9128                 0.3170                 2.9170

                     58                     59                     60
                      A                      A                      A
 Frequencies --   1314.1363              1317.8964              1335.1734
 Red. masses --      1.3296                 1.3547                 1.3145
 Frc consts  --      1.3529                 1.3863                 1.3807
 IR Inten    --      0.8828                 2.0618                 5.1734

                     61                     62                     63
                      A                      A                      A
 Frequencies --   1338.2617              1342.1484              1355.0753
 Red. masses --      1.2765                 1.2965                 1.4314
 Frc consts  --      1.3469                 1.3760                 1.5486
 IR Inten    --      7.6083                 1.9965                 0.7511

                     64                     65                     66
                      A                      A                      A
 Frequencies --   1367.6689              1380.7016              1389.3431
 Red. masses --      1.3297                 1.3351                 1.3585
 Frc consts  --      1.4654                 1.4995                 1.5449
 IR Inten    --      1.1904                 3.8131                 1.7835

                     67                     68                     69
                      A                      A                      A
 Frequencies --   1401.6813              1414.7331              1418.0230
 Red. masses --      1.2692                 1.5112                 1.4330
 Frc consts  --      1.4691                 1.7821                 1.6977
 IR Inten    --     27.3782                 1.2331                 2.8807

                     70                     71                     72
                      A                      A                      A
 Frequencies --   1429.3895              1441.2971              1503.4120
 Red. masses --      1.3312                 1.2471                 1.0910
 Frc consts  --      1.6025                 1.5264                 1.4529
 IR Inten    --      2.4193                 1.3558                 4.4006

                     73                     74                     75
                      A                      A                      A
 Frequencies --   1515.8260              1519.3584              1524.1191
 Red. masses --      1.0876                 1.0649                 1.0871
 Frc consts  --      1.4724                 1.4483                 1.4878
 IR Inten    --      0.9717                 2.1718                 2.8297

                     76                     77                     78
                      A                      A                      A
 Frequencies --   1526.7008              1531.9004              1532.4437
 Red. masses --      1.0897                 1.1796                 1.0809
 Frc consts  --      1.4965                 1.6309                 1.4955
 IR Inten    --      3.7196                24.7527                10.1283

                     79                     80                     81
                      A                      A                      A
 Frequencies --   1539.3122              1546.6341              1548.4049
 Red. masses --      1.0715                 1.0879                 1.1004
 Frc consts  --      1.4959                 1.5332                 1.5544
 IR Inten    --      2.9439                 1.1680                 3.7590

                     82                     83                     84
                      A                      A                      A
 Frequencies --   1565.0867              2981.7372              2999.8407
 Red. masses --      1.0965                 1.0724                 1.0828
 Frc consts  --      1.5824                 5.6173                 5.7411
 IR Inten    --      0.9205                95.6445                22.3379

                     85                     86                     87
                      A                      A                      A
 Frequencies --   3032.1254              3032.7626              3033.5190
 Red. masses --      1.0605                 1.0682                 1.0643
 Frc consts  --      5.7445                 5.7889                 5.7703
 IR Inten    --     78.8406                15.9806                57.0010

                     88                     89                     90
                      A                      A                      A
 Frequencies --   3040.5873              3043.8525              3048.8616
 Red. masses --      1.0369                 1.0685                 1.0696
 Frc consts  --      5.6483                 5.8326                 5.8578
 IR Inten    --     31.0678                30.9230                18.4526

                     91                     92                     93
                      A                      A                      A
 Frequencies --   3051.5027              3061.7766              3063.1318
 Red. masses --      1.0849                 1.0657                 1.0984
 Frc consts  --      5.9518                 5.8863                 6.0722
 IR Inten    --     20.3666                47.4064                14.0784

                     94                     95                     96
                      A                      A                      A
 Frequencies --   3073.8263              3077.9737              3083.5290
 Red. masses --      1.0872                 1.0820                 1.0959
 Frc consts  --      6.0524                 6.0397                 6.1391
 IR Inten    --     14.7370                53.3709                54.4423

                     97                     98                     99
                      A                      A                      A
 Frequencies --   3086.4696              3092.6323              3094.8085
 Red. masses --      1.0945                 1.0968                 1.0925
 Frc consts  --      6.1429                 6.1804                 6.1651
 IR Inten    --      1.0358                20.6056                46.7751

                    100                    101                    102
                      A                      A                      A
 Frequencies --   3108.6531              3110.7403              3113.4750
 Red. masses --      1.0994                 1.0989                 1.1004
 Frc consts  --      6.2595                 6.2655                 6.2849
 IR Inten    --     29.3210                46.0757                54.4162

                    103                    104                    105
                      A                      A                      A
 Frequencies --   3120.3388              3149.5647              3505.3381
 Red. masses --      1.1000                 1.0951                 1.0734
 Frc consts  --      6.3105                 6.4003                 7.7708
 IR Inten    --     83.9176                17.7698                 0.2632

 - Thermochemistry -
 -------------------
 Temperature   298.150 Kelvin.  Pressure   1.00000 Atm.
 Atom     1 has atomic number  6 and mass  12.00000

 Molecular mass:   197.17796 amu.
 Principal axes and moments of inertia in atomic units:
                           1         2         3
     Eigenvalues --  1338.946635661.937026205.62670
           X            0.99992  -0.01228   0.00012
           Y            0.01228   0.99992  -0.00346
           Z           -0.00008   0.00347   0.99999
 This molecule is an asymmetric top.
 Rotational symmetry number  1.
 Warning -- assumption of classical behavior for rotation
           may cause significant error
 Rotational temperatures (Kelvin)      0.06469     0.01530     0.01396
 Rotational constants (GHZ):           1.34788     0.31875     0.29082
 Zero-point vibrational energy     899825.8 (Joules/Mol)
                                  215.06352 (Kcal/Mol)
 Warning -- explicit consideration of  18 degrees of freedom as
           vibrations may cause significant error
 Vibrational temperatures:     33.88    53.79    88.98   100.83   109.12
          (Kelvin)            141.73   177.35   208.64   219.02   331.96
                              350.69   378.72   410.40   505.45   537.98
                              615.19   664.38   724.40   895.62   981.48
                              991.40  1002.69  1058.52  1118.92  1156.72
                             1197.75  1227.18  1236.41  1274.17  1302.09
                             1329.22  1339.74  1347.72  1374.26  1395.75
                             1406.28  1454.19  1460.86  1479.26  1497.60
                             1523.38  1557.24  1590.56  1610.06  1648.45
                             1665.57  1674.10  1704.27  1735.85  1759.09
                             1771.97  1776.57  1795.45  1805.71  1828.88
                             1851.20  1868.30  1890.75  1896.16  1921.02
                             1925.46  1931.05  1949.65  1967.77  1986.52
                             1998.95  2016.71  2035.49  2040.22  2056.57
                             2073.71  2163.07  2180.94  2186.02  2192.87
                             2196.58  2204.06  2204.84  2214.73  2225.26
                             2227.81  2251.81  4290.05  4316.10  4362.55
                             4363.47  4364.56  4374.73  4379.42  4386.63
                             4390.43  4405.21  4407.16  4422.55  4428.52
                             4436.51  4440.74  4449.61  4452.74  4472.66
                             4475.66  4479.60  4489.47  4531.52  5043.40

 Zero-point correction=                           0.342726 (Hartree/Particle)
 Thermal correction to Energy=                    0.357729
 Thermal correction to Enthalpy=                  0.358674
 Thermal correction to Gibbs Free Energy=         0.298586
 Sum of electronic and zero-point Energies=           -600.799381
 Sum of electronic and thermal Energies=              -600.784377
 Sum of electronic and thermal Enthalpies=            -600.783433
 Sum of electronic and thermal Free Energies=         -600.843521

                     E (Thermal)             CV                S
                      KCal/Mol        Cal/Mol-Kelvin    Cal/Mol-Kelvin
 Total                  224.479             56.029            126.465
 Electronic               0.000              0.000              0.000
 Translational            0.889              2.981             41.742
 Rotational               0.889              2.981             32.220
 Vibrational            222.701             50.068             52.503
 Vibration     1          0.593              1.985              6.310
 Vibration     2          0.594              1.982              5.393
 Vibration     3          0.597              1.973              4.397
 Vibration     4          0.598              1.968              4.151
 Vibration     5          0.599              1.965              3.996
 Vibration     6          0.604              1.950              3.484
 Vibration     7          0.610              1.930              3.048
 Vibration     8          0.616              1.908              2.737
 Vibration     9          0.619              1.900              2.644
 Vibration    10          0.652              1.794              1.873
 Vibration    11          0.659              1.773              1.775
 Vibration    12          0.670              1.740              1.640
 Vibration    13          0.683              1.701              1.502
 Vibration    14          0.728              1.573              1.160
 Vibration    15          0.745              1.526              1.064
 Vibration    16          0.789              1.410              0.867
 Vibration    17          0.819              1.335              0.761
 Vibration    18          0.859              1.242              0.649

 Optimization completed.
    -- Stationary point found.
 Normal termination of Gaussian 16 at Thu Dec 10 09:37:28 2020.

 ----------------------------------------------------------------------
 # B3LYP/6-311++G(d,p) empiricaldispersion=gd3bj scf=xqc pop=npa geom=c
 heck
 ----------------------------------------------------------------------

 ---------------------------------------
 CID_115712374_JID_4109_Energie_neutraal
 ---------------------------------------
 Structure from the checkpoint file:  "JID_4109.chk"
 Charge =  0 Multiplicity = 1

 SCF Done:  E(RB3LYP) =  -601.311902709     A.U. after   14 cycles
 Normal termination of Gaussian 16 at Thu Dec 10 09:42:44 2020.

 ----------------------------------------------------------------------
 # B3LYP/6-311++G(d,p) empiricaldispersion=gd3bj scf=xqc pop=npa geom=c
 heck
 ----------------------------------------------------------------------

 -------------------------------------
 CID_115712374_JID_4109_Energie_kation
 -------------------------------------
 Structure from the checkpoint file:  "JID_4109.chk"
 Charge =  1 Multiplicity = 2

 SCF Done:  E(UB3LYP) =  -601.024130047     A.U. after   22 cycles
 Normal termination of Gaussian 16 at Thu Dec 10 09:54:09 2020.
 Gaussian 16:  ES64L-G16RevA.03 25-Dec-2016

 ----------------------------------------------------------------------
 # B3LYP/6-311++G(d,p) empiricaldispersion=gd3bj scf=xqc pop=npa geom=c
 heck
 ----------------------------------------------------------------------

 ------------------------------------
 CID_115712374_JID_4109_Energie_anion
 ------------------------------------
 Structure from the checkpoint file:  "JID_4109.chk"
 Charge = -1 Multiplicity = 2

                         Standard orientation:
 ---------------------------------------------------------------------
 Center     Atomic      Atomic             Coordinates (Angstroms)
 Number     Number       Type             X           Y           Z
 ---------------------------------------------------------------------
      1          6           0        4.318103   -1.763438    0.253776
      2          6           0        2.809245   -1.523214    0.151205
      3          6           0        2.400362   -0.088099    0.476407
      4          6           0        2.990006    0.995405   -0.453513
      5          6           0        2.023799    2.210412   -0.346398
      6          6           0        0.837433    1.729060    0.529662
      7          6           0        0.876539    0.187757    0.422011
      8          7           0        0.285052   -0.351114   -0.805525
      9          6           0       -1.106033   -0.781226   -0.785791
     10          6           0       -2.208993    0.297255   -0.650581
     11          6           0       -2.497216    0.729665    0.802904
     12          6           0       -3.516089   -0.325252    1.285881
     13          8           0       -4.040140   -0.968480    0.118892
     14          6           0       -3.587234   -0.258792   -1.030184
     15          1           0        4.871412   -1.146822   -0.463998
     16          1           0        4.567749   -2.811043    0.050896
     17          1           0        4.693542   -1.519782    1.255836
     18          1           0        2.450029   -1.768201   -0.854170
     19          1           0        2.283725   -2.205210    0.834447
     20          1           0        2.719549    0.141196    1.505331
     21          1           0        4.018226    1.256194   -0.186232
     22          1           0        3.019833    0.615656   -1.482972
     23          1           0        1.676390    2.517528   -1.339606
     24          1           0        2.510482    3.086955    0.092119
     25          1           0       -0.120117    2.153855    0.216254
     26          1           0        0.998296    2.024011    1.574223
     27          1           0        0.371829   -0.301626    1.262339
     28          1           0        0.447669    0.277848   -1.588158
     29          1           0       -1.279312   -1.325185   -1.723900
     30          1           0       -1.218759   -1.520983    0.016338
     31          1           0       -1.945174    1.153680   -1.283928
     32          1           0       -2.944175    1.729937    0.815239
     33          1           0       -1.607449    0.759883    1.433806
     34          1           0       -3.049799   -1.095596    1.912342
     35          1           0       -4.332232    0.130120    1.862845
     36          1           0       -4.281656    0.559467   -1.285570
     37          1           0       -3.563828   -0.963431   -1.868212
 ---------------------------------------------------------------------

 SCF Done:  E(UB3LYP) =  -601.298173732     A.U. after   29 cycles

 The electronic state is 2-A.
 Alpha  occ. eigenvalues --  -19.02333 -14.19293 -10.11706 -10.11524 -10.09427
 Alpha  occ. eigenvalues --  -10.09396 -10.07585 -10.07132 -10.06500 -10.06389
 Alpha  occ. eigenvalues --  -10.06279 -10.06141 -10.06133 -10.05943  -0.94040
 Alpha  occ. eigenvalues --   -0.81028  -0.72870  -0.69019  -0.66981  -0.64498
 Alpha  occ. eigenvalues --   -0.60654  -0.59656  -0.55793  -0.51425  -0.49778
 Alpha  occ. eigenvalues --   -0.48040  -0.47117  -0.44992  -0.40844  -0.39943
 Alpha  occ. eigenvalues --   -0.39044  -0.37148  -0.35346  -0.34781  -0.34531
 Alpha  occ. eigenvalues --   -0.33483  -0.32158  -0.31477  -0.30755  -0.29878
 Alpha  occ. eigenvalues --   -0.29069  -0.27545  -0.25933  -0.25722  -0.24700
 Alpha  occ. eigenvalues --   -0.24226  -0.23694  -0.23519  -0.23141  -0.22362
 Alpha  occ. eigenvalues --   -0.21809  -0.21402  -0.21124  -0.15829  -0.11673
 Alpha  occ. eigenvalues --    0.04328
 Alpha virt. eigenvalues --    0.06177   0.06815   0.07269   0.08025   0.08571
 Alpha virt. eigenvalues --    0.08822   0.09582   0.09815   0.10421   0.10566
 Alpha virt. eigenvalues --    0.10831   0.11643   0.11869   0.12780   0.12999

  Beta  occ. eigenvalues --  -19.02333 -14.19277 -10.11690 -10.11505 -10.09418
  Beta  occ. eigenvalues --  -10.09391 -10.07570 -10.07113 -10.06491 -10.06372
  Beta  occ. eigenvalues --  -10.06255 -10.06134 -10.06117 -10.05927  -0.94033
  Beta  occ. eigenvalues --   -0.81002  -0.72844  -0.68984  -0.66956  -0.64462
  Beta  occ. eigenvalues --   -0.60621  -0.59617  -0.55750  -0.51380  -0.49730
  Beta  occ. eigenvalues --   -0.47993  -0.47069  -0.44948  -0.40800  -0.39907
  Beta  occ. eigenvalues --   -0.39004  -0.37121  -0.35314  -0.34751  -0.34505
  Beta  occ. eigenvalues --   -0.33455  -0.32128  -0.31443  -0.30728  -0.29850
  Beta  occ. eigenvalues --   -0.29042  -0.27515  -0.25905  -0.25697  -0.24667
  Beta  occ. eigenvalues --   -0.24187  -0.23660  -0.23488  -0.23109  -0.22343
  Beta  occ. eigenvalues --   -0.21784  -0.21377  -0.21095  -0.15812  -0.11653
  Beta virt. eigenvalues --    0.06344   0.06964   0.07443   0.07777   0.08436
  Beta virt. eigenvalues --    0.08919   0.09247   0.10005   0.10134   0.10717
  Beta virt. eigenvalues --    0.10841   0.11222   0.11919   0.12005   0.13030

 Mulliken charges and spin densities:
               1          2
     1  C    0.187814  -0.820393
     2  C   -0.369894   0.096305
     3  C    0.491640  -0.286315
     4  C   -0.848393   0.339961
     5  C    1.694646  -2.319120
     6  C   -1.187467   0.778735
     7  C   -0.057084  -0.045217
     8  N    0.084507   0.029489
     9  C    0.518607  -1.211373
    10  C   -0.480306   0.984325
    11  C    0.214992  -0.336936
    12  C   -0.002775  -0.522764
    13  O   -0.146774   0.020130
    14  C    0.573843  -1.162623
    15  H   -0.086907   0.230476
    16  H   -0.040881   0.171270
    17  H   -0.106537   0.241484
    18  H    0.139814   0.035113
    19  H    0.033625   0.084799
    20  H   -0.091046   0.271220
    21  H   -0.031217   0.170032
    22  H    0.064280   0.100393
    23  H   -0.286511   0.445538
    24  H   -0.203006   0.371438
    25  H    0.346613  -0.190257
    26  H   -0.354162   0.522558
    27  H    0.184387   0.018793
    28  H    0.167072   0.056767
    29  H    0.040265   0.100067
    30  H    0.105691   0.096262
    31  H   -0.692428   0.907358
    32  H   -0.223561   0.420735
    33  H   -0.249638   0.378530
    34  H    0.009068   0.148178
    35  H   -0.116380   0.270614
    36  H   -0.257020   0.418502
    37  H   -0.024879   0.185929
 Sum of Mulliken charges =  -1.00000   1.00000

 Dipole moment (field-independent basis, Debye):
    X=              0.7688    Y=             -3.3681    Z=             -0.0891  Tot=              3.4559
 Quadrupole moment (field-independent basis, Debye-Ang):
   XX=           -176.7564   YY=           -135.3834   ZZ=           -125.3609
   XY=              1.8277   XZ=             -3.6795   YZ=              1.0812

 Summary of Natural Population Analysis:

                                       Natural Population
                Natural  -----------------------------------------------
    Atom  No    Charge         Core      Valence    Rydberg      Total
 -----------------------------------------------------------------------
      C    1   -0.28301      0.99967     2.27937    0.00397     3.28301
      C    2   -0.18858      0.99961     2.18125    0.00772     3.18858
      C    3   -0.10900      0.99957     2.09741    0.01202     3.10900
      C    4   -0.19530      0.99962     2.18674    0.00894     3.19530
      C    5   -0.19473      0.99965     2.18724    0.00785     3.19473
      C    6   -0.20097      0.99962     2.19266    0.00870     3.20097
      C    7   -0.00626      0.99957     1.99324    0.01345     3.00626
      N    8   -0.34640      0.99973     2.83511    0.01155     3.84640
      C    9   -0.08073      0.99960     2.06834    0.01278     3.08073
      C   10   -0.13444      0.99959     2.12331    0.01154     3.13444
      C   11   -0.20861      0.99962     2.20019    0.00880     3.20861
      C   12   -0.01059      0.99960     1.99881    0.01218     3.01059
      O   13   -0.30634      0.99990     3.29775    0.00869     4.30634
      C   14   -0.00728      0.99957     1.99365    0.01406     3.00728
      H   15    0.09597      0.00000     0.40297    0.00107     0.40403
      H   16    0.09490      0.00000     0.40420    0.00090     0.40510
      H   17    0.09435      0.00000     0.40453    0.00112     0.40565
      H   18    0.10267      0.00000     0.39571    0.00162     0.39733
      H   19    0.09339      0.00000     0.40539    0.00122     0.40661
      H   20    0.09511      0.00000     0.40354    0.00135     0.40489
      H   21    0.10105      0.00000     0.39792    0.00103     0.39895
      H   22    0.09469      0.00000     0.40416    0.00116     0.40531
      H   23    0.09608      0.00000     0.40253    0.00139     0.40392
      H   24    0.10031      0.00000     0.39842    0.00127     0.39969
      H   25    0.10306      0.00000     0.39537    0.00157     0.39694
      H   26    0.09840      0.00000     0.40005    0.00155     0.40160
      H   27    0.09544      0.00000     0.40294    0.00162     0.40456
      H   28    0.17322      0.00000     0.32401    0.00277     0.32678
      H   29    0.09230      0.00000     0.40675    0.00095     0.40770
      H   30    0.09195      0.00000     0.40650    0.00155     0.40805
      H   31    0.10532      0.00000     0.39244    0.00223     0.39468
      H   32    0.10254      0.00000     0.39555    0.00191     0.39746
      H   33    0.10655      0.00000     0.39198    0.00147     0.39345
      H   34    0.08236      0.00000     0.41629    0.00136     0.41764
      H   35    0.08337      0.00000     0.41523    0.00140     0.41663
      H   36    0.08070      0.00000     0.41773    0.00157     0.41930
      H   37    0.08855      0.00000     0.41003    0.00142     0.41145
 =======================================================================
   * Total *   -0.00000     13.99493    40.82930    0.17577    55.00000

 Normal termination of Gaussian 16 at Thu Dec 10 10:08:58 2020.
