 Gaussian 16, Revision A.03,

 -----------------------------------------------------------
 # opt freq B3LYP/6-31G(d) empiricaldispersion=gd3bj scf=xqc
 -----------------------------------------------------------

 -------------------------------
 CID_131410976_JID_3946_neutraal
 -------------------------------
 Symbolic Z-matrix:
 Charge =  0 Multiplicity = 1

 SCF Done:  E(RB3LYP) =  -602.681221509     A.U. after   16 cycles
 SCF Done:  E(RB3LYP) =  -602.705056246     A.U. after   13 cycles
 SCF Done:  E(RB3LYP) =  -602.705967901     A.U. after   12 cycles
 SCF Done:  E(RB3LYP) =  -602.706188203     A.U. after   12 cycles
 SCF Done:  E(RB3LYP) =  -602.706374693     A.U. after   12 cycles
 SCF Done:  E(RB3LYP) =  -602.706533127     A.U. after   13 cycles
 SCF Done:  E(RB3LYP) =  -602.706692323     A.U. after   12 cycles
 SCF Done:  E(RB3LYP) =  -602.706920105     A.U. after   12 cycles
 SCF Done:  E(RB3LYP) =  -602.706973935     A.U. after   11 cycles
 SCF Done:  E(RB3LYP) =  -602.706988012     A.U. after   10 cycles
 SCF Done:  E(RB3LYP) =  -602.706991761     A.U. after   10 cycles
 SCF Done:  E(RB3LYP) =  -602.706992515     A.U. after    8 cycles
 SCF Done:  E(RB3LYP) =  -602.706992634     A.U. after    7 cycles
 Optimization completed.
    -- Stationary point found.
 Normal termination of Gaussian 16 at Mon Dec 14 16:28:56 2020.

 --------------------------------------------------------------------
 #N Geom=AllCheck Guess=TCheck SCRF=Check GenChk RB3LYP/6-31G(d) Freq
 --------------------------------------------------------------------

 Structure from the checkpoint file:  "JID_3946.chk"
 -------------------------------
 CID_131410976_JID_3946_neutraal
 -------------------------------
 Charge =  0 Multiplicity = 1

 SCF Done:  E(RB3LYP) =  -602.706992634     A.U. after    1 cycles

  Exact polarizability: 158.768 -10.110  90.871  -7.633  -5.617  62.030
 Approx polarizability: 222.671 -17.597 170.269 -14.332 -13.287 106.761

                      1                      2                      3
                      A                      A                      A
 Frequencies --     33.2156                51.1277               128.6275
 Red. masses --      8.0282                 8.0083                 7.4757
 Frc consts  --      0.0052                 0.0123                 0.0729
 IR Inten    --      2.8967                 1.9419                 2.9683

                      4                      5                      6
                      A                      A                      A
 Frequencies --    176.4205               238.4166               258.7852
 Red. masses --      3.3110                 5.3645                 6.8882
 Frc consts  --      0.0607                 0.1797                 0.2718
 IR Inten    --      8.4711                 4.0334                 2.4440

                      7                      8                      9
                      A                      A                      A
 Frequencies --    340.3457               357.9835               367.9077
 Red. masses --      5.6481                 4.6687                 3.1744
 Frc consts  --      0.3855                 0.3525                 0.2532
 IR Inten    --     19.5064                 2.6982                 1.5261

                     10                     11                     12
                      A                      A                      A
 Frequencies --    443.9293               484.5171               517.4496
 Red. masses --      4.5475                 5.0279                 1.6560
 Frc consts  --      0.5280                 0.6954                 0.2612
 IR Inten    --      0.9571                42.6318               114.0330

                     13                     14                     15
                      A                      A                      A
 Frequencies --    579.0821               598.5857               643.1243
 Red. masses --      6.5847                 4.0007                 5.1586
 Frc consts  --      1.3010                 0.8446                 1.2571
 IR Inten    --     34.6959                 2.8478                15.6745

                     16                     17                     18
                      A                      A                      A
 Frequencies --    656.3746               718.1904               732.9216
 Red. masses --      8.1173                 3.8065                 9.7057
 Frc consts  --      2.0605                 1.1568                 3.0718
 IR Inten    --      2.2948                 8.5985                11.6591

                     19                     20                     21
                      A                      A                      A
 Frequencies --    775.2545               810.0780               861.0886
 Red. masses --      5.0219                 1.4354                 6.3960
 Frc consts  --      1.7783                 0.5550                 2.7942
 IR Inten    --     10.1532                37.1013                21.3771

                     22                     23                     24
                      A                      A                      A
 Frequencies --    909.3637               918.4455               936.6023
 Red. masses --      7.3715                 5.5237                 1.3769
 Frc consts  --      3.5915                 2.7453                 0.7116
 IR Inten    --      7.6105                18.6826                 0.6127

                     25                     26                     27
                      A                      A                      A
 Frequencies --    957.8297               974.3023              1054.1565
 Red. masses --      3.9814                 1.2974                 2.6905
 Frc consts  --      2.1521                 0.7256                 1.7615
 IR Inten    --     17.9184                 1.3249                 7.1594

                     28                     29                     30
                      A                      A                      A
 Frequencies --   1071.5561              1125.2799              1145.4366
 Red. masses --      2.3369                 4.1352                 1.5837
 Frc consts  --      1.5810                 3.0851                 1.2242
 IR Inten    --     13.7320                19.0050                 4.7075

                     31                     32                     33
                      A                      A                      A
 Frequencies --   1196.9365              1264.0489              1286.5666
 Red. masses --      3.5072                 3.0113                 1.6133
 Frc consts  --      2.9604                 2.8348                 1.5733
 IR Inten    --     37.3022               100.0455                24.2460

                     34                     35                     36
                      A                      A                      A
 Frequencies --   1319.8274              1339.8846              1397.9154
 Red. masses --      1.8555                 1.8280                 1.7725
 Frc consts  --      1.9043                 1.9336                 2.0408
 IR Inten    --     20.6304               118.7447                12.5495

                     37                     38                     39
                      A                      A                      A
 Frequencies --   1402.9734              1438.7618              1481.2987
 Red. masses --      2.1675                 2.9766                 1.0779
 Frc consts  --      2.5136                 3.6304                 1.3935
 IR Inten    --     30.5589                93.8935                13.2730

                     40                     41                     42
                      A                      A                      A
 Frequencies --   1518.7739              1551.1410              1629.3922
 Red. masses --      2.4901                 1.9105                 6.5810
 Frc consts  --      3.3842                 2.7083                10.2942
 IR Inten    --      0.5288                79.6238               308.4150

                     43                     44                     45
                      A                      A                      A
 Frequencies --   1669.0984              1695.7449              2372.6652
 Red. masses --      8.3222                 9.0145                12.5820
 Frc consts  --     13.6601                15.2725                41.7324
 IR Inten    --     20.9865               411.9283                 0.4162

                     46                     47                     48
                      A                      A                      A
 Frequencies --   3094.3754              3145.8967              3196.9470
 Red. masses --      1.0608                 1.1042                 1.0882
 Frc consts  --      5.9843                 6.4386                 6.5530
 IR Inten    --     13.4789                 0.8564                 7.0016

                     49                     50                     51
                      A                      A                      A
 Frequencies --   3214.3992              3228.4624              3606.0942
 Red. masses --      1.0918                 1.0960                 1.0766
 Frc consts  --      6.6464                 6.7306                 8.2487
 IR Inten    --     18.0619                 8.8882                59.5161

 - Thermochemistry -
 -------------------
 Temperature   298.150 Kelvin.  Pressure   1.00000 Atm.
 Atom     1 has atomic number  6 and mass  12.00000

 Molecular mass:   174.05416 amu.
 Principal axes and moments of inertia in atomic units:
                           1         2         3
     Eigenvalues --   809.010714078.733434413.36025
           X            0.99983  -0.01535  -0.01047
           Y            0.01506   0.99953  -0.02683
           Z            0.01087   0.02666   0.99959
 This molecule is an asymmetric top.
 Rotational symmetry number  1.
 Warning -- assumption of classical behavior for rotation
           may cause significant error
 Rotational temperatures (Kelvin)      0.10706     0.02124     0.01963
 Rotational constants (GHZ):           2.23080     0.44248     0.40893
 Zero-point vibrational energy     364368.2 (Joules/Mol)
                                   87.08608 (Kcal/Mol)
 Warning -- explicit consideration of  14 degrees of freedom as
           vibrations may cause significant error
 Vibrational temperatures:     47.79    73.56   185.07   253.83   343.03
          (Kelvin)            372.33   489.68   515.06   529.34   638.72
                              697.11   744.49   833.17   861.23   925.31
                              944.38  1033.32  1054.51  1115.42  1165.52
                             1238.91  1308.37  1321.44  1347.56  1378.10
                             1401.80  1516.70  1541.73  1619.03  1648.03
                             1722.12  1818.68  1851.08  1898.94  1927.80
                             2011.29  2018.57  2070.06  2131.26  2185.18
                             2231.75  2344.33  2401.46  2439.80  3413.74
                             4452.12  4526.24  4599.69  4624.80  4645.04
                             5188.37

 Zero-point correction=                           0.138781 (Hartree/Particle)
 Thermal correction to Energy=                    0.148826
 Thermal correction to Enthalpy=                  0.149770
 Thermal correction to Gibbs Free Energy=         0.101718
 Sum of electronic and zero-point Energies=           -602.568212
 Sum of electronic and thermal Energies=              -602.558166
 Sum of electronic and thermal Enthalpies=            -602.557222
 Sum of electronic and thermal Free Energies=         -602.605274

                     E (Thermal)             CV                S
                      KCal/Mol        Cal/Mol-Kelvin    Cal/Mol-Kelvin
 Total                   93.390             38.040            101.134
 Electronic               0.000              0.000              0.000
 Translational            0.889              2.981             41.370
 Rotational               0.889              2.981             31.055
 Vibrational             91.612             32.078             28.709
 Vibration     1          0.594              1.983              5.627
 Vibration     2          0.595              1.977              4.773
 Vibration     3          0.611              1.925              2.966
 Vibration     4          0.628              1.871              2.366
 Vibration     5          0.656              1.782              1.815
 Vibration     6          0.668              1.748              1.670
 Vibration     7          0.720              1.595              1.211
 Vibration     8          0.733              1.559              1.131
 Vibration     9          0.741              1.538              1.089
 Vibration    10          0.803              1.374              0.814
 Vibration    11          0.841              1.284              0.698
 Vibration    12          0.872              1.211              0.616
 Vibration    13          0.936              1.077              0.487
 Vibration    14          0.957              1.035              0.452

                           ! Non-Optimized Parameters !
 Normal termination of Gaussian 16 at Mon Dec 14 16:32:50 2020.

 ----------------------------------------------------------------------
 # B3LYP/6-311++G(d,p) empiricaldispersion=gd3bj scf=xqc pop=npa geom=c
 heck
 ----------------------------------------------------------------------

 ---------------------------------------
 CID_131410976_JID_3946_Energie_neutraal
 ---------------------------------------
 Structure from the checkpoint file:  "JID_3946.chk"
 Charge =  0 Multiplicity = 1

 SCF Done:  E(RB3LYP) =  -602.870038780     A.U. after   15 cycles
 Normal termination of Gaussian 16 at Mon Dec 14 16:34:25 2020.

 ----------------------------------------------------------------------
 # B3LYP/6-311++G(d,p) empiricaldispersion=gd3bj scf=xqc pop=npa geom=c
 heck
 ----------------------------------------------------------------------

 -------------------------------------
 CID_131410976_JID_3946_Energie_kation
 -------------------------------------
 Structure from the checkpoint file:  "JID_3946.chk"
 Charge =  1 Multiplicity = 2

 SCF Done:  E(UB3LYP) =  -602.557456894     A.U. after   22 cycles
 Normal termination of Gaussian 16 at Mon Dec 14 16:37:35 2020.
 Gaussian 16:  ES64L-G16RevA.03 25-Dec-2016

 ----------------------------------------------------------------------
 # B3LYP/6-311++G(d,p) empiricaldispersion=gd3bj scf=xqc pop=npa geom=c
 heck
 ----------------------------------------------------------------------

 ------------------------------------
 CID_131410976_JID_3946_Energie_anion
 ------------------------------------
 Structure from the checkpoint file:  "JID_3946.chk"
 Charge = -1 Multiplicity = 2

                         Standard orientation:
 ---------------------------------------------------------------------
 Center     Atomic      Atomic             Coordinates (Angstroms)
 Number     Number       Type             X           Y           Z
 ---------------------------------------------------------------------
      1          6           0       -3.335581    1.052342    0.030579
      2          6           0       -2.081187    1.512651   -0.391797
      3          6           0       -1.039280    0.594550   -0.329512
      4          6           0       -1.349014   -0.690934    0.148702
      5          7           0       -2.496959   -1.165377    0.552657
      6          6           0       -3.498617   -0.261286    0.484495
      7          8           0       -0.168965   -1.427925    0.126291
      8          6           0        0.746083   -0.535923   -0.358030
      9          7           0        0.319843    0.660565   -0.641956
     10          7           0        2.007844   -1.023322   -0.535309
     11          6           0        3.082175   -0.071539   -0.765416
     12          6           0        3.572397    0.566477    0.472121
     13          7           0        3.957646    1.032370    1.462118
     14          1           0       -4.194724    1.714970    0.009388
     15          1           0       -1.927531    2.526308   -0.746451
     16          1           0       -4.473502   -0.612426    0.810877
     17          1           0        2.228701   -1.850016    0.005680
     18          1           0        3.913417   -0.583802   -1.258628
     19          1           0        2.704867    0.700688   -1.440620
 ---------------------------------------------------------------------

 SCF Done:  E(UB3LYP) =  -602.867579153     A.U. after   30 cycles

 The electronic state is 2-A.
 Alpha  occ. eigenvalues --  -19.08434 -14.24770 -14.21181 -14.19388 -14.19030
 Alpha  occ. eigenvalues --  -10.18621 -10.14805 -10.14062 -10.10961 -10.08933
 Alpha  occ. eigenvalues --  -10.08555 -10.06679 -10.06192  -1.02597  -0.86625
 Alpha  occ. eigenvalues --   -0.83202  -0.81252  -0.80287  -0.68408  -0.66747
 Alpha  occ. eigenvalues --   -0.62306  -0.53576  -0.52938  -0.49195  -0.46093
 Alpha  occ. eigenvalues --   -0.43444  -0.41725  -0.39042  -0.38136  -0.37139
 Alpha  occ. eigenvalues --   -0.35457  -0.33528  -0.31205  -0.28541  -0.28188
 Alpha  occ. eigenvalues --   -0.27565  -0.26958  -0.24345  -0.23693  -0.23089
 Alpha  occ. eigenvalues --   -0.20346  -0.20022  -0.16025  -0.15306  -0.11333
 Alpha  occ. eigenvalues --    0.04540
 Alpha virt. eigenvalues --    0.06300   0.07795   0.08908   0.09626   0.10406
 Alpha virt. eigenvalues --    0.10677   0.11102   0.11976   0.12571   0.13169
 Alpha virt. eigenvalues --    0.14047   0.14551   0.14880   0.15709   0.17050

  Beta  occ. eigenvalues --  -19.08447 -14.24693 -14.21129 -14.19421 -14.18758
  Beta  occ. eigenvalues --  -10.18465 -10.14761 -10.14076 -10.10954 -10.08862
  Beta  occ. eigenvalues --  -10.08444 -10.06725 -10.05945  -1.02543  -0.86493
  Beta  occ. eigenvalues --   -0.82875  -0.81167  -0.80193  -0.68069  -0.66579
  Beta  occ. eigenvalues --   -0.62112  -0.53323  -0.52758  -0.48978  -0.45973
  Beta  occ. eigenvalues --   -0.43324  -0.41574  -0.38893  -0.37959  -0.36912
  Beta  occ. eigenvalues --   -0.35327  -0.33411  -0.31137  -0.28388  -0.27647
  Beta  occ. eigenvalues --   -0.27463  -0.26635  -0.24143  -0.23452  -0.23027
  Beta  occ. eigenvalues --   -0.20257  -0.19493  -0.15230  -0.15059  -0.10726
  Beta virt. eigenvalues --    0.07707   0.08040   0.08686   0.09428   0.09991
  Beta virt. eigenvalues --    0.10664   0.10885   0.11473   0.12125   0.12765
  Beta virt. eigenvalues --    0.13353   0.14306   0.14920   0.14927   0.15707

 Mulliken charges and spin densities:
               1          2
     1  C   -0.042602  -0.043192
     2  C   -0.450333   0.257222
     3  C    0.603945  -0.208014
     4  C   -0.003437  -0.206392
     5  N   -0.172358   0.115073
     6  C   -0.314162   0.084690
     7  O   -0.141226   0.002379
     8  C    0.195116  -0.127886
     9  N   -0.078510  -0.090379
    10  N   -0.309508   0.220136
    11  C    0.806662  -1.065433
    12  C    0.108113   0.023910
    13  N   -0.314220   0.002512
    14  H    0.127498   0.001766
    15  H    0.142036  -0.004775
    16  H    0.156636  -0.007426
    17  H   -0.368473   0.667634
    18  H   -1.113880   1.345951
    19  H    0.168702   0.032224
 Sum of Mulliken charges =  -1.00000   1.00000

 Dipole moment (field-independent basis, Debye):
    X=             -6.6684    Y=              2.9850    Z=             -0.9794  Tot=              7.3713
 Quadrupole moment (field-independent basis, Debye-Ang):
   XX=           -143.3032   YY=           -100.0785   ZZ=            -95.4140
   XY=              2.6334   XZ=             -0.6385   YZ=             -4.0446

 Summary of Natural Population Analysis:

                                       Natural Population
                Natural  -----------------------------------------------
    Atom  No    Charge         Core      Valence    Rydberg      Total
 -----------------------------------------------------------------------
      C    1   -0.14094      0.99958     2.13337    0.00799     3.14094
      C    2   -0.05309      0.99954     2.04448    0.00907     3.05309
      C    3    0.04141      0.99943     1.94647    0.01269     2.95859
      C    4    0.23471      0.99937     1.74523    0.02069     2.76529
      N    5   -0.20630      0.99965     2.69673    0.00993     3.70630
      C    6    0.02613      0.99961     1.96007    0.01418     2.97387
      O    7   -0.25009      0.99985     3.24403    0.00621     4.25009
      C    8    0.38534      0.99958     1.59312    0.02197     2.61466
      N    9   -0.29562      0.99966     2.78752    0.00844     3.79562
      N   10   -0.30658      0.99966     2.79461    0.01231     3.80658
      C   11   -0.14158      0.99953     2.12935    0.01270     3.14158
      C   12    0.15282      0.99965     1.83172    0.01582     2.84718
      N   13   -0.17669      0.99979     2.66561    0.01129     3.67669
      H   14    0.09639      0.00000     0.40268    0.00093     0.40361
      H   15    0.09730      0.00000     0.40127    0.00142     0.40270
      H   16    0.08270      0.00000     0.41607    0.00123     0.41730
      H   17    0.20306      0.00000     0.28861    0.00833     0.29694
      H   18    0.12428      0.00000     0.36592    0.00980     0.37572
      H   19    0.12674      0.00000     0.37101    0.00225     0.37326
 =======================================================================
   * Total *   -0.00000     12.99490    31.81785    0.18725    45.00000

 Normal termination of Gaussian 16 at Mon Dec 14 16:41:48 2020.
