 Gaussian 16, Revision A.03,

 -----------------------------------------------------------
 # opt freq B3LYP/6-31G(d) empiricaldispersion=gd3bj scf=xqc
 -----------------------------------------------------------

 ------------------------------
 CID_81893279_JID_7942_neutraal
 ------------------------------
 Symbolic Z-matrix:
 Charge =  0 Multiplicity = 1

 SCF Done:  E(RB3LYP) =  -768.609215733     A.U. after   13 cycles
 SCF Done:  E(RB3LYP) =  -768.612679195     A.U. after   12 cycles
 SCF Done:  E(RB3LYP) =  -768.610921790     A.U. after   13 cycles
 SCF Done:  E(RB3LYP) =  -768.613210419     A.U. after   12 cycles
 SCF Done:  E(RB3LYP) =  -768.613817332     A.U. after   12 cycles
 SCF Done:  E(RB3LYP) =  -768.614662686     A.U. after   11 cycles
 SCF Done:  E(RB3LYP) =  -768.614717643     A.U. after   11 cycles
 SCF Done:  E(RB3LYP) =  -768.615020754     A.U. after   11 cycles
 SCF Done:  E(RB3LYP) =  -768.615067769     A.U. after   11 cycles
 SCF Done:  E(RB3LYP) =  -768.615131598     A.U. after   10 cycles
 SCF Done:  E(RB3LYP) =  -768.616233437     A.U. after    9 cycles
 SCF Done:  E(RB3LYP) =  -768.616233863     A.U. after    9 cycles
 SCF Done:  E(RB3LYP) =  -768.616233773     A.U. after    9 cycles
 SCF Done:  E(RB3LYP) =  -768.616233868     A.U. after    8 cycles
 SCF Done:  E(RB3LYP) =  -768.616233858     A.U. after    6 cycles
 Optimization completed on the basis of negligible forces.
    -- Stationary point found.
 Normal termination of Gaussian 16 at Fri Dec 11 14:00:57 2020.

 --------------------------------------------------------------------
 #N Geom=AllCheck Guess=TCheck SCRF=Check GenChk RB3LYP/6-31G(d) Freq
 --------------------------------------------------------------------

 Structure from the checkpoint file:  "JID_7942.chk"
 ------------------------------
 CID_81893279_JID_7942_neutraal
 ------------------------------
 Charge =  0 Multiplicity = 1

 SCF Done:  E(RB3LYP) =  -768.616233858     A.U. after    1 cycles

  Exact polarizability: 170.191 -11.686 143.548   8.696   9.484 147.399
 Approx polarizability: 245.545 -34.487 197.183  17.798  24.971 233.538

                      1                      2                      3
                      A                      A                      A
 Frequencies --      7.6292                32.3265                49.0636
 Red. masses --      3.5108                 4.6313                 4.0161
 Frc consts  --      0.0001                 0.0029                 0.0057
 IR Inten    --      0.2222                 0.4043                 0.5936

                      4                      5                      6
                      A                      A                      A
 Frequencies --     65.8921                68.6873                85.0289
 Red. masses --      3.2259                 2.7380                 2.1539
 Frc consts  --      0.0083                 0.0076                 0.0092
 IR Inten    --      2.3534                 0.0312                 0.4066

                      7                      8                      9
                      A                      A                      A
 Frequencies --     88.6481               110.3068               142.7040
 Red. masses --      3.0660                 2.5394                 2.2779
 Frc consts  --      0.0142                 0.0182                 0.0273
 IR Inten    --      0.4772                 0.6672                 2.9378

                     10                     11                     12
                      A                      A                      A
 Frequencies --    173.5653               192.2931               200.3932
 Red. masses --      2.3332                 1.3605                 1.5384
 Frc consts  --      0.0414                 0.0296                 0.0364
 IR Inten    --      0.8963                 0.3396                 0.8073

                     13                     14                     15
                      A                      A                      A
 Frequencies --    210.4424               239.0628               248.2147
 Red. masses --      1.2118                 2.6985                 1.3184
 Frc consts  --      0.0316                 0.0909                 0.0479
 IR Inten    --      0.2584                 0.8998                 0.0543

                     16                     17                     18
                      A                      A                      A
 Frequencies --    256.4586               283.8039               307.3303
 Red. masses --      1.9318                 3.0451                 2.9785
 Frc consts  --      0.0749                 0.1445                 0.1658
 IR Inten    --      0.3731                 0.7354                 0.6806

                     19                     20                     21
                      A                      A                      A
 Frequencies --    313.5453               404.1225               411.1500
 Red. masses --      2.9259                 2.6502                 3.5355
 Frc consts  --      0.1695                 0.2550                 0.3521
 IR Inten    --      1.6662                 1.8101                 3.9145

                     22                     23                     24
                      A                      A                      A
 Frequencies --    421.6638               436.9261               471.4987
 Red. masses --      3.9354                 3.1928                 3.9575
 Frc consts  --      0.4123                 0.3591                 0.5184
 IR Inten    --      6.0238                 5.5815                13.6004

                     25                     26                     27
                      A                      A                      A
 Frequencies --    478.6362               494.0071               516.6150
 Red. masses --      2.4711                 3.8556                 4.3167
 Frc consts  --      0.3335                 0.5544                 0.6788
 IR Inten    --      1.6080                 3.4664                 3.9252

                     28                     29                     30
                      A                      A                      A
 Frequencies --    595.6780               642.6012               648.5492
 Red. masses --      3.0264                 4.1005                 3.7771
 Frc consts  --      0.6327                 0.9976                 0.9360
 IR Inten    --     11.6037                10.4523                 5.9294

                     31                     32                     33
                      A                      A                      A
 Frequencies --    700.7356               735.7062               775.3044
 Red. masses --      5.0031                 2.2678                 1.5883
 Frc consts  --      1.4474                 0.7232                 0.5625
 IR Inten    --      0.2018                13.4006               134.8579

                     34                     35                     36
                      A                      A                      A
 Frequencies --    810.8462               821.4056               872.2608
 Red. masses --      1.1153                 3.1333                 2.3090
 Frc consts  --      0.4320                 1.2456                 1.0350
 IR Inten    --      1.0525                 5.6600                15.7326

                     37                     38                     39
                      A                      A                      A
 Frequencies --    884.0221               909.9458               925.4075
 Red. masses --      1.7129                 1.3135                 2.9004
 Frc consts  --      0.7887                 0.6408                 1.4634
 IR Inten    --     17.7343                 1.8858                 1.3728

                     40                     41                     42
                      A                      A                      A
 Frequencies --    938.5943               941.5638               959.1920
 Red. masses --      1.3816                 1.4670                 1.2241
 Frc consts  --      0.7171                 0.7663                 0.6635
 IR Inten    --      0.0256                 1.0096                 0.0275

                     43                     44                     45
                      A                      A                      A
 Frequencies --    986.5396               997.1534              1021.0792
 Red. masses --      2.7299                 2.5058                 2.1682
 Frc consts  --      1.5654                 1.4680                 1.3319
 IR Inten    --     24.4071                 7.2437                 6.8612

                     46                     47                     48
                      A                      A                      A
 Frequencies --   1042.9312              1057.3507              1065.0319
 Red. masses --      4.2552                 2.2683                 3.1412
 Frc consts  --      2.7270                 1.4941                 2.0993
 IR Inten    --     15.5299                11.9687                 3.2110

                     49                     50                     51
                      A                      A                      A
 Frequencies --   1115.8363              1148.6720              1154.6273
 Red. masses --      2.0306                 2.6019                 2.5076
 Frc consts  --      1.4896                 2.0227                 1.9697
 IR Inten    --     19.8409               125.0332                24.2631

                     52                     53                     54
                      A                      A                      A
 Frequencies --   1162.9691              1170.8644              1176.6405
 Red. masses --      2.2574                 1.9080                 1.6856
 Frc consts  --      1.7989                 1.5412                 1.3749
 IR Inten    --     14.8125                 4.1325                19.0903

                     55                     56                     57
                      A                      A                      A
 Frequencies --   1185.7411              1207.0350              1212.8082
 Red. masses --      2.2664                 1.9943                 2.0593
 Frc consts  --      1.8775                 1.7119                 1.7847
 IR Inten    --     51.5639                35.1686                64.2485

                     58                     59                     60
                      A                      A                      A
 Frequencies --   1217.6732              1226.9389              1280.6017
 Red. masses --      1.9601                 2.0461                 1.8883
 Frc consts  --      1.7123                 1.8148                 1.8245
 IR Inten    --    106.8793                 4.7603                23.0984

                     61                     62                     63
                      A                      A                      A
 Frequencies --   1294.5232              1315.3860              1336.4762
 Red. masses --      2.0105                 2.1336                 1.2905
 Frc consts  --      1.9850                 2.1750                 1.3581
 IR Inten    --    111.2026                54.5452                 2.0362

                     64                     65                     66
                      A                      A                      A
 Frequencies --   1350.6981              1364.4776              1380.5500
 Red. masses --      1.1436                 1.6102                 1.3097
 Frc consts  --      1.2292                 1.7662                 1.4707
 IR Inten    --      3.5512                65.2848                10.4995

                     67                     68                     69
                      A                      A                      A
 Frequencies --   1392.4735              1400.3214              1429.1945
 Red. masses --      1.3157                 1.2475                 1.2478
 Frc consts  --      1.5031                 1.4413                 1.5017
 IR Inten    --      3.9318                24.1718                 6.9744

                     70                     71                     72
                      A                      A                      A
 Frequencies --   1431.1001              1436.0182              1443.5490
 Red. masses --      1.2755                 1.2983                 1.3170
 Frc consts  --      1.5392                 1.5774                 1.6169
 IR Inten    --     12.6224                 7.3045                22.9077

                     73                     74                     75
                      A                      A                      A
 Frequencies --   1448.6944              1480.9491              1483.9442
 Red. masses --      1.2476                 1.4483                 2.0419
 Frc consts  --      1.5427                 1.8715                 2.6492
 IR Inten    --     17.0635                46.1613                43.8083

                     76                     77                     78
                      A                      A                      A
 Frequencies --   1503.4530              1511.1165              1516.3243
 Red. masses --      2.0787                 1.2376                 1.0734
 Frc consts  --      2.7684                 1.6651                 1.4542
 IR Inten    --     19.4508                22.3872                 0.6673

                     79                     80                     81
                      A                      A                      A
 Frequencies --   1517.5916              1518.4178              1519.3649
 Red. masses --      1.0492                 1.0454                 1.0594
 Frc consts  --      1.4237                 1.4201                 1.4409
 IR Inten    --      0.7286                 3.1751                 0.7617

                     82                     83                     84
                      A                      A                      A
 Frequencies --   1521.1677              1528.5136              1529.9195
 Red. masses --      1.0786                 1.0994                 1.0683
 Frc consts  --      1.4704                 1.5134                 1.4733
 IR Inten    --      9.1187                 6.2540                 4.4721

                     85                     86                     87
                      A                      A                      A
 Frequencies --   1539.3415              1545.8494              1550.2576
 Red. masses --      1.0694                 1.0913                 1.0500
 Frc consts  --      1.4931                 1.5365                 1.4868
 IR Inten    --      7.8746                 5.4341                 7.4218

                     88                     89                     90
                      A                      A                      A
 Frequencies --   1627.4712              1647.2882              2989.9451
 Red. masses --      5.8457                 5.5360                 1.0545
 Frc consts  --      9.1225                 8.8509                 5.5541
 IR Inten    --      0.4407                92.2737                59.7441

                     91                     92                     93
                      A                      A                      A
 Frequencies --   2999.7035              3042.7483              3049.4742
 Red. masses --      1.0670                 1.0646                 1.0374
 Frc consts  --      5.6568                 5.8072                 5.6837
 IR Inten    --     28.8669                32.7355                14.1252

                     94                     95                     96
                      A                      A                      A
 Frequencies --   3055.1066              3064.3989              3068.5544
 Red. masses --      1.0831                 1.0371                 1.0410
 Frc consts  --      5.9562                 5.7381                 5.7754
 IR Inten    --     20.6886                14.8450                 9.6403

                     97                     98                     99
                      A                      A                      A
 Frequencies --   3075.4472              3081.5362              3095.8341
 Red. masses --      1.0828                 1.0792                 1.0970
 Frc consts  --      6.0339                 6.0381                 6.1944
 IR Inten    --     22.7389                47.6324                49.7588

                    100                    101                    102
                      A                      A                      A
 Frequencies --   3098.6299              3117.4411              3123.5788
 Red. masses --      1.0999                 1.1007                 1.1034
 Frc consts  --      6.2224                 6.3027                 6.3428
 IR Inten    --      4.8779                45.6293                26.5497

                    103                    104                    105
                      A                      A                      A
 Frequencies --   3131.3591              3132.4870              3134.6696
 Red. masses --      1.1007                 1.1036                 1.1015
 Frc consts  --      6.3588                 6.3803                 6.3772
 IR Inten    --      8.7485                41.9466                39.1468

                    106                    107                    108
                      A                      A                      A
 Frequencies --   3148.7595              3151.8826              3179.9853
 Red. masses --      1.1022                 1.1010                 1.0880
 Frc consts  --      6.4383                 6.4446                 6.4826
 IR Inten    --      4.4424                59.2831                31.2245

                    109                    110                    111
                      A                      A                      A
 Frequencies --   3184.2249              3242.5178              3487.0478
 Red. masses --      1.0928                 1.0879                 1.0733
 Frc consts  --      6.5284                 6.7392                 7.6891
 IR Inten    --      5.0752                11.1050                 2.8101

 - Thermochemistry -
 -------------------
 Temperature   298.150 Kelvin.  Pressure   1.00000 Atm.
 Atom     1 has atomic number  6 and mass  12.00000

 Molecular mass:   238.16813 amu.
 Principal axes and moments of inertia in atomic units:
                           1         2         3
     Eigenvalues --  3429.931345648.351636233.59501
           X            0.99957   0.02689   0.01182
           Y           -0.02612   0.99778  -0.06126
           Z           -0.01344   0.06093   0.99805
 This molecule is an asymmetric top.
 Rotational symmetry number  1.
 Warning -- assumption of classical behavior for rotation
           may cause significant error
 Rotational temperatures (Kelvin)      0.02525     0.01533     0.01389
 Rotational constants (GHZ):           0.52617     0.31952     0.28952
 Zero-point vibrational energy     900322.0 (Joules/Mol)
                                  215.18212 (Kcal/Mol)
 Warning -- explicit consideration of  28 degrees of freedom as
           vibrations may cause significant error
 Vibrational temperatures:     10.98    46.51    70.59    94.80    98.83
          (Kelvin)            122.34   127.54   158.71   205.32   249.72
                              276.67   288.32   302.78   343.96   357.13
                              368.99   408.33   442.18   451.12   581.44
                              591.55   606.68   628.64   678.38   688.65
                              710.77   743.29   857.05   924.56   933.12
                             1008.20  1058.52  1115.49  1166.63  1181.82
                             1254.99  1271.91  1309.21  1331.45  1350.43
                             1354.70  1380.06  1419.41  1434.68  1469.11
                             1500.55  1521.29  1532.34  1605.44  1652.68
                             1661.25  1673.25  1684.61  1692.92  1706.02
                             1736.65  1744.96  1751.96  1765.29  1842.50
                             1862.53  1892.55  1922.89  1943.35  1963.18
                             1986.30  2003.46  2014.75  2056.29  2059.03
                             2066.11  2076.95  2084.35  2130.76  2135.06
                             2163.13  2174.16  2181.65  2183.48  2184.66
                             2186.03  2188.62  2199.19  2201.21  2214.77
                             2224.13  2230.47  2341.57  2370.08  4301.86
                             4315.90  4377.84  4387.51  4395.62  4408.99
                             4414.97  4424.88  4433.64  4454.21  4458.24
                             4485.30  4494.13  4505.33  4506.95  4510.09
                             4530.36  4534.86  4575.29  4581.39  4665.26
                             5017.08

 Zero-point correction=                           0.342915 (Hartree/Particle)
 Thermal correction to Energy=                    0.361794
 Thermal correction to Enthalpy=                  0.362738
 Thermal correction to Gibbs Free Energy=         0.293446
 Sum of electronic and zero-point Energies=           -768.273319
 Sum of electronic and thermal Energies=              -768.254440
 Sum of electronic and thermal Enthalpies=            -768.253496
 Sum of electronic and thermal Free Energies=         -768.322788

                     E (Thermal)             CV                S
                      KCal/Mol        Cal/Mol-Kelvin    Cal/Mol-Kelvin
 Total                  227.029             69.102            145.839
 Electronic               0.000              0.000              0.000
 Translational            0.889              2.981             42.305
 Rotational               0.889              2.981             33.157
 Vibrational            225.252             63.140             70.377
 Vibration     1          0.593              1.987              8.549
 Vibration     2          0.594              1.983              5.681
 Vibration     3          0.595              1.978              4.855
 Vibration     4          0.597              1.971              4.272
 Vibration     5          0.598              1.969              4.191
 Vibration     6          0.601              1.960              3.771
 Vibration     7          0.601              1.957              3.690
 Vibration     8          0.606              1.941              3.264
 Vibration     9          0.616              1.910              2.767
 Vibration    10          0.627              1.875              2.397
 Vibration    11          0.634              1.851              2.206
 Vibration    12          0.638              1.839              2.129
 Vibration    13          0.643              1.825              2.040
 Vibration    14          0.657              1.781              1.810
 Vibration    15          0.662              1.766              1.743
 Vibration    16          0.666              1.752              1.686
 Vibration    17          0.682              1.704              1.511
 Vibration    18          0.697              1.660              1.377
 Vibration    19          0.701              1.648              1.344
 Vibration    20          0.769              1.461              0.948
 Vibration    21          0.775              1.446              0.923
 Vibration    22          0.784              1.423              0.886
 Vibration    23          0.797              1.390              0.836
 Vibration    24          0.828              1.313              0.733
 Vibration    25          0.835              1.297              0.714
 Vibration    26          0.850              1.263              0.673
 Vibration    27          0.872              1.213              0.618
 Vibration    28          0.953              1.041              0.457

 Optimization completed on the basis of negligible forces.
    -- Stationary point found.
 Normal termination of Gaussian 16 at Fri Dec 11 14:17:38 2020.

 ----------------------------------------------------------------------
 # B3LYP/6-311++G(d,p) empiricaldispersion=gd3bj scf=xqc pop=npa geom=c
 heck
 ----------------------------------------------------------------------

 --------------------------------------
 CID_81893279_JID_7942_Energie_neutraal
 --------------------------------------
 Structure from the checkpoint file:  "JID_7942.chk"
 Charge =  0 Multiplicity = 1

 SCF Done:  E(RB3LYP) =  -768.832523942     A.U. after   15 cycles
 Normal termination of Gaussian 16 at Fri Dec 11 14:26:18 2020.

 ----------------------------------------------------------------------
 # B3LYP/6-311++G(d,p) empiricaldispersion=gd3bj scf=xqc pop=npa geom=c
 heck
 ----------------------------------------------------------------------

 ------------------------------------
 CID_81893279_JID_7942_Energie_kation
 ------------------------------------
 Structure from the checkpoint file:  "JID_7942.chk"
 Charge =  1 Multiplicity = 2

 SCF Done:  E(UB3LYP) =  -768.537499880     A.U. after   30 cycles
 Normal termination of Gaussian 16 at Fri Dec 11 14:50:43 2020.
 Gaussian 16:  ES64L-G16RevA.03 25-Dec-2016

 ----------------------------------------------------------------------
 # B3LYP/6-311++G(d,p) empiricaldispersion=gd3bj scf=xqc pop=npa geom=c
 heck
 ----------------------------------------------------------------------

 -----------------------------------
 CID_81893279_JID_7942_Energie_anion
 -----------------------------------
 Structure from the checkpoint file:  "JID_7942.chk"
 Charge = -1 Multiplicity = 2

                         Standard orientation:
 ---------------------------------------------------------------------
 Center     Atomic      Atomic             Coordinates (Angstroms)
 Number     Number       Type             X           Y           Z
 ---------------------------------------------------------------------
      1          6           0        3.122955    2.537639   -1.361474
      2          6           0        2.606449    1.759591   -0.155820
      3          8           0        3.124744    0.431786   -0.113885
      4          6           0        2.448441   -0.512456   -0.920282
      5          6           0        1.574035   -1.454785   -0.069689
      6          6           0        0.556164   -0.663067    0.739913
      7          6           0       -0.666186   -0.275960    0.180191
      8          6           0       -1.538709    0.515561    0.928299
      9          6           0       -1.132608    0.888191    2.223959
     10          7           0        0.022811    0.520994    2.769040
     11          6           0        0.846133   -0.243867    2.037263
     12          8           0       -2.763075    0.980573    0.561135
     13          6           0       -3.337289    0.777334   -0.745706
     14          6           0       -2.531431    1.453674   -1.855797
     15          6           0       -3.689766   -0.686905   -1.013895
     16          7           0        1.036673   -2.488565   -0.949824
     17          6           0        0.264128   -3.521359   -0.266822
     18          1           0        4.217385    2.560835   -1.359060
     19          1           0        2.751054    3.568954   -1.342233
     20          1           0        2.794829    2.079053   -2.301591
     21          1           0        2.935921    2.231279    0.775284
     22          1           0        1.508415    1.743812   -0.141586
     23          1           0        1.820968   -0.016130   -1.677565
     24          1           0        3.191938   -1.118258   -1.449016
     25          1           0        2.247210   -1.953676    0.638791
     26          1           0       -0.916325   -0.601218   -0.820427
     27          1           0       -1.800622    1.507802    2.818767
     28          1           0        1.788751   -0.524244    2.502042
     29          1           0       -4.280118    1.325120   -0.647839
     30          1           0       -1.589781    0.943997   -2.073515
     31          1           0       -3.124624    1.468605   -2.776598
     32          1           0       -2.304326    2.486944   -1.576518
     33          1           0       -4.231184   -1.102898   -0.159026
     34          1           0       -4.338289   -0.747966   -1.894746
     35          1           0       -2.814212   -1.313464   -1.200723
     36          1           0        0.473194   -2.062804   -1.683615
     37          1           0       -0.601394   -3.145259    0.303849
     38          1           0       -0.092521   -4.248987   -1.002739
     39          1           0        0.920092   -4.048911    0.434705
 ---------------------------------------------------------------------

 SCF Done:  E(UB3LYP) =  -768.824901913     A.U. after   33 cycles
 SCF Done:  E(UB3LYP) =  -768.824901913     a.u. after    1 cycles

 The electronic state is 2-A.
 Alpha  occ. eigenvalues --  -19.05448 -19.03206 -14.21156 -14.20915 -10.14360
 Alpha  occ. eigenvalues --  -10.13800 -10.12544 -10.12448 -10.11360 -10.09961
 Alpha  occ. eigenvalues --  -10.09835 -10.09712 -10.08639 -10.08297 -10.07404
 Alpha  occ. eigenvalues --  -10.06783 -10.06203  -0.96992  -0.94511  -0.84306
 Alpha  occ. eigenvalues --   -0.82152  -0.71351  -0.70223  -0.67773  -0.65613
 Alpha  occ. eigenvalues --   -0.63116  -0.59966  -0.57407  -0.55979  -0.55028
 Alpha  occ. eigenvalues --   -0.51755  -0.49993  -0.48407  -0.42390  -0.42102
 Alpha  occ. eigenvalues --   -0.40428  -0.40009  -0.39735  -0.39050  -0.36540
 Alpha  occ. eigenvalues --   -0.35758  -0.35147  -0.34626  -0.34271  -0.32389
 Alpha  occ. eigenvalues --   -0.31754  -0.31262  -0.31035  -0.30828  -0.29794
 Alpha  occ. eigenvalues --   -0.29234  -0.28488  -0.27962  -0.27664  -0.26962
 Alpha  occ. eigenvalues --   -0.26441  -0.25798  -0.23640  -0.22454  -0.22285
 Alpha  occ. eigenvalues --   -0.18667  -0.16618  -0.16371  -0.14070  -0.13287
 Alpha  occ. eigenvalues --    0.04077
 Alpha virt. eigenvalues --    0.06059   0.06523   0.06914   0.07541   0.08233
 Alpha virt. eigenvalues --    0.08816   0.09202   0.09250   0.09356   0.09869
 Alpha virt. eigenvalues --    0.10617   0.11040   0.11122   0.11637   0.11899

  Beta  occ. eigenvalues --  -19.05448 -19.03202 -14.21134 -14.20832 -10.14364
  Beta  occ. eigenvalues --  -10.13787 -10.12541 -10.12427 -10.11361 -10.09928
  Beta  occ. eigenvalues --  -10.09823 -10.09721 -10.08619 -10.08228 -10.07387
  Beta  occ. eigenvalues --  -10.06752 -10.06142  -0.96985  -0.94496  -0.84197
  Beta  occ. eigenvalues --   -0.82111  -0.71267  -0.70174  -0.67737  -0.65562
  Beta  occ. eigenvalues --   -0.63079  -0.59881  -0.57366  -0.55882  -0.54985
  Beta  occ. eigenvalues --   -0.51701  -0.49925  -0.48362  -0.42335  -0.42067
  Beta  occ. eigenvalues --   -0.40398  -0.39972  -0.39698  -0.39008  -0.36480
  Beta  occ. eigenvalues --   -0.35695  -0.35114  -0.34595  -0.34241  -0.32345
  Beta  occ. eigenvalues --   -0.31722  -0.31212  -0.30929  -0.30805  -0.29759
  Beta  occ. eigenvalues --   -0.29138  -0.28462  -0.27919  -0.27634  -0.26887
  Beta  occ. eigenvalues --   -0.26388  -0.25759  -0.23540  -0.22414  -0.22249
  Beta  occ. eigenvalues --   -0.18444  -0.16534  -0.16273  -0.14027  -0.13155
  Beta virt. eigenvalues --    0.06418   0.06706   0.06942   0.07372   0.08089
  Beta virt. eigenvalues --    0.08426   0.09003   0.09312   0.09510   0.09624
  Beta virt. eigenvalues --    0.10162   0.10743   0.11223   0.11478   0.11863

 Mulliken charges and spin densities:
               1          2
     1  C    0.133994  -0.645149
     2  C   -0.618503   0.393094
     3  O   -0.048655   0.004685
     4  C    0.026361  -0.334417
     5  C   -1.542904   0.356077
     6  C    0.999426  -0.043107
     7  C    0.727529   0.472388
     8  C   -0.921664  -0.126229
     9  C   -0.030226  -0.343563
    10  N   -0.006087   0.023886
    11  C   -0.564850  -0.036079
    12  O   -0.036116  -0.001361
    13  C   -1.620377   1.510572
    14  C    1.617153  -2.073150
    15  C    1.237387  -1.720265
    16  N    0.099207  -0.059814
    17  C   -0.039375  -0.335047
    18  H    0.112462   0.037156
    19  H   -0.064871   0.193561
    20  H   -0.144533   0.280860
    21  H    0.075421   0.064014
    22  H    0.332470  -0.163762
    23  H    0.175895  -0.012042
    24  H    0.151424   0.033034
    25  H    0.158041   0.024107
    26  H    1.523160  -1.389298
    27  H    0.118340   0.054919
    28  H    0.189767  -0.008795
    29  H   -0.414229   0.600155
    30  H   -0.943255   1.086623
    31  H   -0.601084   0.769351
    32  H    0.007836   0.147971
    33  H    0.040762   0.117704
    34  H   -0.401159   0.566861
    35  H   -0.625463   0.782062
    36  H   -0.229378   0.481169
    37  H    0.150783  -0.014892
    38  H   -0.145870   0.295283
    39  H    0.121183   0.011439
 Sum of Mulliken charges =  -1.00000   1.00000

 Dipole moment (field-independent basis, Debye):
    X=              5.0611    Y=             -0.9527    Z=              5.3991  Tot=              7.4615
 Quadrupole moment (field-independent basis, Debye-Ang):
   XX=           -169.3121   YY=           -143.8801   ZZ=           -166.3962
   XY=              1.1849   XZ=            -14.8998   YZ=             -1.8194

 Summary of Natural Population Analysis:

                                       Natural Population
                Natural  -----------------------------------------------
    Atom  No    Charge         Core      Valence    Rydberg      Total
 -----------------------------------------------------------------------
      C    1   -0.30052      0.99967     2.29579    0.00507     3.30052
      C    2   -0.01140      0.99959     2.00030    0.01151     3.01140
      O    3   -0.30452      0.99988     3.29608    0.00856     4.30452
      C    4   -0.00400      0.99954     1.99050    0.01396     3.00400
      C    5   -0.02560      0.99955     2.01265    0.01339     3.02560
      C    6   -0.03093      0.99949     2.02035    0.01109     3.03093
      C    7   -0.12548      0.99946     2.11671    0.00931     3.12548
      C    8    0.14673      0.99937     1.83975    0.01414     2.85327
      C    9    0.01170      0.99956     1.97506    0.01367     2.98830
      N   10   -0.21754      0.99971     2.70665    0.01118     3.71754
      C   11    0.00737      0.99952     1.97968    0.01343     2.99263
      O   12   -0.28019      0.99985     3.27070    0.00964     4.28019
      C   13    0.06515      0.99955     1.92122    0.01408     2.93485
      C   14   -0.29842      0.99964     2.29287    0.00591     3.29842
      C   15   -0.29702      0.99964     2.29180    0.00558     3.29702
      N   16   -0.33839      0.99974     2.82677    0.01188     3.83839
      C   17   -0.17941      0.99966     2.17165    0.00811     3.17941
      H   18    0.09684      0.00000     0.40225    0.00091     0.40316
      H   19    0.09977      0.00000     0.39933    0.00090     0.40023
      H   20    0.10025      0.00000     0.39870    0.00104     0.39975
      H   21    0.08717      0.00000     0.41179    0.00103     0.41283
      H   22    0.08566      0.00000     0.41212    0.00223     0.41434
      H   23    0.08339      0.00000     0.41500    0.00161     0.41661
      H   24    0.09108      0.00000     0.40767    0.00125     0.40892
      H   25    0.09605      0.00000     0.40235    0.00160     0.40395
      H   26    0.10392      0.00000     0.39264    0.00344     0.39608
      H   27    0.09143      0.00000     0.40713    0.00143     0.40857
      H   28    0.08961      0.00000     0.40890    0.00149     0.41039
      H   29    0.09117      0.00000     0.40724    0.00159     0.40883
      H   30    0.10126      0.00000     0.39644    0.00230     0.39874
      H   31    0.10864      0.00000     0.38853    0.00283     0.39136
      H   32    0.10350      0.00000     0.39529    0.00121     0.39650
      H   33    0.10239      0.00000     0.39656    0.00106     0.39761
      H   34    0.10728      0.00000     0.39128    0.00145     0.39272
      H   35    0.09852      0.00000     0.39990    0.00158     0.40148
      H   36    0.17503      0.00000     0.32115    0.00381     0.32497
      H   37    0.08462      0.00000     0.41411    0.00127     0.41538
      H   38    0.09605      0.00000     0.40320    0.00075     0.40395
      H   39    0.08884      0.00000     0.41033    0.00083     0.41116
 =======================================================================
   * Total *   -0.00000     16.99343    47.79044    0.21613    65.00000

 Normal termination of Gaussian 16 at Fri Dec 11 15:17:59 2020.
