 Gaussian 16, Revision A.03,

 -----------------------------------------------------------
 # opt freq B3LYP/6-31G(d) empiricaldispersion=gd3bj scf=xqc
 -----------------------------------------------------------

 -------------------------------
 CID_153805699_JID_9868_neutraal
 -------------------------------
 Symbolic Z-matrix:
 Charge =  0 Multiplicity = 1

 SCF Done:  E(RB3LYP) =  -802.899907166     A.U. after   15 cycles
 SCF Done:  E(RB3LYP) =  -802.905638030     A.U. after   13 cycles
 SCF Done:  E(RB3LYP) =  -802.906412740     A.U. after   13 cycles
 SCF Done:  E(RB3LYP) =  -802.906538648     A.U. after   12 cycles
 SCF Done:  E(RB3LYP) =  -802.906652860     A.U. after   12 cycles
 SCF Done:  E(RB3LYP) =  -802.906675497     A.U. after   11 cycles
 SCF Done:  E(RB3LYP) =  -802.906679505     A.U. after    9 cycles
 SCF Done:  E(RB3LYP) =  -802.906681430     A.U. after    8 cycles
 SCF Done:  E(RB3LYP) =  -802.906682450     A.U. after    8 cycles
 SCF Done:  E(RB3LYP) =  -802.906682675     A.U. after    8 cycles
 SCF Done:  E(RB3LYP) =  -802.906682737     A.U. after    7 cycles
 Optimization completed.
    -- Stationary point found.
 Normal termination of Gaussian 16 at Sun Dec 13 16:11:05 2020.

 --------------------------------------------------------------------
 #N Geom=AllCheck Guess=TCheck SCRF=Check GenChk RB3LYP/6-31G(d) Freq
 --------------------------------------------------------------------

 Structure from the checkpoint file:  "JID_9868.chk"
 -------------------------------
 CID_153805699_JID_9868_neutraal
 -------------------------------
 Charge =  0 Multiplicity = 1

 SCF Done:  E(RB3LYP) =  -802.906682737     A.U. after    1 cycles

  Exact polarizability: 256.789  10.208 216.190  11.165 -12.650  94.306
 Approx polarizability: 383.331   4.232 372.334  23.618 -28.611 156.401

                      1                      2                      3
                      A                      A                      A
 Frequencies --     50.6180                59.5258                68.2957
 Red. masses --      4.0040                 4.2783                 3.5129
 Frc consts  --      0.0060                 0.0089                 0.0097
 IR Inten    --      1.6227                 1.5876                 1.7916

                      4                      5                      6
                      A                      A                      A
 Frequencies --     81.4060               109.8579               149.8320
 Red. masses --      4.3492                 3.8072                 4.4808
 Frc consts  --      0.0170                 0.0271                 0.0593
 IR Inten    --      0.5942                 0.5121                 5.4216

                      7                      8                      9
                      A                      A                      A
 Frequencies --    181.0702               184.9385               224.7164
 Red. masses --      1.3485                 2.5722                 3.0932
 Frc consts  --      0.0260                 0.0518                 0.0920
 IR Inten    --      0.0270                 0.2662                 0.0258

                     10                     11                     12
                      A                      A                      A
 Frequencies --    241.0382               265.4329               277.7370
 Red. masses --      1.4078                 4.8561                 4.1389
 Frc consts  --      0.0482                 0.2016                 0.1881
 IR Inten    --      0.0315                 1.1457                 0.4127

                     13                     14                     15
                      A                      A                      A
 Frequencies --    305.9137               318.8299               376.5171
 Red. masses --      2.9048                 3.5501                 5.4655
 Frc consts  --      0.1602                 0.2126                 0.4565
 IR Inten    --      0.4120                 2.6251                 0.6566

                     16                     17                     18
                      A                      A                      A
 Frequencies --    414.1841               419.8913               442.7117
 Red. masses --      5.0218                 3.0757                 3.7429
 Frc consts  --      0.5076                 0.3195                 0.4322
 IR Inten    --      0.6078                 0.3273                 0.5591

                     19                     20                     21
                      A                      A                      A
 Frequencies --    486.4075               506.3013               549.7737
 Red. masses --      3.9522                 5.3720                 5.2191
 Frc consts  --      0.5509                 0.8113                 0.9294
 IR Inten    --      1.7784                 0.7580                 4.7728

                     22                     23                     24
                      A                      A                      A
 Frequencies --    553.3828               586.3875               615.7005
 Red. masses --      4.5710                 4.4868                 7.0067
 Frc consts  --      0.8247                 0.9090                 1.5650
 IR Inten    --      6.2971                 3.7389                 7.9660

                     25                     26                     27
                      A                      A                      A
 Frequencies --    626.0502               637.6452               698.3966
 Red. masses --      3.8662                 5.6190                 5.2918
 Frc consts  --      0.8928                 1.3461                 1.5207
 IR Inten    --      9.1588                 1.3966                 3.0095

                     28                     29                     30
                      A                      A                      A
 Frequencies --    703.3965               715.8673               730.3686
 Red. masses --      5.3840                 1.7860                 5.8615
 Frc consts  --      1.5695                 0.5392                 1.8422
 IR Inten    --      9.9817                33.6323                 0.8125

                     31                     32                     33
                      A                      A                      A
 Frequencies --    754.5189               776.3060               803.5302
 Red. masses --      6.2622                 2.3639                 2.6598
 Frc consts  --      2.1005                 0.8394                 1.0118
 IR Inten    --      2.2082                10.2142                12.4521

                     34                     35                     36
                      A                      A                      A
 Frequencies --    835.9118               863.4470               907.7368
 Red. masses --      1.8445                 1.2582                 1.4983
 Frc consts  --      0.7594                 0.5527                 0.7274
 IR Inten    --     23.9995                 2.8475                14.7635

                     37                     38                     39
                      A                      A                      A
 Frequencies --    917.0761               941.4865               957.6927
 Red. masses --      5.7062                 1.4136                 1.2929
 Frc consts  --      2.8275                 0.7383                 0.6987
 IR Inten    --      7.9757                 0.7778                 0.0673

                     40                     41                     42
                      A                      A                      A
 Frequencies --    976.2384               993.0427               997.8231
 Red. masses --      1.3400                 3.2308                 1.3406
 Frc consts  --      0.7524                 1.8771                 0.7864
 IR Inten    --      1.7559                11.3177                 0.8291

                     43                     44                     45
                      A                      A                      A
 Frequencies --   1007.4316              1022.3696              1061.2040
 Red. masses --      2.1641                 6.1011                 2.2534
 Frc consts  --      1.2940                 3.7573                 1.4951
 IR Inten    --      9.2800                 0.7350                 8.5036

                     46                     47                     48
                      A                      A                      A
 Frequencies --   1071.2086              1076.2726              1089.5679
 Red. masses --      1.5437                 3.6223                 3.6202
 Frc consts  --      1.0437                 2.4722                 2.5321
 IR Inten    --      1.3760                41.6729                 7.1960

                     49                     50                     51
                      A                      A                      A
 Frequencies --   1112.3689              1115.7346              1184.5440
 Red. masses --      3.5394                 1.6133                 1.2683
 Frc consts  --      2.5803                 1.1833                 1.0485
 IR Inten    --     36.0614                 4.9444                 0.7518

                     52                     53                     54
                      A                      A                      A
 Frequencies --   1194.5665              1199.0150              1207.0510
 Red. masses --      1.1013                 1.7699                 1.5911
 Frc consts  --      0.9259                 1.4991                 1.3658
 IR Inten    --      0.4425                36.4340                 8.3214

                     55                     56                     57
                      A                      A                      A
 Frequencies --   1216.2357              1234.7736              1271.0599
 Red. masses --      1.1346                 1.9383                 1.9735
 Frc consts  --      0.9889                 1.7412                 1.8785
 IR Inten    --      3.1786                 2.4854               103.0882

                     58                     59                     60
                      A                      A                      A
 Frequencies --   1320.8767              1331.0572              1360.9116
 Red. masses --      2.4812                 2.8497                 7.1120
 Frc consts  --      2.5506                 2.9747                 7.7607
 IR Inten    --     65.5989               116.2540                25.9558

                     61                     62                     63
                      A                      A                      A
 Frequencies --   1370.0304              1380.4988              1406.9866
 Red. masses --      1.7469                 4.5572                 2.3587
 Frc consts  --      1.9319                 5.1171                 2.7511
 IR Inten    --     14.1194                45.1579                41.7879

                     64                     65                     66
                      A                      A                      A
 Frequencies --   1427.9038              1441.6950              1456.2370
 Red. masses --      3.9900                 2.1649                 4.0010
 Frc consts  --      4.7931                 2.6512                 4.9990
 IR Inten    --     67.2035                58.0635                43.1356

                     67                     68                     69
                      A                      A                      A
 Frequencies --   1492.5695              1503.4909              1508.3362
 Red. masses --      2.1322                 1.2865                 1.2454
 Frc consts  --      2.7986                 1.7134                 1.6694
 IR Inten    --     13.5045                 5.4875                 1.2809

                     70                     71                     72
                      A                      A                      A
 Frequencies --   1515.5237              1523.7721              1534.0719
 Red. masses --      1.0458                 1.0477                 1.0572
 Frc consts  --      1.4152                 1.4333                 1.4659
 IR Inten    --      8.0688                 6.1936                43.4909

                     73                     74                     75
                      A                      A                      A
 Frequencies --   1547.8919              1557.4618              1585.3861
 Red. masses --      2.3277                 2.6760                 6.2494
 Frc consts  --      3.2859                 3.8245                 9.2546
 IR Inten    --      2.6163                41.2739                25.5809

                     76                     77                     78
                      A                      A                      A
 Frequencies --   1615.9543              1640.2983              1665.3695
 Red. masses --      6.7048                 5.5849                 5.5848
 Frc consts  --     10.3156                 8.8534                 9.1259
 IR Inten    --     45.5674                 0.4863                 3.4320

                     79                     80                     81
                      A                      A                      A
 Frequencies --   1677.7180              3031.1031              3047.1682
 Red. masses --      6.1125                 1.0348                 1.0394
 Frc consts  --     10.1369                 5.6013                 5.6864
 IR Inten    --    128.8952                64.7371                23.3172

                     82                     83                     84
                      A                      A                      A
 Frequencies --   3092.6364              3098.7821              3164.2743
 Red. masses --      1.1071                 1.1006                 1.0989
 Frc consts  --      6.2384                 6.2268                 6.4826
 IR Inten    --     38.4433                17.1285                 7.0097

                     85                     86                     87
                      A                      A                      A
 Frequencies --   3165.9065              3183.9672              3193.7182
 Red. masses --      1.0999                 1.0850                 1.0887
 Frc consts  --      6.4955                 6.4808                 6.5425
 IR Inten    --     21.4875                 0.6275                10.5771

                     88                     89                     90
                      A                      A                      A
 Frequencies --   3204.2881              3212.5707              3213.8945
 Red. masses --      1.0925                 1.0961                 1.0877
 Frc consts  --      6.6089                 6.6650                 6.6195
 IR Inten    --     36.6760                19.4201                 5.2516

                     91                     92                     93
                      A                      A                      A
 Frequencies --   3225.7616              3234.6295              3247.5560
 Red. masses --      1.0936                 1.0931                 1.0903
 Frc consts  --      6.7045                 6.7381                 6.7751
 IR Inten    --      5.6719                12.7485                 1.6440

 - Thermochemistry -
 -------------------
 Temperature   298.150 Kelvin.  Pressure   1.00000 Atm.
 Atom     1 has atomic number  6 and mass  12.00000

 Molecular mass:   250.11061 amu.
 Principal axes and moments of inertia in atomic units:
                           1         2         3
     Eigenvalues --  3687.867596075.458939406.15534
           X            0.99996   0.00881   0.00160
           Y           -0.00880   0.99996  -0.00292
           Z           -0.00163   0.00291   0.99999
 This molecule is an asymmetric top.
 Rotational symmetry number  1.
 Warning -- assumption of classical behavior for rotation
           may cause significant error
 Rotational temperatures (Kelvin)      0.02349     0.01426     0.00921
 Rotational constants (GHZ):           0.48937     0.29705     0.19187
 Zero-point vibrational energy     697128.0 (Joules/Mol)
                                  166.61760 (Kcal/Mol)
 Warning -- explicit consideration of  24 degrees of freedom as
           vibrations may cause significant error
 Vibrational temperatures:     72.83    85.64    98.26   117.13   158.06
          (Kelvin)            215.57   260.52   266.09   323.32   346.80
                              381.90   399.60   440.14   458.73   541.72
                              595.92   604.13   636.96   699.83   728.45
                              791.00   796.19   843.68   885.86   900.75
                              917.43  1004.84  1012.03  1029.97  1050.84
                             1085.58  1116.93  1156.10  1202.69  1242.31
                             1306.03  1319.47  1354.59  1377.91  1404.59
                             1428.77  1435.64  1449.47  1470.96  1526.84
                             1541.23  1548.52  1567.65  1600.45  1605.29
                             1704.29  1718.71  1725.12  1736.68  1749.89
                             1776.56  1828.77  1900.45  1915.09  1958.05
                             1971.17  1986.23  2024.34  2054.44  2074.28
                             2095.20  2147.47  2163.19  2170.16  2180.50
                             2192.37  2207.19  2227.07  2240.84  2281.02
                             2325.00  2360.02  2396.10  2413.86  4361.08
                             4384.20  4449.61  4458.46  4552.69  4555.03
                             4581.02  4595.05  4610.26  4622.17  4624.08
                             4641.15  4653.91  4672.51

 Zero-point correction=                           0.265522 (Hartree/Particle)
 Thermal correction to Energy=                    0.281064
 Thermal correction to Enthalpy=                  0.282008
 Thermal correction to Gibbs Free Energy=         0.222371
 Sum of electronic and zero-point Energies=           -802.641161
 Sum of electronic and thermal Energies=              -802.625619
 Sum of electronic and thermal Enthalpies=            -802.624675
 Sum of electronic and thermal Free Energies=         -802.684312

                     E (Thermal)             CV                S
                      KCal/Mol        Cal/Mol-Kelvin    Cal/Mol-Kelvin
 Total                  176.370             61.358            125.518
 Electronic               0.000              0.000              0.000
 Translational            0.889              2.981             42.451
 Rotational               0.889              2.981             33.710
 Vibrational            174.593             55.397             49.357
 Vibration     1          0.595              1.977              4.793
 Vibration     2          0.597              1.974              4.473
 Vibration     3          0.598              1.969              4.202
 Vibration     4          0.600              1.962              3.857
 Vibration     5          0.606              1.941              3.271
 Vibration     6          0.618              1.903              2.674
 Vibration     7          0.630              1.865              2.317
 Vibration     8          0.631              1.860              2.278
 Vibration     9          0.649              1.803              1.921
 Vibration    10          0.658              1.778              1.795
 Vibration    11          0.671              1.736              1.626
 Vibration    12          0.679              1.715              1.548
 Vibration    13          0.696              1.662              1.384
 Vibration    14          0.705              1.638              1.316
 Vibration    15          0.747              1.520              1.053
 Vibration    16          0.778              1.439              0.912
 Vibration    17          0.783              1.427              0.892
 Vibration    18          0.802              1.377              0.818
 Vibration    19          0.842              1.280              0.693
 Vibration    20          0.862              1.236              0.643
 Vibration    21          0.905              1.140              0.545
 Vibration    22          0.909              1.132              0.537
 Vibration    23          0.943              1.061              0.474
 Vibration    24          0.975              0.999              0.423

 Optimization completed.
    -- Stationary point found.
 Normal termination of Gaussian 16 at Sun Dec 13 16:27:44 2020.

 ----------------------------------------------------------------------
 # B3LYP/6-311++G(d,p) empiricaldispersion=gd3bj scf=xqc pop=npa geom=c
 heck
 ----------------------------------------------------------------------

 ---------------------------------------
 CID_153805699_JID_9868_Energie_neutraal
 ---------------------------------------
 Structure from the checkpoint file:  "JID_9868.chk"
 Charge =  0 Multiplicity = 1

 SCF Done:  E(RB3LYP) =  -803.108657168     A.U. after   16 cycles
 Normal termination of Gaussian 16 at Sun Dec 13 16:35:24 2020.

 ----------------------------------------------------------------------
 # B3LYP/6-311++G(d,p) empiricaldispersion=gd3bj scf=xqc pop=npa geom=c
 heck
 ----------------------------------------------------------------------

 -------------------------------------
 CID_153805699_JID_9868_Energie_kation
 -------------------------------------
 Structure from the checkpoint file:  "JID_9868.chk"
 Charge =  1 Multiplicity = 2

 SCF Done:  E(UB3LYP) =  -802.822885986     A.U. after   31 cycles
 Normal termination of Gaussian 16 at Sun Dec 13 16:56:18 2020.
 Gaussian 16:  ES64L-G16RevA.03 25-Dec-2016

 ----------------------------------------------------------------------
 # B3LYP/6-311++G(d,p) empiricaldispersion=gd3bj scf=xqc pop=npa geom=c
 heck
 ----------------------------------------------------------------------

 ------------------------------------
 CID_153805699_JID_9868_Energie_anion
 ------------------------------------
 Structure from the checkpoint file:  "JID_9868.chk"
 Charge = -1 Multiplicity = 2

                         Standard orientation:
 ---------------------------------------------------------------------
 Center     Atomic      Atomic             Coordinates (Angstroms)
 Number     Number       Type             X           Y           Z
 ---------------------------------------------------------------------
      1          6           0        2.406900    3.586374    0.162824
      2          6           0        1.300855    2.568219    0.094028
      3          6           0        1.573919    1.164548    0.080671
      4          6           0        2.877217    0.621489    0.092454
      5          6           0        3.080788   -0.740124    0.006263
      6          6           0        1.971648   -1.612129   -0.111592
      7          6           0        0.681208   -1.103467   -0.114280
      8          6           0        0.461639    0.281729    0.005106
      9          6           0       -0.838014    0.903801    0.015388
     10          7           0       -0.992862    2.214651    0.000569
     11          7           0        0.077109    3.052625    0.021497
     12          6           0       -2.100722    0.121742    0.027893
     13          6           0       -3.159972    0.516460   -0.802292
     14          6           0       -4.365408   -0.180093   -0.790162
     15          6           0       -4.536675   -1.273826    0.061304
     16          6           0       -3.496829   -1.660711    0.907021
     17          6           0       -2.286650   -0.968380    0.891019
     18          8           0        2.081842   -2.962634   -0.231469
     19          6           0        3.379113   -3.539851   -0.251404
     20          1           0        2.998816    3.473161    1.079403
     21          1           0        1.966518    4.584763    0.148619
     22          1           0        3.094992    3.490392   -0.685910
     23          1           0        3.733825    1.283420    0.159823
     24          1           0        4.091216   -1.130726    0.014136
     25          1           0       -0.145470   -1.793014   -0.224982
     26          1           0       -3.021241    1.377159   -1.447396
     27          1           0       -5.174279    0.131824   -1.444926
     28          1           0       -5.477781   -1.816499    0.070518
     29          1           0       -3.628748   -2.497475    1.587211
     30          1           0       -1.492210   -1.257269    1.571868
     31          1           0        3.971308   -3.170493   -1.098318
     32          1           0        3.921018   -3.345882    0.683041
     33          1           0        3.223461   -4.613905   -0.361241
 ---------------------------------------------------------------------

 SCF Done:  E(UB3LYP) =  -803.128218810     A.U. after   24 cycles

 The electronic state is 2-A.
 Alpha  occ. eigenvalues --  -19.04355 -14.17582 -14.16622 -10.13050 -10.10485
 Alpha  occ. eigenvalues --  -10.05955 -10.05866 -10.05651 -10.05435 -10.05326
 Alpha  occ. eigenvalues --  -10.05201 -10.05200 -10.04968 -10.04783 -10.04402
 Alpha  occ. eigenvalues --  -10.04113 -10.03899 -10.03371 -10.02486  -0.95973
 Alpha  occ. eigenvalues --   -0.84459  -0.74072  -0.72537  -0.69533  -0.65285
 Alpha  occ. eigenvalues --   -0.63479  -0.62862  -0.62110  -0.59137  -0.57502
 Alpha  occ. eigenvalues --   -0.51759  -0.49605  -0.48837  -0.48046  -0.44995
 Alpha  occ. eigenvalues --   -0.42204  -0.40271  -0.39379  -0.37114  -0.37085
 Alpha  occ. eigenvalues --   -0.35836  -0.33753  -0.32904  -0.31977  -0.30871
 Alpha  occ. eigenvalues --   -0.30740  -0.30316  -0.29374  -0.29049  -0.27338
 Alpha  occ. eigenvalues --   -0.26874  -0.25719  -0.25503  -0.24399  -0.24165
 Alpha  occ. eigenvalues --   -0.23198  -0.22738  -0.20925  -0.20058  -0.16525
 Alpha  occ. eigenvalues --   -0.14883  -0.13961  -0.13194  -0.12035  -0.09025
 Alpha  occ. eigenvalues --   -0.08001   0.03387
 Alpha virt. eigenvalues --    0.06753   0.07877   0.08694   0.09481   0.09676
 Alpha virt. eigenvalues --    0.09892   0.10262   0.10505   0.10736   0.10976
 Alpha virt. eigenvalues --    0.11639   0.12330   0.12476   0.12973   0.13788

  Beta  occ. eigenvalues --  -19.04358 -14.17660 -14.16351 -10.13044 -10.10482
  Beta  occ. eigenvalues --  -10.05971 -10.05890 -10.05555 -10.05428 -10.05259
  Beta  occ. eigenvalues --  -10.05152 -10.04981 -10.04720 -10.04696 -10.04473
  Beta  occ. eigenvalues --  -10.04138 -10.03732 -10.03107 -10.02238  -0.95960
  Beta  occ. eigenvalues --   -0.84090  -0.73939  -0.72245  -0.69119  -0.65093
  Beta  occ. eigenvalues --   -0.63200  -0.62748  -0.61864  -0.58948  -0.57375
  Beta  occ. eigenvalues --   -0.51252  -0.49434  -0.48610  -0.47966  -0.44772
  Beta  occ. eigenvalues --   -0.42065  -0.40159  -0.39142  -0.37052  -0.36994
  Beta  occ. eigenvalues --   -0.35660  -0.33644  -0.32756  -0.31840  -0.30777
  Beta  occ. eigenvalues --   -0.30352  -0.30114  -0.29222  -0.28842  -0.27235
  Beta  occ. eigenvalues --   -0.26410  -0.25592  -0.25093  -0.24143  -0.23914
  Beta  occ. eigenvalues --   -0.23096  -0.22683  -0.20803  -0.19328  -0.15676
  Beta  occ. eigenvalues --   -0.14666  -0.13735  -0.12426  -0.11016  -0.07904
  Beta  occ. eigenvalues --   -0.07530
  Beta virt. eigenvalues --    0.06719   0.07852   0.08457   0.08668   0.09464
  Beta virt. eigenvalues --    0.09873   0.10261   0.10511   0.10721   0.10853
  Beta virt. eigenvalues --    0.11151   0.11598   0.12308   0.12613   0.12991

 Mulliken charges and spin densities:
               1          2
     1  C   -0.503312  -0.015209
     2  C   -1.005000   0.198266
     3  C    1.613768  -0.021070
     4  C   -0.692925   0.221126
     5  C   -0.309912   0.111564
     6  C   -0.462515  -0.030658
     7  C   -0.808520   0.180587
     8  C    1.196560  -0.027370
     9  C   -0.611791   0.163706
    10  N   -0.187061   0.135008
    11  N    0.178893  -0.050316
    12  C    1.153536  -0.012556
    13  C   -0.376525   0.050065
    14  C   -0.239186  -0.015190
    15  C   -0.451795   0.070958
    16  C   -0.208241  -0.022333
    17  C   -0.751458   0.047811
    18  O   -0.168252   0.003482
    19  C   -0.317968  -0.008833
    20  H    0.115297   0.022304
    21  H    0.163006   0.000274
    22  H    0.110101   0.024405
    23  H    0.107350  -0.016610
    24  H    0.143191  -0.009276
    25  H    0.179537  -0.013401
    26  H    0.184235  -0.001070
    27  H    0.132197   0.001407
    28  H    0.110308  -0.006058
    29  H    0.136980   0.003458
    30  H    0.165437   0.001164
    31  H    0.130976   0.006065
    32  H    0.124365   0.008815
    33  H    0.148725  -0.000517
 Sum of Mulliken charges =  -1.00000   1.00000

 Dipole moment (field-independent basis, Debye):
    X=              2.7005    Y=             -5.5586    Z=             -0.0804  Tot=              6.1804
 Quadrupole moment (field-independent basis, Debye-Ang):
   XX=           -136.4860   YY=           -144.2053   ZZ=           -119.9380
   XY=             -0.6500   XZ=              1.3877   YZ=             -2.7192

 Summary of Natural Population Analysis:

                                       Natural Population
                Natural  -----------------------------------------------
    Atom  No    Charge         Core      Valence    Rydberg      Total
 -----------------------------------------------------------------------
      C    1   -0.29841      0.99959     2.29359    0.00523     3.29841
      C    2    0.16453      0.99954     1.82355    0.01238     2.83547
      C    3   -0.06629      0.99948     2.05517    0.01164     3.06629
      C    4   -0.03320      0.99946     2.02536    0.00838     3.03320
      C    5   -0.11718      0.99955     2.10908    0.00855     3.11718
      C    6    0.16041      0.99940     1.82881    0.01139     2.83959
      C    7   -0.07536      0.99944     2.06776    0.00816     3.07536
      C    8   -0.02743      0.99941     2.01774    0.01028     3.02743
      C    9    0.12414      0.99950     1.85779    0.01858     2.87586
      N   10   -0.10317      0.99966     2.58946    0.01405     3.60317
      N   11   -0.17069      0.99967     2.65536    0.01566     3.67069
      C   12   -0.02209      0.99951     2.01187    0.01070     3.02209
      C   13   -0.06840      0.99944     2.05998    0.00897     3.06840
      C   14   -0.11829      0.99959     2.10906    0.00963     3.11829
      C   15   -0.09587      0.99957     2.08705    0.00925     3.09587
      C   16   -0.11694      0.99959     2.10776    0.00960     3.11694
      C   17   -0.08364      0.99945     2.07626    0.00793     3.08364
      O   18   -0.27748      0.99985     3.26791    0.00972     4.27748
      C   19   -0.09879      0.99961     2.09103    0.00815     3.09879
      H   20    0.09824      0.00000     0.40047    0.00130     0.40176
      H   21    0.10557      0.00000     0.39256    0.00187     0.39443
      H   22    0.09824      0.00000     0.40045    0.00131     0.40176
      H   23    0.09145      0.00000     0.40686    0.00169     0.40855
      H   24    0.09190      0.00000     0.40698    0.00112     0.40810
      H   25    0.10359      0.00000     0.39456    0.00185     0.39641
      H   26    0.10657      0.00000     0.39219    0.00124     0.39343
      H   27    0.09312      0.00000     0.40581    0.00107     0.40688
      H   28    0.09109      0.00000     0.40785    0.00106     0.40891
      H   29    0.09344      0.00000     0.40550    0.00106     0.40656
      H   30    0.10254      0.00000     0.39598    0.00148     0.39746
      H   31    0.08111      0.00000     0.41737    0.00153     0.41889
      H   32    0.08071      0.00000     0.41776    0.00152     0.41929
      H   33    0.08666      0.00000     0.41252    0.00081     0.41334
 =======================================================================
   * Total *    0.00007     18.99131    46.79145    0.21717    65.99993

 Normal termination of Gaussian 16 at Sun Dec 13 17:12:15 2020.
