 Gaussian 16, Revision A.03,

 -----------------------------------------------------------
 # opt freq B3LYP/6-31G(d) empiricaldispersion=gd3bj scf=xqc
 -----------------------------------------------------------

 ------------------------------
 CID_61851465_JID_8287_neutraal
 ------------------------------
 Symbolic Z-matrix:
 Charge =  0 Multiplicity = 1

 SCF Done:  E(RB3LYP) =  -848.574920565     A.U. after   17 cycles
 SCF Done:  E(RB3LYP) =  -848.584238896     A.U. after   13 cycles
 SCF Done:  E(RB3LYP) =  -848.586702240     A.U. after   12 cycles
 SCF Done:  E(RB3LYP) =  -848.588991309     A.U. after   13 cycles
 SCF Done:  E(RB3LYP) =  -848.590027646     A.U. after   12 cycles
 SCF Done:  E(RB3LYP) =  -848.590389941     A.U. after   13 cycles
 SCF Done:  E(RB3LYP) =  -848.590628353     A.U. after   12 cycles
 SCF Done:  E(RB3LYP) =  -848.590808815     A.U. after   12 cycles
 SCF Done:  E(RB3LYP) =  -848.590962984     A.U. after   13 cycles
 SCF Done:  E(RB3LYP) =  -848.591043113     A.U. after   11 cycles
 SCF Done:  E(RB3LYP) =  -848.591596398     A.U. after    7 cycles
 SCF Done:  E(RB3LYP) =  -848.591596427     A.U. after    7 cycles
 SCF Done:  E(RB3LYP) =  -848.591596462     A.U. after    7 cycles
 SCF Done:  E(RB3LYP) =  -848.591596493     A.U. after    7 cycles
 SCF Done:  E(RB3LYP) =  -848.591596528     A.U. after    7 cycles
 Optimization completed.
    -- Stationary point found.
 Normal termination of Gaussian 16 at Fri Dec 11 20:02:50 2020.

 --------------------------------------------------------------------
 #N Geom=AllCheck Guess=TCheck SCRF=Check GenChk RB3LYP/6-31G(d) Freq
 --------------------------------------------------------------------

 Structure from the checkpoint file:  "JID_8287.chk"
 ------------------------------
 CID_61851465_JID_8287_neutraal
 ------------------------------
 Charge =  0 Multiplicity = 1

 SCF Done:  E(RB3LYP) =  -848.591596528     A.U. after    1 cycles

  Exact polarizability: 166.063   5.530 153.078  17.504  -8.490 125.014
 Approx polarizability: 231.803   6.116 248.398  38.114 -16.215 209.221

                      1                      2                      3
                      A                      A                      A
 Frequencies --     19.6261                27.3952                37.9875
 Red. masses --      6.4897                 5.2345                 8.6991
 Frc consts  --      0.0015                 0.0023                 0.0074
 IR Inten    --      2.1847                 1.4632                 0.7106

                      4                      5                      6
                      A                      A                      A
 Frequencies --     57.9182                67.8988                94.9356
 Red. masses --      3.0312                 5.2812                 4.9463
 Frc consts  --      0.0060                 0.0143                 0.0263
 IR Inten    --      0.2935                 0.4240                 1.6857

                      7                      8                      9
                      A                      A                      A
 Frequencies --    105.1564               133.1516               160.8445
 Red. masses --      4.8227                 1.8101                 1.0933
 Frc consts  --      0.0314                 0.0189                 0.0167
 IR Inten    --      4.0691                 2.1928                25.4822

                     10                     11                     12
                      A                      A                      A
 Frequencies --    176.3435               200.1220               223.1590
 Red. masses --      4.5551                 5.5406                 2.3257
 Frc consts  --      0.0835                 0.1307                 0.0682
 IR Inten    --      2.6005                 5.3735                 0.6506

                     13                     14                     15
                      A                      A                      A
 Frequencies --    233.0732               243.9692               324.2909
 Red. masses --      3.6925                 2.0447                 2.4648
 Frc consts  --      0.1182                 0.0717                 0.1527
 IR Inten    --      4.8630                 0.4226                 0.7339

                     16                     17                     18
                      A                      A                      A
 Frequencies --    326.7309               350.7921               395.1170
 Red. masses --      3.0930                 3.1563                 6.4974
 Frc consts  --      0.1945                 0.2288                 0.5976
 IR Inten    --      8.7553                 1.8592                 1.5795

                     19                     20                     21
                      A                      A                      A
 Frequencies --    409.0769               445.1453               468.6594
 Red. masses --      3.5000                 2.8157                 3.6645
 Frc consts  --      0.3451                 0.3287                 0.4742
 IR Inten    --      1.8128                 1.9101                10.3891

                     22                     23                     24
                      A                      A                      A
 Frequencies --    560.2013               580.4806               607.4107
 Red. masses --      1.7350                 3.7116                 3.4567
 Frc consts  --      0.3208                 0.7369                 0.7514
 IR Inten    --     54.8053                 5.5716                18.8439

                     25                     26                     27
                      A                      A                      A
 Frequencies --    621.7719               633.5652               661.2975
 Red. masses --      3.4429                 2.1131                 4.8286
 Frc consts  --      0.7842                 0.4997                 1.2441
 IR Inten    --     60.8432                23.5784                12.6768

                     28                     29                     30
                      A                      A                      A
 Frequencies --    690.1722               701.5734               733.2908
 Red. masses --      2.4166                 2.0087                 2.6788
 Frc consts  --      0.6782                 0.5825                 0.8487
 IR Inten    --      6.2592                28.3596                36.7085

                     31                     32                     33
                      A                      A                      A
 Frequencies --    748.3735               760.8944               777.6767
 Red. masses --      1.9687                 1.9180                 1.6886
 Frc consts  --      0.6496                 0.6542                 0.6017
 IR Inten    --     57.5342               103.7127                24.5296

                     34                     35                     36
                      A                      A                      A
 Frequencies --    798.1465               806.7843               819.3239
 Red. masses --      3.1753                 1.6709                 2.6441
 Frc consts  --      1.1918                 0.6408                 1.0458
 IR Inten    --     27.0343               182.4206                44.5925

                     37                     38                     39
                      A                      A                      A
 Frequencies --    828.4735               883.3165               918.1998
 Red. masses --      2.4021                 2.4026                 1.3345
 Frc consts  --      0.9714                 1.1045                 0.6629
 IR Inten    --     57.7119                 7.6047                 5.0517

                     40                     41                     42
                      A                      A                      A
 Frequencies --    961.4957              1032.4679              1039.1048
 Red. masses --      2.2062                 3.2229                 8.0681
 Frc consts  --      1.2017                 2.0242                 5.1326
 IR Inten    --     33.9062                12.2766                 7.3404

                     43                     44                     45
                      A                      A                      A
 Frequencies --   1050.5481              1066.7845              1102.9503
 Red. masses --      1.9384                 5.4024                 3.0422
 Frc consts  --      1.2604                 3.6223                 2.1805
 IR Inten    --      0.6753                11.2370                13.2881

                     46                     47                     48
                      A                      A                      A
 Frequencies --   1115.2271              1117.7550              1119.1833
 Red. masses --      1.6437                 3.0900                 2.0439
 Frc consts  --      1.2045                 2.2746                 1.5084
 IR Inten    --      1.7286                 3.3341                15.1118

                     49                     50                     51
                      A                      A                      A
 Frequencies --   1138.3876              1159.2787              1192.2252
 Red. masses --      2.0263                 2.6413                 1.7307
 Frc consts  --      1.5472                 2.0914                 1.4494
 IR Inten    --     19.2904                54.2187                 2.0237

                     52                     53                     54
                      A                      A                      A
 Frequencies --   1195.8363              1243.2692              1251.0416
 Red. masses --      4.6060                 1.7332                 2.0262
 Frc consts  --      3.8808                 1.5785                 1.8684
 IR Inten    --     31.6602                70.1462                29.7565

                     55                     56                     57
                      A                      A                      A
 Frequencies --   1278.8757              1296.4440              1312.2553
 Red. masses --      3.8322                 1.5023                 1.2270
 Frc consts  --      3.6928                 1.4877                 1.2449
 IR Inten    --     47.9714                 4.7135                 4.1596

                     58                     59                     60
                      A                      A                      A
 Frequencies --   1338.4621              1369.4732              1388.9216
 Red. masses --      3.1111                 1.9980                 2.1556
 Frc consts  --      3.2838                 2.2077                 2.4500
 IR Inten    --    111.1231                 2.8508                35.1499

                     61                     62                     63
                      A                      A                      A
 Frequencies --   1397.5295              1401.9928              1436.4224
 Red. masses --      1.5121                 1.4697                 1.7076
 Frc consts  --      1.7400                 1.7021                 2.0759
 IR Inten    --     49.0558                 5.2451                19.3703

                     64                     65                     66
                      A                      A                      A
 Frequencies --   1451.5632              1474.8792              1481.0640
 Red. masses --      1.2852                 2.1597                 2.8331
 Frc consts  --      1.5955                 2.7679                 3.6614
 IR Inten    --     10.5247               110.8418                 3.4663

                     67                     68                     69
                      A                      A                      A
 Frequencies --   1485.8900              1490.8950              1506.7434
 Red. masses --      2.0367                 2.3458                 1.2597
 Frc consts  --      2.6494                 3.0721                 1.6849
 IR Inten    --     39.8064                45.6529                13.6884

                     70                     71                     72
                      A                      A                      A
 Frequencies --   1512.6551              1516.0134              1524.3005
 Red. masses --      1.8574                 1.0895                 1.3361
 Frc consts  --      2.5041                 1.4753                 1.8291
 IR Inten    --    158.8211                 7.7010                22.7369

                     73                     74                     75
                      A                      A                      A
 Frequencies --   1531.1427              1540.1614              1548.5365
 Red. masses --      1.4226                 1.0619                 4.8089
 Frc consts  --      1.9650                 1.4841                 6.7942
 IR Inten    --     35.4245                10.8572                20.6686

                     76                     77                     78
                      A                      A                      A
 Frequencies --   1636.7642              1694.9956              1754.6266
 Red. masses --      4.4592                 1.1656                 7.5604
 Frc consts  --      7.0385                 1.9731                13.7141
 IR Inten    --     58.7999                59.0821               281.7515

                     79                     80                     81
                      A                      A                      A
 Frequencies --   3034.4670              3058.6919              3067.4032
 Red. masses --      1.0615                 1.0381                 1.0883
 Frc consts  --      5.7591                 5.7221                 6.0329
 IR Inten    --     28.8441                30.8612                15.8714

                     82                     83                     84
                      A                      A                      A
 Frequencies --   3071.1993              3106.2013              3120.9692
 Red. masses --      1.0846                 1.0622                 1.1018
 Frc consts  --      6.0277                 6.0384                 6.3233
 IR Inten    --     56.9310                23.1914                49.4089

                     85                     86                     87
                      A                      A                      A
 Frequencies --   3149.0428              3158.1825              3186.1912
 Red. masses --      1.1013                 1.1033                 1.0934
 Frc consts  --      6.4345                 6.4837                 6.5399
 IR Inten    --     12.8281                 1.7378                 2.1838

                     88                     89                     90
                      A                      A                      A
 Frequencies --   3250.6069              3269.3752              3516.6469
 Red. masses --      1.0953                 1.0958                 1.0489
 Frc consts  --      6.8186                 6.9011                 7.6423
 IR Inten    --      2.6135                 1.8552                 2.2373

                     91                     92                     93
                      A                      A                      A
 Frequencies --   3548.0354              3608.9468              3647.0356
 Red. masses --      1.0747                 1.0954                 1.0833
 Frc consts  --      7.9711                 8.4061                 8.4898
 IR Inten    --     17.2856                 3.6569               113.3717

 - Thermochemistry -
 -------------------
 Temperature   298.150 Kelvin.  Pressure   1.00000 Atm.
 Atom     1 has atomic number  6 and mass  12.00000

 Molecular mass:   249.13381 amu.
 Principal axes and moments of inertia in atomic units:
                           1         2         3
     Eigenvalues --  3041.899626379.293197321.56711
           X            0.99975  -0.02004   0.01018
           Y            0.02027   0.99953  -0.02314
           Z           -0.00971   0.02334   0.99968
 This molecule is an asymmetric top.
 Rotational symmetry number  1.
 Warning -- assumption of classical behavior for rotation
           may cause significant error
 Rotational temperatures (Kelvin)      0.02847     0.01358     0.01183
 Rotational constants (GHZ):           0.59329     0.28291     0.24650
 Zero-point vibrational energy     709274.9 (Joules/Mol)
                                  169.52077 (Kcal/Mol)
 Warning -- explicit consideration of  24 degrees of freedom as
           vibrations may cause significant error
 Vibrational temperatures:     28.24    39.42    54.66    83.33    97.69
          (Kelvin)            136.59   151.30   191.58   231.42   253.72
                              287.93   321.08   335.34   351.02   466.58
                              470.09   504.71   568.49   588.57   640.46
                              674.30   806.00   835.18   873.93   894.59
                              911.56   951.46   993.00  1009.41  1055.04
                             1076.74  1094.76  1118.90  1148.35  1160.78
                             1178.82  1191.99  1270.90  1321.08  1383.38
                             1485.49  1495.04  1511.50  1534.86  1586.90
                             1604.56  1608.20  1610.26  1637.89  1667.94
                             1715.35  1720.54  1788.79  1799.97  1840.02
                             1865.29  1888.04  1925.75  1970.37  1998.35
                             2010.73  2017.15  2066.69  2088.48  2122.02
                             2130.92  2137.86  2145.07  2167.87  2176.37
                             2181.21  2193.13  2202.97  2215.95  2228.00
                             2354.94  2438.72  2524.52  4365.92  4400.78
                             4413.31  4418.77  4469.13  4490.38  4530.77
                             4543.92  4584.22  4676.90  4703.90  5059.67
                             5104.83  5192.47  5247.27

 Zero-point correction=                           0.270149 (Hartree/Particle)
 Thermal correction to Energy=                    0.287413
 Thermal correction to Enthalpy=                  0.288358
 Thermal correction to Gibbs Free Energy=         0.222460
 Sum of electronic and zero-point Energies=           -848.321448
 Sum of electronic and thermal Energies=              -848.304183
 Sum of electronic and thermal Enthalpies=            -848.303239
 Sum of electronic and thermal Free Energies=         -848.369137

                     E (Thermal)             CV                S
                      KCal/Mol        Cal/Mol-Kelvin    Cal/Mol-Kelvin
 Total                  180.355             63.428            138.694
 Electronic               0.000              0.000              0.000
 Translational            0.889              2.981             42.439
 Rotational               0.889              2.981             33.318
 Vibrational            178.577             57.467             62.937
 Vibration     1          0.593              1.986              6.672
 Vibration     2          0.593              1.984              6.010
 Vibration     3          0.594              1.982              5.361
 Vibration     4          0.596              1.974              4.527
 Vibration     5          0.598              1.970              4.213
 Vibration     6          0.603              1.953              3.556
 Vibration     7          0.605              1.945              3.356
 Vibration     8          0.613              1.920              2.900
 Vibration     9          0.622              1.890              2.540
 Vibration    10          0.628              1.872              2.367
 Vibration    11          0.638              1.840              2.132
 Vibration    12          0.649              1.806              1.933
 Vibration    13          0.654              1.790              1.855
 Vibration    14          0.659              1.773              1.774
 Vibration    15          0.709              1.627              1.288
 Vibration    16          0.710              1.622              1.276
 Vibration    17          0.728              1.574              1.163
 Vibration    18          0.762              1.481              0.981
 Vibration    19          0.773              1.451              0.930
 Vibration    20          0.805              1.372              0.811
 Vibration    21          0.826              1.320              0.741
 Vibration    22          0.916              1.117              0.523
 Vibration    23          0.937              1.074              0.484
 Vibration    24          0.966              1.016              0.437

                           ! Non-Optimized Parameters !
 Normal termination of Gaussian 16 at Fri Dec 11 20:15:34 2020.

 ----------------------------------------------------------------------
 # B3LYP/6-311++G(d,p) empiricaldispersion=gd3bj scf=xqc pop=npa geom=c
 heck
 ----------------------------------------------------------------------

 --------------------------------------
 CID_61851465_JID_8287_Energie_neutraal
 --------------------------------------
 Structure from the checkpoint file:  "JID_8287.chk"
 Charge =  0 Multiplicity = 1

 SCF Done:  E(RB3LYP) =  -848.834216812     A.U. after   16 cycles
 Normal termination of Gaussian 16 at Fri Dec 11 20:21:02 2020.

 ----------------------------------------------------------------------
 # B3LYP/6-311++G(d,p) empiricaldispersion=gd3bj scf=xqc pop=npa geom=c
 heck
 ----------------------------------------------------------------------

 ------------------------------------
 CID_61851465_JID_8287_Energie_kation
 ------------------------------------
 Structure from the checkpoint file:  "JID_8287.chk"
 Charge =  1 Multiplicity = 2

 SCF Done:  E(UB3LYP) =  -848.570217144     A.U. after   25 cycles
 Normal termination of Gaussian 16 at Fri Dec 11 20:32:52 2020.
 Gaussian 16:  ES64L-G16RevA.03 25-Dec-2016

 ----------------------------------------------------------------------
 # B3LYP/6-311++G(d,p) empiricaldispersion=gd3bj scf=xqc pop=npa geom=c
 heck
 ----------------------------------------------------------------------

 -----------------------------------
 CID_61851465_JID_8287_Energie_anion
 -----------------------------------
 Structure from the checkpoint file:  "JID_8287.chk"
 Charge = -1 Multiplicity = 2

                         Standard orientation:
 ---------------------------------------------------------------------
 Center     Atomic      Atomic             Coordinates (Angstroms)
 Number     Number       Type             X           Y           Z
 ---------------------------------------------------------------------
      1          6           0       -3.266253    2.289628    0.645124
      2          6           0       -2.766815    2.283020   -0.800942
      3          6           0       -1.447167    1.523870   -0.983154
      4          7           0       -1.533410    0.143511   -0.507627
      5          6           0       -2.293708   -0.826915   -1.115677
      6          6           0       -2.109434   -2.028576   -0.442545
      7          6           0       -1.185208   -1.773049    0.599521
      8          6           0       -0.845104   -0.421230    0.540696
      9          6           0        0.020332    0.358053    1.437100
     10          8           0       -0.223905    1.506742    1.800255
     11          7           0        1.140412   -0.307415    1.935567
     12          6           0        1.978928   -1.158024    1.092501
     13          6           0        2.753865   -0.379059    0.068417
     14          7           0        4.072565   -0.457332   -0.098116
     15          7           0        4.253000    0.403414   -1.097439
     16          7           0        3.144538    0.994214   -1.532906
     17          7           0        2.179137    0.502934   -0.798083
     18          7           0       -2.669924   -3.277724   -0.775574
     19          1           0       -3.511480    1.274053    0.973561
     20          1           0       -4.167966    2.904346    0.742528
     21          1           0       -2.498443    2.671822    1.323060
     22          1           0       -3.532186    1.849619   -1.459137
     23          1           0       -2.603417    3.309900   -1.153640
     24          1           0       -1.156538    1.501542   -2.039578
     25          1           0       -0.649459    2.008964   -0.424318
     26          1           0       -2.886029   -0.598694   -1.989856
     27          1           0       -0.843301   -2.473910    1.349441
     28          1           0        1.666348    0.329087    2.527848
     29          1           0        2.680620   -1.709623    1.722909
     30          1           0        1.339609   -1.882139    0.585740
     31          1           0        5.163022    0.604065   -1.491172
     32          1           0       -2.780243   -3.872999    0.038794
     33          1           0       -3.570142   -3.187488   -1.235217
 ---------------------------------------------------------------------

 SCF Done:  E(UB3LYP) =  -848.827061784     A.U. after   33 cycles
 SCF Done:  E(UB3LYP) =  -848.827938481     a.u. after    7 cycles

 The electronic state is 2-A.
 Alpha  occ. eigenvalues --  -18.99249 -14.31733 -14.27705 -14.26110 -14.25136
 Alpha  occ. eigenvalues --  -14.23814 -14.23780 -14.21199 -10.17621 -10.13070
 Alpha  occ. eigenvalues --  -10.12682 -10.10889 -10.09957 -10.09933 -10.08662
 Alpha  occ. eigenvalues --  -10.08218 -10.06299 -10.06074  -1.04048  -0.94324
 Alpha  occ. eigenvalues --   -0.88786  -0.84323  -0.83124  -0.80324  -0.77679
 Alpha  occ. eigenvalues --   -0.71616  -0.66032  -0.64430  -0.63018  -0.58567
 Alpha  occ. eigenvalues --   -0.57645  -0.53585  -0.51977  -0.50817  -0.48403
 Alpha  occ. eigenvalues --   -0.46620  -0.44408  -0.42628  -0.40069  -0.39281
 Alpha  occ. eigenvalues --   -0.38675  -0.37689  -0.37028  -0.36582  -0.35290
 Alpha  occ. eigenvalues --   -0.35026  -0.32715  -0.31492  -0.31172  -0.30772
 Alpha  occ. eigenvalues --   -0.29938  -0.28649  -0.28071  -0.27765  -0.25995
 Alpha  occ. eigenvalues --   -0.25744  -0.24679  -0.22404  -0.21652  -0.21500
 Alpha  occ. eigenvalues --   -0.19810  -0.19096  -0.17636  -0.15772  -0.13091
 Alpha  occ. eigenvalues --   -0.09617   0.04074
 Alpha virt. eigenvalues --    0.05252   0.06211   0.06662   0.07007   0.07836
 Alpha virt. eigenvalues --    0.08447   0.09122   0.09815   0.10545   0.10932
 Alpha virt. eigenvalues --    0.11464   0.11965   0.12350   0.12839   0.13404

  Beta  occ. eigenvalues --  -18.99203 -14.31515 -14.27506 -14.26071 -14.24965
  Beta  occ. eigenvalues --  -14.23819 -14.23782 -14.21147 -10.17561 -10.13078
  Beta  occ. eigenvalues --  -10.12680 -10.10890 -10.09958 -10.09940 -10.08635
  Beta  occ. eigenvalues --  -10.08214 -10.06297 -10.06051  -1.03787  -0.94234
  Beta  occ. eigenvalues --   -0.88731  -0.84050  -0.83085  -0.80247  -0.77443
  Beta  occ. eigenvalues --   -0.71594  -0.65996  -0.64351  -0.62962  -0.58545
  Beta  occ. eigenvalues --   -0.57345  -0.53486  -0.51893  -0.50792  -0.48362
  Beta  occ. eigenvalues --   -0.46433  -0.44355  -0.42582  -0.39856  -0.39057
  Beta  occ. eigenvalues --   -0.38378  -0.37637  -0.36963  -0.36496  -0.35224
  Beta  occ. eigenvalues --   -0.34975  -0.32670  -0.31392  -0.31103  -0.30723
  Beta  occ. eigenvalues --   -0.29923  -0.28499  -0.27951  -0.27644  -0.25977
  Beta  occ. eigenvalues --   -0.25731  -0.24668  -0.21705  -0.21436  -0.21384
  Beta  occ. eigenvalues --   -0.19284  -0.18951  -0.17412  -0.15718  -0.12960
  Beta  occ. eigenvalues --   -0.09507
  Beta virt. eigenvalues --    0.06401   0.06809   0.07166   0.07516   0.08042
  Beta virt. eigenvalues --    0.08182   0.08553   0.09315   0.09883   0.10632
  Beta virt. eigenvalues --    0.10798   0.11575   0.12110   0.12468   0.12785

 Mulliken charges and spin densities:
               1          2
     1  C   -0.411750  -0.101014
     2  C   -0.366488   0.047678
     3  C   -0.118201  -0.019002
     4  N    0.424610   0.037084
     5  C   -0.346167   0.255133
     6  C    0.237813  -0.529132
     7  C    0.031821  -0.407772
     8  C    0.395724  -0.059696
     9  C   -0.506738  -0.187531
    10  O   -0.278450   0.015077
    11  N   -0.030032   0.041299
    12  C   -0.057342  -0.359730
    13  C   -0.228321   0.051841
    14  N   -0.034036   0.058077
    15  N    0.165091  -0.262545
    16  N    0.355279   0.179021
    17  N   -0.378858  -0.132319
    18  N   -0.328331  -0.025238
    19  H    0.130398   0.026764
    20  H    0.099308   0.029182
    21  H    0.172844  -0.007476
    22  H    0.065171   0.058198
    23  H    0.129942   0.007607
    24  H    0.171896   0.004504
    25  H    0.172249   0.014040
    26  H   -0.103085   0.248795
    27  H    0.066681   0.094862
    28  H    0.271983   0.000914
    29  H    0.186372   0.010241
    30  H    0.068254   0.093981
    31  H   -0.526058   0.901206
    32  H   -0.100511   0.337131
    33  H   -0.331068   0.578821
 Sum of Mulliken charges =  -1.00000   1.00000

 Dipole moment (field-independent basis, Debye):
    X=             -2.6519    Y=              2.2383    Z=              3.0574  Tot=              4.6249
 Quadrupole moment (field-independent basis, Debye-Ang):
   XX=           -196.3348   YY=           -148.8030   ZZ=           -132.1119
   XY=            -23.8180   XZ=             12.6504   YZ=             -8.5358

 Summary of Natural Population Analysis:

                                       Natural Population
                Natural  -----------------------------------------------
    Atom  No    Charge         Core      Valence    Rydberg      Total
 -----------------------------------------------------------------------
      C    1   -0.29259      0.99967     2.28801    0.00492     3.29259
      C    2   -0.19188      0.99964     2.18559    0.00666     3.19188
      C    3   -0.08272      0.99961     2.07359    0.00953     3.08272
      N    4   -0.18351      0.99962     2.67378    0.01011     3.68351
      C    5   -0.03435      0.99951     2.02252    0.01231     3.03435
      C    6    0.04705      0.99948     1.94202    0.01146     2.95295
      C    7   -0.14894      0.99949     2.13983    0.00962     3.14894
      C    8    0.02921      0.99947     1.95857    0.01274     2.97079
      C    9    0.33984      0.99961     1.63852    0.02203     2.66016
      O   10   -0.31704      0.99988     3.31155    0.00561     4.31704
      N   11   -0.32219      0.99970     2.81298    0.00951     3.82219
      C   12   -0.11051      0.99957     2.10078    0.01016     3.11051
      C   13    0.13877      0.99966     1.84303    0.01854     2.86123
      N   14   -0.13103      0.99969     2.61857    0.01276     3.63103
      N   15   -0.05554      0.99975     2.53895    0.01684     3.55554
      N   16   -0.00891      0.99979     2.49157    0.01755     3.50891
      N   17   -0.16036      0.99971     2.64700    0.01365     3.66036
      N   18   -0.40227      0.99972     2.89176    0.01079     3.90227
      H   19    0.10240      0.00000     0.39656    0.00104     0.39760
      H   20    0.09199      0.00000     0.40720    0.00081     0.40801
      H   21    0.10968      0.00000     0.38929    0.00103     0.39032
      H   22    0.09202      0.00000     0.40657    0.00140     0.40798
      H   23    0.09411      0.00000     0.40481    0.00108     0.40589
      H   24    0.09641      0.00000     0.40255    0.00104     0.40359
      H   25    0.11697      0.00000     0.38149    0.00154     0.38303
      H   26    0.09885      0.00000     0.40011    0.00103     0.40115
      H   27    0.10535      0.00000     0.39376    0.00089     0.39465
      H   28    0.18719      0.00000     0.31043    0.00238     0.31281
      H   29    0.10457      0.00000     0.39439    0.00104     0.39543
      H   30    0.11597      0.00000     0.38280    0.00123     0.38403
      H   31    0.20509      0.00000     0.27677    0.01814     0.29491
      H   32    0.18176      0.00000     0.31603    0.00221     0.31824
      H   33    0.18459      0.00000     0.31072    0.00469     0.31541
 =======================================================================
   * Total *    0.00000     17.99358    47.75210    0.25432    66.00000

 Normal termination of Gaussian 16 at Fri Dec 11 22:37:36 2020.
