 Gaussian 16, Revision A.03,

 -----------------------------------------------------------
 # opt freq B3LYP/6-31G(d) empiricaldispersion=gd3bj scf=xqc
 -----------------------------------------------------------

 -------------------------------
 CID_116707342_JID_5860_neutraal
 -------------------------------
 Symbolic Z-matrix:
 Charge =  0 Multiplicity = 1

 SCF Done:  E(RB3LYP) =  -656.722399046     A.U. after   15 cycles
 SCF Done:  E(RB3LYP) =  -656.725356992     A.U. after   13 cycles
 SCF Done:  E(RB3LYP) =  -656.723941379     A.U. after   13 cycles
 SCF Done:  E(RB3LYP) =  -656.723832463     A.U. after   13 cycles
 SCF Done:  E(RB3LYP) =  -656.723425816     A.U. after   12 cycles
 SCF Done:  E(RB3LYP) =  -656.725606582     A.U. after   10 cycles
 SCF Done:  E(RB3LYP) =  -656.726898459     A.U. after   13 cycles
 SCF Done:  E(RB3LYP) =  -656.726628828     A.U. after   13 cycles
 SCF Done:  E(RB3LYP) =  -656.727412452     A.U. after   12 cycles
 SCF Done:  E(RB3LYP) =  -656.727601297     A.U. after   12 cycles
 SCF Done:  E(RB3LYP) =  -656.727762984     A.U. after   10 cycles
 SCF Done:  E(RB3LYP) =  -656.727795516     A.U. after   11 cycles
 SCF Done:  E(RB3LYP) =  -656.727802073     A.U. after    9 cycles
 SCF Done:  E(RB3LYP) =  -656.727805591     A.U. after    9 cycles
 SCF Done:  E(RB3LYP) =  -656.727805720     A.U. after    7 cycles
 SCF Done:  E(RB3LYP) =  -656.727805729     A.U. after    7 cycles
 Optimization completed.
    -- Stationary point found.
 Normal termination of Gaussian 16 at Thu Dec 10 17:36:15 2020.

 --------------------------------------------------------------------
 #N Geom=AllCheck Guess=TCheck SCRF=Check GenChk RB3LYP/6-31G(d) Freq
 --------------------------------------------------------------------

 Structure from the checkpoint file:  "JID_5860.chk"
 -------------------------------
 CID_116707342_JID_5860_neutraal
 -------------------------------
 Charge =  0 Multiplicity = 1

 SCF Done:  E(RB3LYP) =  -656.727805729     A.U. after    1 cycles

  Exact polarizability: 181.317   5.917 132.865   0.679  17.703 108.037
 Approx polarizability: 242.375  12.772 221.026  -0.197  51.679 163.984

                      1                      2                      3
                      A                      A                      A
 Frequencies --     26.5213                29.5118                61.3527
 Red. masses --      4.1982                 2.5040                 3.9756
 Frc consts  --      0.0017                 0.0013                 0.0088
 IR Inten    --      0.6425                 0.1184                 1.1043

                      4                      5                      6
                      A                      A                      A
 Frequencies --     85.6122               114.3628               127.5322
 Red. masses --      2.5535                 3.2680                 3.7413
 Frc consts  --      0.0110                 0.0252                 0.0359
 IR Inten    --      0.0914                 2.3956                 0.1546

                      7                      8                      9
                      A                      A                      A
 Frequencies --    150.7486               156.1147               178.1467
 Red. masses --      2.9751                 1.7794                 1.5991
 Frc consts  --      0.0398                 0.0256                 0.0299
 IR Inten    --      2.9063                 1.3794                 0.3114

                     10                     11                     12
                      A                      A                      A
 Frequencies --    197.4365               229.3400               236.8914
 Red. masses --      3.1876                 1.3395                 1.5143
 Frc consts  --      0.0732                 0.0415                 0.0501
 IR Inten    --      1.3298                 1.7189                 0.5899

                     13                     14                     15
                      A                      A                      A
 Frequencies --    263.9907               305.7587               319.0870
 Red. masses --      2.5607                 1.8357                 3.2237
 Frc consts  --      0.1051                 0.1011                 0.1934
 IR Inten    --      9.7995                 2.4943                 0.2738

                     16                     17                     18
                      A                      A                      A
 Frequencies --    323.2837               387.5758               418.1173
 Red. masses --      2.9913                 2.6292                 5.2557
 Frc consts  --      0.1842                 0.2327                 0.5413
 IR Inten    --      0.8474                 3.5890                 1.6241

                     19                     20                     21
                      A                      A                      A
 Frequencies --    436.3452               504.4463               529.0252
 Red. masses --      3.4870                 3.7894                 4.1695
 Frc consts  --      0.3912                 0.5681                 0.6875
 IR Inten    --      1.1351                 2.9754                17.2608

                     22                     23                     24
                      A                      A                      A
 Frequencies --    552.4663               584.5554               651.6768
 Red. masses --      4.8882                 4.4843                 5.4318
 Frc consts  --      0.8790                 0.9028                 1.3591
 IR Inten    --      7.2101                 3.2585                31.6906

                     25                     26                     27
                      A                      A                      A
 Frequencies --    699.5543               716.9594               756.2529
 Red. masses --      5.9002                 2.3345                 2.2428
 Frc consts  --      1.7012                 0.7070                 0.7557
 IR Inten    --      0.0957                15.1376                10.4805

                     28                     29                     30
                      A                      A                      A
 Frequencies --    800.1564               800.8460               824.7152
 Red. masses --      1.4289                 1.2456                 1.7117
 Frc consts  --      0.5390                 0.4707                 0.6859
 IR Inten    --     13.3171                 2.0556                17.0567

                     31                     32                     33
                      A                      A                      A
 Frequencies --    858.7206               903.2660               946.3254
 Red. masses --      2.8371                 2.7001                 1.3794
 Frc consts  --      1.2326                 1.2979                 0.7278
 IR Inten    --      1.0350                 2.8214                 1.9334

                     34                     35                     36
                      A                      A                      A
 Frequencies --    963.9615               970.6729               986.3372
 Red. masses --      1.4973                 1.9238                 2.3959
 Frc consts  --      0.8197                 1.0679                 1.3733
 IR Inten    --      6.1621                10.9434                 0.6528

                     37                     38                     39
                      A                      A                      A
 Frequencies --   1000.9876              1023.9252              1045.2968
 Red. masses --      1.2932                 6.1821                 1.8978
 Frc consts  --      0.7634                 3.8188                 1.2217
 IR Inten    --      2.1968                 0.5188                 7.6684

                     40                     41                     42
                      A                      A                      A
 Frequencies --   1083.2806              1094.6947              1099.9867
 Red. masses --      1.8074                 2.1330                 2.1236
 Frc consts  --      1.2496                 1.5060                 1.5139
 IR Inten    --     10.9881                10.4598                 2.4979

                     43                     44                     45
                      A                      A                      A
 Frequencies --   1106.3647              1138.7146              1150.3241
 Red. masses --      1.8929                 1.5633                 2.3147
 Frc consts  --      1.3651                 1.1943                 1.8046
 IR Inten    --      8.3898                 4.0996                77.1962

                     46                     47                     48
                      A                      A                      A
 Frequencies --   1165.6832              1194.0335              1209.7631
 Red. masses --      2.5611                 1.2818                 1.1285
 Frc consts  --      2.0504                 1.0767                 0.9731
 IR Inten    --     88.9526                 1.6929                11.2690

                     49                     50                     51
                      A                      A                      A
 Frequencies --   1216.4492              1240.1034              1282.8457
 Red. masses --      2.1685                 1.7149                 1.8044
 Frc consts  --      1.8906                 1.5538                 1.7496
 IR Inten    --     37.8643                22.7776                58.9087

                     52                     53                     54
                      A                      A                      A
 Frequencies --   1290.1231              1323.3745              1337.9008
 Red. masses --      1.6496                 1.5513                 1.3755
 Frc consts  --      1.6177                 1.6007                 1.4506
 IR Inten    --     35.3239                45.7914                 2.1560

                     55                     56                     57
                      A                      A                      A
 Frequencies --   1346.8244              1372.2899              1374.2807
 Red. masses --      1.3263                 2.7199                 2.0285
 Frc consts  --      1.4175                 3.0179                 2.2572
 IR Inten    --      6.2231                 6.4570                 1.0359

                     58                     59                     60
                      A                      A                      A
 Frequencies --   1390.6878              1397.5748              1436.3419
 Red. masses --      1.2504                 1.3593                 1.2193
 Frc consts  --      1.4248                 1.5643                 1.4821
 IR Inten    --     27.1198                 5.6166                 1.3718

                     61                     62                     63
                      A                      A                      A
 Frequencies --   1443.5461              1482.7148              1504.3375
 Red. masses --      1.2585                 2.9192                 1.1582
 Frc consts  --      1.5451                 3.7812                 1.5442
 IR Inten    --      5.9079                13.5524                 0.8971

                     64                     65                     66
                      A                      A                      A
 Frequencies --   1508.9850              1517.7194              1519.7676
 Red. masses --      1.0817                 1.0917                 1.0618
 Frc consts  --      1.4512                 1.4816                 1.4449
 IR Inten    --      4.7538                 0.4945                 3.3533

                     67                     68                     69
                      A                      A                      A
 Frequencies --   1526.2438              1529.9471              1532.4582
 Red. masses --      1.0411                 1.0928                 1.6872
 Frc consts  --      1.4289                 1.5071                 2.3344
 IR Inten    --      8.1946                 5.7222                 4.9773

                     70                     71                     72
                      A                      A                      A
 Frequencies --   1535.9634              1539.1571              1539.7799
 Red. masses --      1.0929                 1.1115                 1.0991
 Frc consts  --      1.5191                 1.5513                 1.5354
 IR Inten    --      5.6714                11.1570                 2.9038

                     73                     74                     75
                      A                      A                      A
 Frequencies --   1640.2173              1659.0881              1754.0534
 Red. masses --      5.3644                 5.9220                11.5412
 Frc consts  --      8.5031                 9.6041                20.9212
 IR Inten    --      3.6907                28.4318               125.1735

                     76                     77                     78
                      A                      A                      A
 Frequencies --   3006.1036              3012.4875              3047.7651
 Red. masses --      1.0652                 1.0533                 1.0584
 Frc consts  --      5.6716                 5.6317                 5.7923
 IR Inten    --     16.5517                68.3079                29.7291

                     79                     80                     81
                      A                      A                      A
 Frequencies --   3049.6382              3059.8240              3061.5881
 Red. masses --      1.0365                 1.0358                 1.0622
 Frc consts  --      5.6795                 5.7139                 5.8659
 IR Inten    --     34.0073                17.2308                37.5726

                     82                     83                     84
                      A                      A                      A
 Frequencies --   3064.3864              3083.8843              3101.7538
 Red. masses --      1.1037                 1.1034                 1.1028
 Frc consts  --      6.1062                 6.1827                 6.2512
 IR Inten    --     51.2806                 7.4802                 6.5387

                     85                     86                     87
                      A                      A                      A
 Frequencies --   3120.3613              3124.2989              3124.4513
 Red. masses --      1.1029                 1.1020                 1.1035
 Frc consts  --      6.3271                 6.3379                 6.3469
 IR Inten    --     47.8727                55.8865                23.3663

                     88                     89                     90
                      A                      A                      A
 Frequencies --   3137.9355              3143.1456              3176.3106
 Red. masses --      1.1029                 1.0989                 1.0877
 Frc consts  --      6.3982                 6.3966                 6.4656
 IR Inten    --     28.3519                25.9277                11.8580

                     91                     92                     93
                      A                      A                      A
 Frequencies --   3199.4055              3210.0171              3262.8351
 Red. masses --      1.0934                 1.0897                 1.0916
 Frc consts  --      6.5946                 6.6157                 6.8471
 IR Inten    --     23.5060                 3.4960                 3.9268

 - Thermochemistry -
 -------------------
 Temperature   298.150 Kelvin.  Pressure   1.00000 Atm.
 Atom     1 has atomic number  6 and mass  12.00000

 Molecular mass:   206.13068 amu.
 Principal axes and moments of inertia in atomic units:
                           1         2         3
     Eigenvalues --  1726.948295336.555155661.74474
           X            0.99995  -0.00998  -0.00207
           Y            0.00975   0.99573  -0.09179
           Z            0.00298   0.09177   0.99578
 This molecule is an asymmetric top.
 Rotational symmetry number  1.
 Warning -- assumption of classical behavior for rotation
           may cause significant error
 Rotational temperatures (Kelvin)      0.05015     0.01623     0.01530
 Rotational constants (GHZ):           1.04505     0.33818     0.31876
 Zero-point vibrational energy     751492.2 (Joules/Mol)
                                  179.61095 (Kcal/Mol)
 Warning -- explicit consideration of  23 degrees of freedom as
           vibrations may cause significant error
 Vibrational temperatures:     38.16    42.46    88.27   123.18   164.54
          (Kelvin)            183.49   216.89   224.61   256.31   284.07
                              329.97   340.83   379.82   439.92   459.10
                              465.13   557.64   601.58   627.80   725.79
                              761.15   794.88   841.04   937.62  1006.50
                             1031.54  1088.08  1151.25  1152.24  1186.58
                             1235.51  1299.60  1361.55  1386.93  1396.58
                             1419.12  1440.20  1473.20  1503.95  1558.60
                             1575.02  1582.64  1591.81  1638.36  1655.06
                             1677.16  1717.95  1740.58  1750.20  1784.23
                             1845.73  1856.20  1904.04  1924.94  1937.78
                             1974.42  1977.28  2000.89  2010.80  2066.58
                             2076.94  2133.30  2164.41  2171.09  2183.66
                             2186.61  2195.92  2201.25  2204.87  2209.91
                             2214.50  2215.40  2359.91  2387.06  2523.69
                             4325.11  4334.30  4385.05  4387.75  4402.40
                             4404.94  4408.97  4437.02  4462.73  4489.50
                             4495.17  4495.39  4514.79  4522.29  4570.00
                             4603.23  4618.50  4694.49

 Zero-point correction=                           0.286228 (Hartree/Particle)
 Thermal correction to Energy=                    0.302022
 Thermal correction to Enthalpy=                  0.302966
 Thermal correction to Gibbs Free Energy=         0.242002
 Sum of electronic and zero-point Energies=           -656.441577
 Sum of electronic and thermal Energies=              -656.425784
 Sum of electronic and thermal Enthalpies=            -656.424839
 Sum of electronic and thermal Free Energies=         -656.485804

                     E (Thermal)             CV                S
                      KCal/Mol        Cal/Mol-Kelvin    Cal/Mol-Kelvin
 Total                  189.522             58.242            128.310
 Electronic               0.000              0.000              0.000
 Translational            0.889              2.981             41.874
 Rotational               0.889              2.981             32.323
 Vibrational            187.744             52.281             54.113
 Vibration     1          0.593              1.984              6.074
 Vibration     2          0.593              1.984              5.862
 Vibration     3          0.597              1.973              4.413
 Vibration     4          0.601              1.959              3.758
 Vibration     5          0.607              1.938              3.193
 Vibration     6          0.611              1.926              2.983
 Vibration     7          0.618              1.902              2.663
 Vibration     8          0.620              1.896              2.596
 Vibration     9          0.629              1.869              2.348
 Vibration    10          0.637              1.843              2.157
 Vibration    11          0.652              1.796              1.884
 Vibration    12          0.656              1.784              1.826
 Vibration    13          0.671              1.739              1.635
 Vibration    14          0.696              1.663              1.385
 Vibration    15          0.705              1.637              1.315
 Vibration    16          0.708              1.629              1.293
 Vibration    17          0.756              1.497              1.009
 Vibration    18          0.781              1.431              0.898
 Vibration    19          0.797              1.391              0.838
 Vibration    20          0.860              1.240              0.647
 Vibration    21          0.884              1.186              0.589
 Vibration    22          0.908              1.134              0.539
 Vibration    23          0.942              1.065              0.477

 Optimization completed.
    -- Stationary point found.
 Normal termination of Gaussian 16 at Thu Dec 10 17:47:11 2020.

 ----------------------------------------------------------------------
 # B3LYP/6-311++G(d,p) empiricaldispersion=gd3bj scf=xqc pop=npa geom=c
 heck
 ----------------------------------------------------------------------

 ---------------------------------------
 CID_116707342_JID_5860_Energie_neutraal
 ---------------------------------------
 Structure from the checkpoint file:  "JID_5860.chk"
 Charge =  0 Multiplicity = 1

 SCF Done:  E(RB3LYP) =  -656.908314001     A.U. after   15 cycles
 Normal termination of Gaussian 16 at Thu Dec 10 17:52:23 2020.

 ----------------------------------------------------------------------
 # B3LYP/6-311++G(d,p) empiricaldispersion=gd3bj scf=xqc pop=npa geom=c
 heck
 ----------------------------------------------------------------------

 -------------------------------------
 CID_116707342_JID_5860_Energie_kation
 -------------------------------------
 Structure from the checkpoint file:  "JID_5860.chk"
 Charge =  1 Multiplicity = 2

 SCF Done:  E(UB3LYP) =  -656.595317369     A.U. after   30 cycles
 Normal termination of Gaussian 16 at Thu Dec 10 18:08:40 2020.
 Gaussian 16:  ES64L-G16RevA.03 25-Dec-2016

 ----------------------------------------------------------------------
 # B3LYP/6-311++G(d,p) empiricaldispersion=gd3bj scf=xqc pop=npa geom=c
 heck
 ----------------------------------------------------------------------

 ------------------------------------
 CID_116707342_JID_5860_Energie_anion
 ------------------------------------
 Structure from the checkpoint file:  "JID_5860.chk"
 Charge = -1 Multiplicity = 2

                         Standard orientation:
 ---------------------------------------------------------------------
 Center     Atomic      Atomic             Coordinates (Angstroms)
 Number     Number       Type             X           Y           Z
 ---------------------------------------------------------------------
      1          6           0        4.514567   -1.149769    0.448501
      2          6           0        3.925586   -0.215953   -0.621526
      3          6           0        2.551398    0.286662   -0.242188
      4          6           0        1.406711   -0.422561   -0.600895
      5          6           0        0.124961    0.003840   -0.216415
      6          6           0       -0.005802    1.172644    0.550855
      7          6           0        1.133620    1.885865    0.919449
      8          6           0        2.397618    1.449563    0.526420
      9          6           0       -1.023453   -0.851688   -0.645713
     10          8           0       -0.825485   -1.929436   -1.192442
     11          6           0       -2.501555   -0.482070   -0.395209
     12          6           0       -3.029839   -1.197295    0.858471
     13          6           0       -2.416575   -0.724495    2.178230
     14          8           0       -2.793736    0.900266   -0.278475
     15          6           0       -2.672188    1.601874   -1.503171
     16          1           0        4.602805   -0.633213    1.410842
     17          1           0        5.509744   -1.503957    0.157507
     18          1           0        3.869829   -2.022668    0.598006
     19          1           0        4.600913    0.635215   -0.773517
     20          1           0        3.869679   -0.749215   -1.577927
     21          1           0        1.483224   -1.331583   -1.189604
     22          1           0       -0.987427    1.516871    0.845468
     23          1           0        1.033419    2.790212    1.513076
     24          1           0        3.279621    2.017312    0.814765
     25          1           0       -3.031865   -0.896411   -1.266413
     26          1           0       -4.115356   -1.045475    0.880227
     27          1           0       -2.853272   -2.269171    0.715913
     28          1           0       -2.595991    0.343797    2.332080
     29          1           0       -2.863496   -1.265914    3.018817
     30          1           0       -1.335223   -0.893839    2.208383
     31          1           0       -2.976913    2.633294   -1.310567
     32          1           0       -1.638600    1.599603   -1.876956
     33          1           0       -3.327620    1.168807   -2.273610
 ---------------------------------------------------------------------

 SCF Done:  E(UB3LYP) =  -656.919642965     A.U. after   28 cycles

 The electronic state is 2-A.
 Alpha  occ. eigenvalues --  -19.00057 -18.91047 -10.09515 -10.08094 -10.05227
 Alpha  occ. eigenvalues --  -10.05211 -10.05184 -10.04247 -10.03630 -10.02977
 Alpha  occ. eigenvalues --  -10.02195 -10.01186 -10.01091 -10.00822 -10.00610
 Alpha  occ. eigenvalues --   -0.91430  -0.85279  -0.70751  -0.66124  -0.65555
 Alpha  occ. eigenvalues --   -0.59716  -0.58687  -0.58474  -0.53597  -0.50760
 Alpha  occ. eigenvalues --   -0.48636  -0.45211  -0.43870  -0.39537  -0.37496
 Alpha  occ. eigenvalues --   -0.35312  -0.34251  -0.33464  -0.33279  -0.31677
 Alpha  occ. eigenvalues --   -0.31190  -0.29212  -0.28954  -0.28201  -0.26932
 Alpha  occ. eigenvalues --   -0.26853  -0.25444  -0.24571  -0.24333  -0.23037
 Alpha  occ. eigenvalues --   -0.22861  -0.22137  -0.21515  -0.20445  -0.19378
 Alpha  occ. eigenvalues --   -0.18767  -0.18254  -0.14469  -0.10385  -0.10258
 Alpha  occ. eigenvalues --   -0.07233   0.04800
 Alpha virt. eigenvalues --    0.07937   0.08563   0.09264   0.09732   0.10310
 Alpha virt. eigenvalues --    0.10866   0.11613   0.11793   0.12522   0.12856
 Alpha virt. eigenvalues --    0.13320   0.13800   0.14211   0.14308   0.15045

  Beta  occ. eigenvalues --  -19.00046 -18.90465 -10.09511 -10.08126 -10.05211
  Beta  occ. eigenvalues --  -10.05179 -10.04841 -10.04213 -10.03628 -10.03061
  Beta  occ. eigenvalues --  -10.02248 -10.00942 -10.00856 -10.00725 -10.00416
  Beta  occ. eigenvalues --   -0.91393  -0.84220  -0.70492  -0.66017  -0.65477
  Beta  occ. eigenvalues --   -0.59198  -0.58537  -0.58356  -0.53466  -0.50629
  Beta  occ. eigenvalues --   -0.47982  -0.44934  -0.43725  -0.39231  -0.37430
  Beta  occ. eigenvalues --   -0.35209  -0.34151  -0.33238  -0.33102  -0.31521
  Beta  occ. eigenvalues --   -0.31099  -0.29117  -0.28890  -0.28052  -0.26809
  Beta  occ. eigenvalues --   -0.26776  -0.25067  -0.24415  -0.23881  -0.22867
  Beta  occ. eigenvalues --   -0.22319  -0.21823  -0.21159  -0.20086  -0.19040
  Beta  occ. eigenvalues --   -0.18591  -0.16537  -0.14301  -0.09485  -0.08512
  Beta  occ. eigenvalues --   -0.06749
  Beta virt. eigenvalues --    0.07885   0.08436   0.09189   0.09638   0.10265
  Beta virt. eigenvalues --    0.10712   0.11341   0.11567   0.11794   0.12462
  Beta virt. eigenvalues --    0.12762   0.13364   0.13968   0.14254   0.14294

 Mulliken charges and spin densities:
               1          2
     1  C   -0.605611  -0.023033
     2  C   -0.253113   0.006503
     3  C    0.873916  -0.059946
     4  C   -0.191542   0.175999
     5  C    0.867988  -0.007212
     6  C   -0.769638   0.140900
     7  C   -0.566768   0.003973
     8  C   -0.440131   0.268108
     9  C   -0.501872   0.207507
    10  O   -0.380289   0.213722
    11  C   -0.102363   0.027782
    12  C   -0.126077  -0.126120
    13  C   -0.640785   0.031072
    14  O   -0.091265   0.003753
    15  C   -0.268634  -0.008182
    16  H    0.136234  -0.004101
    17  H    0.082720   0.005650
    18  H    0.125946   0.018738
    19  H    0.092193   0.032174
    20  H    0.141661  -0.007829
    21  H    0.196258  -0.013520
    22  H    0.099722  -0.009347
    23  H    0.116281   0.002740
    24  H    0.088251  -0.019921
    25  H    0.111957   0.062802
    26  H    0.046647   0.082947
    27  H    0.175094  -0.024047
    28  H    0.164223  -0.003729
    29  H    0.109720   0.005832
    30  H    0.143390   0.001960
    31  H    0.134123   0.000910
    32  H    0.147563  -0.000872
    33  H    0.084200   0.014786
 Sum of Mulliken charges =  -1.00000   1.00000

 Dipole moment (field-independent basis, Debye):
    X=              0.0615    Y=              2.2507    Z=              1.0761  Tot=              2.4955
 Quadrupole moment (field-independent basis, Debye-Ang):
   XX=           -122.0076   YY=           -112.2783   ZZ=           -105.7017
   XY=             -5.3214   XZ=             -0.3696   YZ=             -6.0435

 Summary of Natural Population Analysis:

                                       Natural Population
                Natural  -----------------------------------------------
    Atom  No    Charge         Core      Valence    Rydberg      Total
 -----------------------------------------------------------------------
      C    1   -0.28101      0.99967     2.27746    0.00388     3.28101
      C    2   -0.19045      0.99961     2.18294    0.00790     3.19045
      C    3   -0.04740      0.99951     2.03868    0.00921     3.04740
      C    4   -0.04232      0.99948     2.03427    0.00857     3.04232
      C    5   -0.05572      0.99948     2.04475    0.01150     3.05572
      C    6   -0.06905      0.99954     2.06170    0.00781     3.06905
      C    7   -0.12734      0.99958     2.11817    0.00959     3.12734
      C    8   -0.04419      0.99952     2.03569    0.00898     3.04419
      C    9    0.30483      0.99959     1.67367    0.02191     2.69517
      O   10   -0.25267      0.99988     3.24657    0.00622     4.25267
      C   11    0.03300      0.99951     1.95013    0.01736     2.96700
      C   12   -0.18899      0.99961     2.17974    0.00963     3.18899
      C   13   -0.28875      0.99967     2.28485    0.00424     3.28875
      O   14   -0.30797      0.99988     3.29711    0.01099     4.30797
      C   15   -0.09707      0.99962     2.08971    0.00774     3.09707
      H   16    0.09516      0.00000     0.40383    0.00101     0.40484
      H   17    0.08662      0.00000     0.41220    0.00118     0.41338
      H   18    0.09916      0.00000     0.39980    0.00105     0.40084
      H   19    0.08975      0.00000     0.40838    0.00187     0.41025
      H   20    0.09429      0.00000     0.40445    0.00126     0.40571
      H   21    0.10343      0.00000     0.39535    0.00122     0.39657
      H   22    0.10286      0.00000     0.39552    0.00163     0.39714
      H   23    0.08749      0.00000     0.41084    0.00168     0.41251
      H   24    0.08271      0.00000     0.41583    0.00146     0.41729
      H   25    0.08596      0.00000     0.41176    0.00229     0.41404
      H   26    0.08621      0.00000     0.41107    0.00272     0.41379
      H   27    0.10269      0.00000     0.39645    0.00085     0.39731
      H   28    0.09843      0.00000     0.40065    0.00092     0.40157
      H   29    0.08885      0.00000     0.41028    0.00087     0.41115
      H   30    0.10646      0.00000     0.39269    0.00085     0.39354
      H   31    0.08244      0.00000     0.41674    0.00082     0.41756
      H   32    0.08934      0.00000     0.40933    0.00134     0.41066
      H   33    0.07327      0.00000     0.42521    0.00152     0.42673
 =======================================================================
   * Total *    0.00000     14.99413    40.83580    0.17006    56.00000

 Normal termination of Gaussian 16 at Thu Dec 10 18:22:11 2020.
