 Gaussian 16, Revision A.03,

 -----------------------------------------------------------
 # opt freq B3LYP/6-31G(d) empiricaldispersion=gd3bj scf=xqc
 -----------------------------------------------------------

 -----------------------------
 CID_82040027_JID_675_neutraal
 -----------------------------
 Symbolic Z-matrix:
 Charge =  0 Multiplicity = 1

 SCF Done:  E(RB3LYP) =  -892.916563279     A.U. after   14 cycles
 SCF Done:  E(RB3LYP) =  -892.919628302     A.U. after   13 cycles
 SCF Done:  E(RB3LYP) =  -892.919256924     A.U. after   12 cycles
 SCF Done:  E(RB3LYP) =  -892.920775141     A.U. after   12 cycles
 SCF Done:  E(RB3LYP) =  -892.920782661     A.U. after   12 cycles
 SCF Done:  E(RB3LYP) =  -892.921181531     A.U. after   12 cycles
 SCF Done:  E(RB3LYP) =  -892.921302190     A.U. after   10 cycles
 SCF Done:  E(RB3LYP) =  -892.921327103     A.U. after   10 cycles
 SCF Done:  E(RB3LYP) =  -892.921337085     A.U. after   10 cycles
 SCF Done:  E(RB3LYP) =  -892.921341220     A.U. after    9 cycles
 SCF Done:  E(RB3LYP) =  -892.921342910     A.U. after    8 cycles
 SCF Done:  E(RB3LYP) =  -892.921343160     A.U. after    7 cycles
 Optimization completed.
    -- Stationary point found.
 Normal termination of Gaussian 16 at Tue Dec  8 12:24:19 2020.

 --------------------------------------------------------------------
 #N Geom=AllCheck Guess=TCheck SCRF=Check GenChk RB3LYP/6-31G(d) Freq
 --------------------------------------------------------------------

 Structure from the checkpoint file:  "JID_675.chk"
 -----------------------------
 CID_82040027_JID_675_neutraal
 -----------------------------
 Charge =  0 Multiplicity = 1

 SCF Done:  E(RB3LYP) =  -892.921343160     A.U. after    1 cycles

  Exact polarizability:  92.963  -2.842  80.702   1.050   2.810  75.431
 Approx polarizability: 115.561   0.407 118.261  -3.795  11.691 118.065

                      1                      2                      3
                      A                      A                      A
 Frequencies --     36.7568                55.8353               106.6866
 Red. masses --      3.9481                 4.1581                 3.9560
 Frc consts  --      0.0031                 0.0076                 0.0265
 IR Inten    --      3.0177                 4.1627                 1.7814

                      4                      5                      6
                      A                      A                      A
 Frequencies --    133.6046               172.8093               198.5569
 Red. masses --      3.3728                 2.9552                 3.2600
 Frc consts  --      0.0355                 0.0520                 0.0757
 IR Inten    --      4.5629                 0.2373                 1.7344

                      7                      8                      9
                      A                      A                      A
 Frequencies --    218.0666               225.9387               253.4558
 Red. masses --      1.1009                 1.2322                 1.1389
 Frc consts  --      0.0308                 0.0371                 0.0431
 IR Inten    --      1.4265                 0.6474                14.6327

                     10                     11                     12
                      A                      A                      A
 Frequencies --    298.1290               314.5531               322.4965
 Red. masses --      2.8110                 3.8469                 3.8934
 Frc consts  --      0.1472                 0.2243                 0.2386
 IR Inten    --      1.7461                 2.3948                 0.5501

                     13                     14                     15
                      A                      A                      A
 Frequencies --    390.0676               438.6021               458.1561
 Red. masses --      3.7300                 3.7071                 3.4322
 Frc consts  --      0.3344                 0.4202                 0.4245
 IR Inten    --      3.0112                17.8412                15.4578

                     16                     17                     18
                      A                      A                      A
 Frequencies --    494.7963               509.7417               643.0649
 Red. masses --      7.4279                 5.4800                 2.2666
 Frc consts  --      1.0714                 0.8389                 0.5523
 IR Inten    --     38.9042                24.3513                51.8509

                     19                     20                     21
                      A                      A                      A
 Frequencies --    715.7724               743.1563               799.8717
 Red. masses --      1.8906                 3.2127                 3.8072
 Frc consts  --      0.5707                 1.0454                 1.4352
 IR Inten    --     18.5495               162.3544                11.0369

                     22                     23                     24
                      A                      A                      A
 Frequencies --    864.6457               908.2399               942.0833
 Red. masses --      2.3854                 3.7943                 1.6145
 Frc consts  --      1.0507                 1.8441                 0.8442
 IR Inten    --     38.0281                 1.7483                 1.7284

                     25                     26                     27
                      A                      A                      A
 Frequencies --    958.7686               992.8360               998.3858
 Red. masses --      2.4327                 1.3919                 1.5000
 Frc consts  --      1.3176                 0.8084                 0.8809
 IR Inten    --     26.7454                16.4778                39.0866

                     28                     29                     30
                      A                      A                      A
 Frequencies --   1040.1319              1127.5202              1144.7651
 Red. masses --      1.8180                 2.4249                 5.5028
 Frc consts  --      1.1588                 1.8163                 4.2488
 IR Inten    --     49.5698               156.7224               108.4826

                     31                     32                     33
                      A                      A                      A
 Frequencies --   1154.0498              1176.6111              1247.5598
 Red. masses --      2.8050                 2.2921                 1.2439
 Frc consts  --      2.2011                 1.8696                 1.1407
 IR Inten    --      3.1254                18.2403                14.3717

                     34                     35                     36
                      A                      A                      A
 Frequencies --   1279.7519              1329.2600              1340.3087
 Red. masses --      1.2993                 1.1938                 2.8321
 Frc consts  --      1.2538                 1.2428                 2.9976
 IR Inten    --     67.6337                15.0957               137.0052

                     37                     38                     39
                      A                      A                      A
 Frequencies --   1359.5006              1376.4239              1391.2095
 Red. masses --      2.0112                 1.2172                 1.2441
 Frc consts  --      2.1901                 1.3587                 1.4188
 IR Inten    --     77.2436                 7.8030                 6.6538

                     40                     41                     42
                      A                      A                      A
 Frequencies --   1400.1625              1440.7832              1449.2991
 Red. masses --      1.2729                 1.3146                 1.3557
 Frc consts  --      1.4702                 1.6078                 1.6777
 IR Inten    --     10.0634                25.9260                68.8962

                     43                     44                     45
                      A                      A                      A
 Frequencies --   1485.4584              1492.7405              1516.0868
 Red. masses --      1.0516                 1.0604                 1.0507
 Frc consts  --      1.3672                 1.3922                 1.4230
 IR Inten    --      2.6549                 4.9910                11.8199

                     46                     47                     48
                      A                      A                      A
 Frequencies --   1524.4603              1529.9898              1686.9122
 Red. masses --      1.0644                 1.0646                 1.0664
 Frc consts  --      1.4575                 1.4684                 1.7879
 IR Inten    --      0.9669                13.5037                24.4419

                     49                     50                     51
                      A                      A                      A
 Frequencies --   3004.0537              3066.2676              3071.7291
 Red. masses --      1.0709                 1.0427                 1.0790
 Frc consts  --      5.6942                 5.7761                 5.9982
 IR Inten    --     47.0556                14.7562                23.0473

                     52                     53                     54
                      A                      A                      A
 Frequencies --   3081.8891              3122.4990              3135.0431
 Red. masses --      1.0296                 1.0918                 1.1027
 Frc consts  --      5.7615                 6.2718                 6.3856
 IR Inten    --      1.9348                 6.4108                21.3046

                     55                     56                     57
                      A                      A                      A
 Frequencies --   3153.8999              3180.4843              3183.7551
 Red. masses --      1.1014                 1.1064                 1.1071
 Frc consts  --      6.4549                 6.5942                 6.6117
 IR Inten    --     19.1264                 2.9372                 2.4642

                     58                     59                     60
                      A                      A                      A
 Frequencies --   3419.9704              3511.1575              3521.0862
 Red. masses --      1.0509                 1.0760                 1.0932
 Frc consts  --      7.2421                 7.8157                 7.9856
 IR Inten    --      0.8786               140.4028                 0.9570

 - Thermochemistry -
 -------------------
 Temperature   298.150 Kelvin.  Pressure   1.00000 Atm.
 Atom     1 has atomic number  6 and mass  12.00000

 Molecular mass:   168.05686 amu.
 Principal axes and moments of inertia in atomic units:
                           1         2         3
     Eigenvalues --   873.587692893.777503070.81718
           X            0.99941  -0.02353   0.02497
           Y            0.02515   0.99746  -0.06671
           Z           -0.02334   0.06730   0.99746
 This molecule is an asymmetric top.
 Rotational symmetry number  1.
 Warning -- assumption of classical behavior for rotation
           may cause significant error
 Rotational temperatures (Kelvin)      0.09915     0.02993     0.02821
 Rotational constants (GHZ):           2.06590     0.62366     0.58771
 Zero-point vibrational energy     479343.0 (Joules/Mol)
                                  114.56574 (Kcal/Mol)
 Warning -- explicit consideration of  17 degrees of freedom as
           vibrations may cause significant error
 Vibrational temperatures:     52.88    80.33   153.50   192.23   248.63
          (Kelvin)            285.68   313.75   325.08   364.67   428.94
                              452.57   464.00   561.22   631.05   659.18
                              711.90   733.40   925.23  1029.84  1069.24
                             1150.84  1244.03  1306.75  1355.45  1379.45
                             1428.47  1436.45  1496.52  1622.25  1647.06
                             1660.42  1692.88  1794.96  1841.28  1912.51
                             1928.41  1956.02  1980.37  2001.64  2014.52
                             2072.97  2085.22  2137.24  2147.72  2181.31
                             2193.36  2201.31  2427.09  4322.16  4411.68
                             4419.53  4434.15  4492.58  4510.63  4537.76
                             4576.01  4580.71  4920.57  5051.77  5066.06

 Zero-point correction=                           0.182572 (Hartree/Particle)
 Thermal correction to Energy=                    0.194627
 Thermal correction to Enthalpy=                  0.195571
 Thermal correction to Gibbs Free Energy=         0.144033
 Sum of electronic and zero-point Energies=           -892.738771
 Sum of electronic and thermal Energies=              -892.726717
 Sum of electronic and thermal Enthalpies=            -892.725772
 Sum of electronic and thermal Free Energies=         -892.777310

                     E (Thermal)             CV                S
                      KCal/Mol        Cal/Mol-Kelvin    Cal/Mol-Kelvin
 Total                  122.130             43.276            108.471
 Electronic               0.000              0.000              0.000
 Translational            0.889              2.981             41.265
 Rotational               0.889              2.981             30.430
 Vibrational            120.353             37.315             36.775
 Vibration     1          0.594              1.982              5.427
 Vibration     2          0.596              1.975              4.599
 Vibration     3          0.606              1.944              3.328
 Vibration     4          0.613              1.920              2.893
 Vibration     5          0.626              1.876              2.405
 Vibration     6          0.637              1.842              2.146
 Vibration     7          0.646              1.814              1.975
 Vibration     8          0.650              1.802              1.911
 Vibration     9          0.665              1.757              1.706
 Vibration    10          0.691              1.677              1.427
 Vibration    11          0.702              1.646              1.338
 Vibration    12          0.708              1.630              1.297
 Vibration    13          0.758              1.491              1.000
 Vibration    14          0.799              1.386              0.831
 Vibration    15          0.816              1.343              0.771
 Vibration    16          0.850              1.262              0.671
 Vibration    17          0.865              1.228              0.634

                           ! Non-Optimized Parameters !
 Normal termination of Gaussian 16 at Tue Dec  8 12:29:07 2020.

 ----------------------------------------------------------------------
 # B3LYP/6-311++G(d,p) empiricaldispersion=gd3bj scf=xqc pop=npa geom=c
 heck
 ----------------------------------------------------------------------

 -------------------------------------
 CID_82040027_JID_675_Energie_neutraal
 -------------------------------------
 Structure from the checkpoint file:  "JID_675.chk"
 Charge =  0 Multiplicity = 1

 SCF Done:  E(RB3LYP) =  -893.109744340     A.U. after   14 cycles
 Normal termination of Gaussian 16 at Tue Dec  8 12:32:30 2020.

 ----------------------------------------------------------------------
 # B3LYP/6-311++G(d,p) empiricaldispersion=gd3bj scf=xqc pop=npa geom=c
 heck
 ----------------------------------------------------------------------

 -----------------------------------
 CID_82040027_JID_675_Energie_kation
 -----------------------------------
 Structure from the checkpoint file:  "JID_675.chk"
 Charge =  1 Multiplicity = 2

 SCF Done:  E(UB3LYP) =  -892.761307753     A.U. after   27 cycles
 Normal termination of Gaussian 16 at Tue Dec  8 12:40:03 2020.
 Gaussian 16:  ES64L-G16RevA.03 25-Dec-2016

 ----------------------------------------------------------------------
 # B3LYP/6-311++G(d,p) empiricaldispersion=gd3bj scf=xqc pop=npa geom=c
 heck
 ----------------------------------------------------------------------

 ----------------------------------
 CID_82040027_JID_675_Energie_anion
 ----------------------------------
 Structure from the checkpoint file:  "JID_675.chk"
 Charge = -1 Multiplicity = 2

                         Standard orientation:
 ---------------------------------------------------------------------
 Center     Atomic      Atomic             Coordinates (Angstroms)
 Number     Number       Type             X           Y           Z
 ---------------------------------------------------------------------
      1          6           0        2.345882   -1.464631    0.656800
      2          6           0        2.141075   -0.572162   -0.562515
      3          6           0        0.667374   -0.365541   -0.933556
      4          7           0       -0.131300    0.006129    0.231942
      5         16           0       -1.787726   -0.098835    0.184678
      6          8           0       -2.122500   -1.396415   -0.406100
      7          8           0       -2.259951    0.302073    1.510052
      8          6           0       -2.343033    1.163380   -0.985301
      9          8           0        2.857510    0.669630   -0.450881
     10          7           0        2.281087    1.498947    0.585238
     11          1           0        1.895280   -1.022588    1.548681
     12          1           0        3.415378   -1.620216    0.829789
     13          1           0        1.869804   -2.438049    0.499521
     14          1           0        2.628895   -1.023242   -1.434928
     15          1           0        0.621295    0.385925   -1.737359
     16          1           0        0.261130   -1.304456   -1.319660
     17          1           0        0.233505    0.811723    0.738648
     18          1           0       -2.062404    2.148064   -0.606395
     19          1           0       -1.889608    0.975003   -1.960777
     20          1           0       -3.429717    1.084095   -1.059080
     21          1           0        2.950793    1.446746    1.356939
     22          1           0        2.392498    2.434238    0.192387
 ---------------------------------------------------------------------

 SCF Done:  E(UB3LYP) =  -893.103609853     A.U. after   23 cycles

 The electronic state is 2-A.
 Alpha  occ. eigenvalues --  -88.95875 -19.04617 -19.01171 -19.01108 -14.24474
 Alpha  occ. eigenvalues --  -14.22933 -10.12920 -10.10803 -10.10146 -10.06136
 Alpha  occ. eigenvalues --   -8.02018  -5.98290  -5.98272  -5.98119  -1.01555
 Alpha  occ. eigenvalues --   -0.96084  -0.90626  -0.82181  -0.73292  -0.66931
 Alpha  occ. eigenvalues --   -0.64622  -0.59817  -0.51888  -0.48881  -0.43688
 Alpha  occ. eigenvalues --   -0.41087  -0.39664  -0.38668  -0.37604  -0.36949
 Alpha  occ. eigenvalues --   -0.35689  -0.33461  -0.32654  -0.32484  -0.30617
 Alpha  occ. eigenvalues --   -0.28603  -0.27551  -0.25759  -0.24032  -0.21979
 Alpha  occ. eigenvalues --   -0.20619  -0.20408  -0.18607  -0.16970  -0.15313
 Alpha  occ. eigenvalues --    0.04194
 Alpha virt. eigenvalues --    0.06900   0.07440   0.08789   0.10169   0.10508
 Alpha virt. eigenvalues --    0.10684   0.11749   0.12766   0.12989   0.13648
 Alpha virt. eigenvalues --    0.14350   0.15144   0.16038   0.16568   0.17033

  Beta  occ. eigenvalues --  -88.95871 -19.04598 -19.01162 -19.01101 -14.24375
  Beta  occ. eigenvalues --  -14.22919 -10.12916 -10.10780 -10.10086 -10.06111
  Beta  occ. eigenvalues --   -8.02013  -5.98286  -5.98269  -5.98115  -1.01535
  Beta  occ. eigenvalues --   -0.96018  -0.90605  -0.82155  -0.73141  -0.66859
  Beta  occ. eigenvalues --   -0.64545  -0.59766  -0.51840  -0.48827  -0.43647
  Beta  occ. eigenvalues --   -0.41006  -0.39611  -0.38603  -0.37557  -0.36909
  Beta  occ. eigenvalues --   -0.35642  -0.33411  -0.32616  -0.32430  -0.30584
  Beta  occ. eigenvalues --   -0.28570  -0.27515  -0.25723  -0.24012  -0.21966
  Beta  occ. eigenvalues --   -0.20599  -0.20389  -0.18549  -0.16944  -0.15251
  Beta virt. eigenvalues --    0.06872   0.07809   0.08508   0.09424   0.10670
  Beta virt. eigenvalues --    0.11164   0.11326   0.12444   0.12912   0.13183
  Beta virt. eigenvalues --    0.14061   0.14381   0.15360   0.16105   0.16611

 Mulliken charges and spin densities:
               1          2
     1  C    0.291953  -0.928224
     2  C    0.076188   0.090463
     3  C   -0.013964  -0.601710
     4  N   -0.413540   0.142746
     5  S    0.095337   0.271410
     6  O   -0.231530  -0.007376
     7  O   -0.227828   0.009892
     8  C    0.669333  -1.196293
     9  O   -0.174492   0.142276
    10  N    0.055705  -0.654739
    11  H   -0.021577   0.188922
    12  H   -0.202341   0.361312
    13  H    0.090300   0.043023
    14  H   -0.113376   0.325943
    15  H   -0.182392   0.370650
    16  H    0.099571   0.096421
    17  H    0.606575  -0.236792
    18  H   -0.402454   0.616274
    19  H   -0.238746   0.443914
    20  H   -0.082746   0.287174
    21  H   -0.270521   0.537816
    22  H   -0.409455   0.696898
 Sum of Mulliken charges =  -1.00000   1.00000

 Dipole moment (field-independent basis, Debye):
    X=             -1.7138    Y=             -4.0797    Z=             -0.7292  Tot=              4.4847
 Quadrupole moment (field-independent basis, Debye-Ang):
   XX=           -123.9483   YY=           -109.7216   ZZ=            -99.9165
   XY=            -10.1066   XZ=             -0.9897   YZ=              1.2165

 Summary of Natural Population Analysis:

                                       Natural Population
                Natural  -----------------------------------------------
    Atom  No    Charge         Core      Valence    Rydberg      Total
 -----------------------------------------------------------------------
      C    1   -0.30154      0.99964     2.29669    0.00522     3.30154
      C    2    0.06338      0.99956     1.92042    0.01664     2.93662
      C    3   -0.10623      0.99958     2.09330    0.01335     3.10623
      N    4   -0.45438      0.99973     2.94191    0.01275     3.95438
      S    5    1.10520      4.99932     1.79347    0.10202     6.89480
      O    6   -0.47117      0.99990     3.46575    0.00551     4.47117
      O    7   -0.46657      0.99991     3.46099    0.00568     4.46657
      C    8   -0.39418      0.99961     2.38697    0.00760     3.39418
      O    9   -0.23768      0.99989     3.22502    0.01277     4.23768
      N   10   -0.26914      0.99976     2.75655    0.01283     3.76914
      H   11    0.10778      0.00000     0.39079    0.00144     0.39222
      H   12    0.10162      0.00000     0.39713    0.00124     0.39838
      H   13    0.10209      0.00000     0.39696    0.00095     0.39791
      H   14    0.09500      0.00000     0.40348    0.00152     0.40500
      H   15    0.09575      0.00000     0.40227    0.00198     0.40425
      H   16    0.10874      0.00000     0.38998    0.00128     0.39126
      H   17    0.21735      0.00000     0.27934    0.00331     0.28265
      H   18    0.11733      0.00000     0.38082    0.00185     0.38267
      H   19    0.11448      0.00000     0.38396    0.00156     0.38552
      H   20    0.11433      0.00000     0.38472    0.00095     0.38567
      H   21    0.17478      0.00000     0.31935    0.00587     0.32522
      H   22    0.18306      0.00000     0.30515    0.01179     0.31694
 =======================================================================
   * Total *   -0.00000     13.99690    30.77501    0.22809    45.00000

 Normal termination of Gaussian 16 at Tue Dec  8 12:49:34 2020.
