 Gaussian 16, Revision A.03,

 -----------------------------------------------------------
 # opt freq B3LYP/6-31G(d) empiricaldispersion=gd3bj scf=xqc
 -----------------------------------------------------------

 -------------------------------
 CID_115039128_JID_5474_neutraal
 -------------------------------
 Symbolic Z-matrix:
 Charge =  0 Multiplicity = 1

 SCF Done:  E(RB3LYP) =  -1051.20134253     A.U. after   14 cycles
 SCF Done:  E(RB3LYP) =  -1051.20656503     A.U. after   12 cycles
 SCF Done:  E(RB3LYP) =  -1051.20755562     A.U. after   12 cycles
 SCF Done:  E(RB3LYP) =  -1051.20786386     A.U. after   12 cycles
 SCF Done:  E(RB3LYP) =  -1051.20849256     A.U. after   12 cycles
 SCF Done:  E(RB3LYP) =  -1051.20913332     A.U. after   12 cycles
 SCF Done:  E(RB3LYP) =  -1051.20951298     A.U. after   12 cycles
 SCF Done:  E(RB3LYP) =  -1051.20970888     A.U. after   11 cycles
 SCF Done:  E(RB3LYP) =  -1051.20990809     A.U. after   12 cycles
 SCF Done:  E(RB3LYP) =  -1051.20996122     A.U. after   11 cycles
 SCF Done:  E(RB3LYP) =  -1051.21009798     A.U. after   11 cycles
 SCF Done:  E(RB3LYP) =  -1051.21011044     A.U. after   11 cycles
 SCF Done:  E(RB3LYP) =  -1051.21011209     A.U. after    8 cycles
 SCF Done:  E(RB3LYP) =  -1051.21011296     A.U. after    8 cycles
 SCF Done:  E(RB3LYP) =  -1051.21011306     A.U. after    7 cycles
 SCF Done:  E(RB3LYP) =  -1051.21011312     A.U. after    7 cycles
 Optimization completed.
    -- Stationary point found.
 Normal termination of Gaussian 16 at Thu Dec 10 16:31:40 2020.

 --------------------------------------------------------------------
 #N Geom=AllCheck Guess=TCheck SCRF=Check GenChk RB3LYP/6-31G(d) Freq
 --------------------------------------------------------------------

 Structure from the checkpoint file:  "JID_5474.chk"
 -------------------------------
 CID_115039128_JID_5474_neutraal
 -------------------------------
 Charge =  0 Multiplicity = 1

 SCF Done:  E(RB3LYP) =  -1051.21011312     A.U. after    1 cycles

  Exact polarizability: 153.415   3.506 131.035   0.994   0.196 121.389
 Approx polarizability: 189.657   0.634 192.575  -1.013   1.990 194.676

                      1                      2                      3
                      A                      A                      A
 Frequencies --     20.4126                35.2115                43.4217
 Red. masses --      3.8543                 3.5379                 3.2061
 Frc consts  --      0.0009                 0.0026                 0.0036
 IR Inten    --      0.6249                 1.6127                 0.1071

                      4                      5                      6
                      A                      A                      A
 Frequencies --     55.8446                90.3344               125.1416
 Red. masses --      3.5691                 4.0556                 4.9668
 Frc consts  --      0.0066                 0.0195                 0.0458
 IR Inten    --      0.7717                 0.3169                 1.0850

                      7                      8                      9
                      A                      A                      A
 Frequencies --    142.8955               175.9706               216.6685
 Red. masses --      3.7269                 3.5938                 3.9288
 Frc consts  --      0.0448                 0.0656                 0.1087
 IR Inten    --      2.7118                 4.4178                 1.3825

                     10                     11                     12
                      A                      A                      A
 Frequencies --    249.9020               274.7537               318.8304
 Red. masses --      2.7141                 3.3292                 2.3316
 Frc consts  --      0.0999                 0.1481                 0.1396
 IR Inten    --      0.4526                 3.4514                 4.6899

                     13                     14                     15
                      A                      A                      A
 Frequencies --    330.7762               350.1382               369.4024
 Red. masses --      2.6120                 2.9586                 2.3297
 Frc consts  --      0.1684                 0.2137                 0.1873
 IR Inten    --      1.1469                 6.7448                 7.8997

                     16                     17                     18
                      A                      A                      A
 Frequencies --    408.5698               430.1826               442.2717
 Red. masses --      2.7799                 1.8252                 3.6181
 Frc consts  --      0.2734                 0.1990                 0.4170
 IR Inten    --     23.5590                 1.8874                 6.7813

                     19                     20                     21
                      A                      A                      A
 Frequencies --    475.8874               496.1956               513.8645
 Red. masses --      3.4085                 3.1116                 3.2264
 Frc consts  --      0.4548                 0.4514                 0.5020
 IR Inten    --      3.5058                 4.5840                26.9742

                     22                     23                     24
                      A                      A                      A
 Frequencies --    562.1587               600.5899               636.1455
 Red. masses --      2.8794                 3.2806                 1.9838
 Frc consts  --      0.5361                 0.6972                 0.4730
 IR Inten    --     17.7978                78.4756                12.8891

                     25                     26                     27
                      A                      A                      A
 Frequencies --    715.8853               752.7594               769.2053
 Red. masses --      3.6741                 2.6954                 1.1091
 Frc consts  --      1.1094                 0.8999                 0.3866
 IR Inten    --     44.8640                17.4012                 3.0367

                     28                     29                     30
                      A                      A                      A
 Frequencies --    787.2834               834.0219               847.7454
 Red. masses --      1.5561                 1.4558                 2.3130
 Frc consts  --      0.5682                 0.5966                 0.9794
 IR Inten    --     56.1081                17.2686                16.6108

                     31                     32                     33
                      A                      A                      A
 Frequencies --    859.9565               861.8316               886.4235
 Red. masses --      2.3591                 2.0402                 1.9311
 Frc consts  --      1.0279                 0.8928                 0.8940
 IR Inten    --     97.3191                24.9667                22.2483

                     34                     35                     36
                      A                      A                      A
 Frequencies --    895.5742               910.0175               931.8547
 Red. masses --      1.8707                 2.1033                 1.5954
 Frc consts  --      0.8840                 1.0262                 0.8162
 IR Inten    --      2.3649                 8.2779                 2.7464

                     37                     38                     39
                      A                      A                      A
 Frequencies --    974.5355               983.3460              1001.7231
 Red. masses --      2.6148                 1.7955                 2.1994
 Frc consts  --      1.4631                 1.0229                 1.3003
 IR Inten    --      2.3394                 9.6541                 6.3900

                     40                     41                     42
                      A                      A                      A
 Frequencies --   1012.7959              1041.4838              1065.2821
 Red. masses --      2.0327                 1.8282                 1.7703
 Frc consts  --      1.2285                 1.1684                 1.1837
 IR Inten    --      9.1833                 6.2500                 0.2363

                     43                     44                     45
                      A                      A                      A
 Frequencies --   1069.7464              1083.4046              1088.6506
 Red. masses --      1.3955                 1.3760                 2.3412
 Frc consts  --      0.9409                 0.9516                 1.6348
 IR Inten    --     18.6930                 0.4026                10.1196

                     46                     47                     48
                      A                      A                      A
 Frequencies --   1101.5207              1118.4937              1131.3365
 Red. masses --      1.7231                 4.0462                 1.1699
 Frc consts  --      1.2318                 2.9824                 0.8822
 IR Inten    --      5.9864               156.9696                 3.2662

                     49                     50                     51
                      A                      A                      A
 Frequencies --   1145.0609              1168.3474              1183.3700
 Red. masses --      2.4654                 1.6538                 1.4379
 Frc consts  --      1.9045                 1.3301                 1.1863
 IR Inten    --     13.0021                 2.0417                16.3873

                     52                     53                     54
                      A                      A                      A
 Frequencies --   1198.8527              1200.2818              1203.6238
 Red. masses --      1.3267                 2.0299                 1.3740
 Frc consts  --      1.1235                 1.7230                 1.1728
 IR Inten    --      4.4347                13.3772                 0.2821

                     55                     56                     57
                      A                      A                      A
 Frequencies --   1234.6266              1242.0325              1256.8774
 Red. masses --      1.3376                 1.3582                 2.0206
 Frc consts  --      1.2013                 1.2345                 1.8806
 IR Inten    --      5.9221                 8.3747                16.5948

                     58                     59                     60
                      A                      A                      A
 Frequencies --   1307.8474              1312.7262              1324.6016
 Red. masses --      1.3308                 3.3393                 1.2114
 Frc consts  --      1.3412                 3.3904                 1.2523
 IR Inten    --     17.0865               113.1450                 1.1012

                     61                     62                     63
                      A                      A                      A
 Frequencies --   1335.5362              1339.8303              1365.7913
 Red. masses --      1.3776                 1.3621                 1.3287
 Frc consts  --      1.4477                 1.4406                 1.4604
 IR Inten    --      1.1839                 3.8252                13.4570

                     64                     65                     66
                      A                      A                      A
 Frequencies --   1371.7177              1382.8301              1394.4417
 Red. masses --      1.4296                 1.4245                 1.4629
 Frc consts  --      1.5848                 1.6049                 1.6760
 IR Inten    --     27.9240                13.8348                 4.6181

                     67                     68                     69
                      A                      A                      A
 Frequencies --   1409.2851              1425.5665              1447.4169
 Red. masses --      1.4552                 1.5087                 1.4349
 Frc consts  --      1.7028                 1.8065                 1.7711
 IR Inten    --      4.7197                 5.2702                 4.3698

                     70                     71                     72
                      A                      A                      A
 Frequencies --   1460.0752              1482.3794              1493.5841
 Red. masses --      1.2758                 1.0932                 1.0916
 Frc consts  --      1.6024                 1.4154                 1.4347
 IR Inten    --     41.3817                 2.8918                 2.8658

                     73                     74                     75
                      A                      A                      A
 Frequencies --   1499.0798              1508.8039              1523.6379
 Red. masses --      1.2691                 1.0978                 1.0900
 Frc consts  --      1.6804                 1.4724                 1.4909
 IR Inten    --      2.5699                 1.4068                 6.9487

                     76                     77                     78
                      A                      A                      A
 Frequencies --   1527.9513              1528.0197              1531.6419
 Red. masses --      1.1038                 1.1081                 1.3578
 Frc consts  --      1.5183                 1.5243                 1.8768
 IR Inten    --      4.9896                 4.2768                 7.2535

                     79                     80                     81
                      A                      A                      A
 Frequencies --   1542.0292              2912.9798              2925.5665
 Red. masses --      1.0967                 1.0739                 1.0730
 Frc consts  --      1.5365                 5.3689                 5.4108
 IR Inten    --      2.2749                60.8563               111.5057

                     82                     83                     84
                      A                      A                      A
 Frequencies --   3032.8703              3047.8863              3070.2668
 Red. masses --      1.0720                 1.0604                 1.0670
 Frc consts  --      5.8100                 5.8039                 5.9260
 IR Inten    --     21.9824                24.3262                 0.4560

                     85                     86                     87
                      A                      A                      A
 Frequencies --   3075.6664              3078.7574              3081.1871
 Red. masses --      1.0818                 1.0851                 1.0875
 Frc consts  --      6.0292                 6.0600                 6.0827
 IR Inten    --     31.1530                67.3597                33.6805

                     88                     89                     90
                      A                      A                      A
 Frequencies --   3086.4034              3088.4555              3103.6035
 Red. masses --      1.0698                 1.0939                 1.0916
 Frc consts  --      6.0045                 6.1478                 6.1952
 IR Inten    --     13.5669                40.2434                42.9546

                     91                     92                     93
                      A                      A                      A
 Frequencies --   3114.0931              3141.2586              3145.1353
 Red. masses --      1.1006                 1.1051                 1.0553
 Frc consts  --      6.2885                 6.4245                 6.1505
 IR Inten    --     15.5395                 6.6385                12.8996

                     94                     95                     96
                      A                      A                      A
 Frequencies --   3159.7936              3198.0402              3225.0133
 Red. masses --      1.0559                 1.0911                 1.1176
 Frc consts  --      6.2113                 6.5746                 6.8485
 IR Inten    --      4.8561                 5.7986                 5.5322

                     97                     98                     99
                      A                      A                      A
 Frequencies --   3245.5658              3507.6393              3515.7755
 Red. masses --      1.1167                 1.0748                 1.0747
 Frc consts  --      6.9304                 7.7913                 7.8264
 IR Inten    --     11.9258                 1.2928                16.1405

 - Thermochemistry -
 -------------------
 Temperature   298.150 Kelvin.  Pressure   1.00000 Atm.
 Atom     1 has atomic number  6 and mass  12.00000

 Molecular mass:   232.12455 amu.
 Principal axes and moments of inertia in atomic units:
                           1         2         3
     Eigenvalues --  1912.234906007.193426719.01827
           X            0.99990   0.01427   0.00228
           Y           -0.01427   0.99990   0.00203
           Z           -0.00225  -0.00206   1.00000
 This molecule is an asymmetric top.
 Rotational symmetry number  1.
 Warning -- assumption of classical behavior for rotation
           may cause significant error
 Rotational temperatures (Kelvin)      0.04529     0.01442     0.01289
 Rotational constants (GHZ):           0.94379     0.30043     0.26860
 Zero-point vibrational energy     808641.3 (Joules/Mol)
                                  193.26991 (Kcal/Mol)
 Warning -- explicit consideration of  23 degrees of freedom as
           vibrations may cause significant error
 Vibrational temperatures:     29.37    50.66    62.47    80.35   129.97
          (Kelvin)            180.05   205.59   253.18   311.74   359.55
                              395.31   458.73   475.91   503.77   531.49
                              587.84   618.94   636.33   684.70   713.91
                              739.34   808.82   864.11   915.27  1030.00
                             1083.05  1106.71  1132.73  1199.97  1219.72
                             1237.29  1239.98  1275.37  1288.53  1309.31
                             1340.73  1402.14  1414.82  1441.26  1457.19
                             1498.46  1532.70  1539.13  1558.78  1566.33
                             1584.84  1609.26  1627.74  1647.49  1680.99
                             1702.61  1724.88  1726.94  1731.75  1776.35
                             1787.01  1808.37  1881.70  1888.72  1905.81
                             1921.54  1927.72  1965.07  1973.60  1989.58
                             2006.29  2027.65  2051.07  2082.51  2100.72
                             2132.81  2148.93  2156.84  2170.83  2192.18
                             2198.38  2198.48  2203.69  2218.64  4191.13
                             4209.24  4363.62  4385.23  4417.43  4425.20
                             4429.65  4433.14  4440.65  4443.60  4465.39
                             4480.49  4519.57  4525.15  4546.24  4601.27
                             4640.07  4669.65  5046.71  5058.42

 Zero-point correction=                           0.307995 (Hartree/Particle)
 Thermal correction to Energy=                    0.323439
 Thermal correction to Enthalpy=                  0.324383
 Thermal correction to Gibbs Free Energy=         0.263330
 Sum of electronic and zero-point Energies=          -1050.902118
 Sum of electronic and thermal Energies=             -1050.886674
 Sum of electronic and thermal Enthalpies=           -1050.885730
 Sum of electronic and thermal Free Energies=        -1050.946783

                     E (Thermal)             CV                S
                      KCal/Mol        Cal/Mol-Kelvin    Cal/Mol-Kelvin
 Total                  202.961             59.348            128.498
 Electronic               0.000              0.000              0.000
 Translational            0.889              2.981             42.228
 Rotational               0.889              2.981             32.712
 Vibrational            201.184             53.386             53.558
 Vibration     1          0.593              1.986              6.594
 Vibration     2          0.594              1.982              5.512
 Vibration     3          0.595              1.980              5.097
 Vibration     4          0.596              1.975              4.599
 Vibration     5          0.602              1.956              3.653
 Vibration     6          0.610              1.928              3.019
 Vibration     7          0.616              1.910              2.765
 Vibration     8          0.628              1.872              2.371
 Vibration     9          0.646              1.816              1.987
 Vibration    10          0.663              1.763              1.731
 Vibration    11          0.677              1.720              1.566
 Vibration    12          0.705              1.638              1.316
 Vibration    13          0.713              1.614              1.256
 Vibration    14          0.727              1.575              1.166
 Vibration    15          0.742              1.535              1.082
 Vibration    16          0.773              1.452              0.932
 Vibration    17          0.791              1.405              0.858
 Vibration    18          0.802              1.378              0.819
 Vibration    19          0.833              1.304              0.721
 Vibration    20          0.852              1.258              0.668
 Vibration    21          0.869              1.219              0.624
 Vibration    22          0.918              1.113              0.520
 Vibration    23          0.959              1.031              0.449

                           ! Non-Optimized Parameters !
 Normal termination of Gaussian 16 at Thu Dec 10 16:43:26 2020.

 ----------------------------------------------------------------------
 # B3LYP/6-311++G(d,p) empiricaldispersion=gd3bj scf=xqc pop=npa geom=c
 heck
 ----------------------------------------------------------------------

 ---------------------------------------
 CID_115039128_JID_5474_Energie_neutraal
 ---------------------------------------
 Structure from the checkpoint file:  "JID_5474.chk"
 Charge =  0 Multiplicity = 1

 SCF Done:  E(RB3LYP) =  -1051.42878889     A.U. after   14 cycles
 Normal termination of Gaussian 16 at Thu Dec 10 16:48:14 2020.

 ----------------------------------------------------------------------
 # B3LYP/6-311++G(d,p) empiricaldispersion=gd3bj scf=xqc pop=npa geom=c
 heck
 ----------------------------------------------------------------------

 -------------------------------------
 CID_115039128_JID_5474_Energie_kation
 -------------------------------------
 Structure from the checkpoint file:  "JID_5474.chk"
 Charge =  1 Multiplicity = 2

 SCF Done:  E(UB3LYP) =  -1051.12287525     A.U. after   23 cycles
 Normal termination of Gaussian 16 at Thu Dec 10 17:04:05 2020.
 Gaussian 16:  ES64L-G16RevA.03 25-Dec-2016

 ----------------------------------------------------------------------
 # B3LYP/6-311++G(d,p) empiricaldispersion=gd3bj scf=xqc pop=npa geom=c
 heck
 ----------------------------------------------------------------------

 ------------------------------------
 CID_115039128_JID_5474_Energie_anion
 ------------------------------------
 Structure from the checkpoint file:  "JID_5474.chk"
 Charge = -1 Multiplicity = 2

                         Standard orientation:
 ---------------------------------------------------------------------
 Center     Atomic      Atomic             Coordinates (Angstroms)
 Number     Number       Type             X           Y           Z
 ---------------------------------------------------------------------
      1          6           0       -3.096211    0.526180   -1.436009
      2          6           0       -1.749823    0.949855   -0.832470
      3          6           0       -1.460729    0.229732    0.498654
      4          6           0       -2.663439    0.436138    1.435271
      5          7           0       -3.882430   -0.068913    0.800526
      6          6           0       -4.217956    0.687513   -0.406217
      7          6           0       -1.175091   -1.275691    0.356805
      8          6           0       -0.056314   -1.681951   -0.598804
      9         16           0        1.601047   -1.155028   -0.081683
     10          8           0        1.669040   -1.154105    1.382742
     11          8           0        2.569168   -1.913931   -0.889089
     12          7           0        1.638305    0.481676   -0.585743
     13          6           0        2.321456    1.390691    0.315379
     14          6           0        3.808353    1.309561    0.546597
     15          6           0        3.227623    2.429513   -0.285616
     16          1           0       -3.319637    1.127528   -2.325661
     17          1           0       -3.058825   -0.522361   -1.756527
     18          1           0       -0.930976    0.798085   -1.542294
     19          1           0       -1.778365    2.030271   -0.632304
     20          1           0       -0.589694    0.702541    0.965375
     21          1           0       -2.509909   -0.106918    2.374961
     22          1           0       -2.734058    1.513882    1.683001
     23          1           0       -4.655204   -0.030458    1.460451
     24          1           0       -4.356114    1.768587   -0.199666
     25          1           0       -5.164972    0.307228   -0.805400
     26          1           0       -0.934206   -1.678398    1.346772
     27          1           0       -2.088227   -1.782836    0.028908
     28          1           0        0.034367   -2.771426   -0.653313
     29          1           0       -0.190135   -1.306032   -1.616987
     30          1           0        2.028684    0.503274   -1.526311
     31          1           0        1.697652    1.685551    1.152456
     32          1           0        4.178796    1.532394    1.542417
     33          1           0        4.346598    0.520237    0.030254
     34          1           0        3.391386    2.401788   -1.360555
     35          1           0        3.192098    3.433208    0.127102
 ---------------------------------------------------------------------

 SCF Done:  E(UB3LYP) =  -1051.41755931     A.U. after   30 cycles

 The electronic state is 2-A.
 Alpha  occ. eigenvalues --  -88.96683 -19.02743 -19.02584 -14.25261 -14.19816
 Alpha  occ. eigenvalues --  -10.13070 -10.12001 -10.09390 -10.09235 -10.08988
 Alpha  occ. eigenvalues --  -10.08896 -10.08166 -10.07601 -10.06433 -10.06253
 Alpha  occ. eigenvalues --   -8.02962  -5.99245  -5.99209  -5.99006  -1.02587
 Alpha  occ. eigenvalues --   -0.91782  -0.84727  -0.81435  -0.75695  -0.72429
 Alpha  occ. eigenvalues --   -0.67911  -0.65748  -0.58735  -0.54428  -0.53359
 Alpha  occ. eigenvalues --   -0.52636  -0.51594  -0.49978  -0.44012  -0.43633
 Alpha  occ. eigenvalues --   -0.42295  -0.42064  -0.40893  -0.39488  -0.37235
 Alpha  occ. eigenvalues --   -0.36690  -0.35599  -0.34804  -0.32895  -0.32042
 Alpha  occ. eigenvalues --   -0.31667  -0.30922  -0.30312  -0.28848  -0.28204
 Alpha  occ. eigenvalues --   -0.27413  -0.26726  -0.25517  -0.24628  -0.23541
 Alpha  occ. eigenvalues --   -0.23073  -0.22639  -0.21824  -0.21387  -0.21169
 Alpha  occ. eigenvalues --   -0.20479  -0.16807  -0.13142   0.04098
 Alpha virt. eigenvalues --    0.05911   0.06566   0.07559   0.07826   0.08037
 Alpha virt. eigenvalues --    0.08957   0.09540   0.09999   0.10207   0.10669
 Alpha virt. eigenvalues --    0.11534   0.11900   0.12228   0.12634   0.13055

  Beta  occ. eigenvalues --  -88.96681 -19.02732 -19.02580 -14.25234 -14.19792
  Beta  occ. eigenvalues --  -10.13064 -10.11984 -10.09352 -10.09219 -10.08964
  Beta  occ. eigenvalues --  -10.08889 -10.08160 -10.07599 -10.06415 -10.06234
  Beta  occ. eigenvalues --   -8.02960  -5.99243  -5.99207  -5.99005  -1.02568
  Beta  occ. eigenvalues --   -0.91763  -0.84691  -0.81399  -0.75667  -0.72407
  Beta  occ. eigenvalues --   -0.67875  -0.65713  -0.58709  -0.54388  -0.53311
  Beta  occ. eigenvalues --   -0.52556  -0.51550  -0.49926  -0.43971  -0.43603
  Beta  occ. eigenvalues --   -0.42235  -0.42012  -0.40849  -0.39461  -0.37210
  Beta  occ. eigenvalues --   -0.36671  -0.35575  -0.34768  -0.32862  -0.32008
  Beta  occ. eigenvalues --   -0.31632  -0.30893  -0.30272  -0.28819  -0.28175
  Beta  occ. eigenvalues --   -0.27388  -0.26705  -0.25493  -0.24601  -0.23526
  Beta  occ. eigenvalues --   -0.23049  -0.22614  -0.21812  -0.21354  -0.21135
  Beta  occ. eigenvalues --   -0.20455  -0.16786  -0.13087
  Beta virt. eigenvalues --    0.06336   0.06913   0.07228   0.07947   0.08462
  Beta virt. eigenvalues --    0.08539   0.09124   0.09846   0.10341   0.10687
  Beta virt. eigenvalues --    0.10999   0.11714   0.12079   0.12539   0.12927

 Mulliken charges and spin densities:
               1          2
     1  C   -0.409439  -0.044727
     2  C    0.172605  -0.806132
     3  C   -0.383351   1.317929
     4  C    1.176522  -1.796333
     5  N   -0.428118   0.300453
     6  C    0.918888  -1.248521
     7  C   -0.509843  -0.048377
     8  C   -0.469753  -0.185795
     9  S    0.300543  -0.226821
    10  O   -0.208093   0.009904
    11  O   -0.114389   0.002411
    12  N    0.084137  -0.209405
    13  C   -1.081919   0.832950
    14  C   -0.016366  -0.258885
    15  C    0.752830  -1.147284
    16  H   -0.353627   0.520205
    17  H    0.195582  -0.059966
    18  H   -0.296393   0.444842
    19  H   -0.052037   0.215496
    20  H    0.485766  -0.238612
    21  H   -0.074242   0.243516
    22  H   -0.265924   0.400044
    23  H   -0.074522   0.334508
    24  H   -0.094742   0.208912
    25  H   -0.450594   0.618046
    26  H    0.187176   0.013481
    27  H    0.136523   0.047005
    28  H    0.094726   0.138155
    29  H   -0.102034   0.336139
    30  H    0.181600   0.149063
    31  H   -0.014581   0.231019
    32  H    0.053785   0.083399
    33  H    0.193398  -0.020799
    34  H   -0.376308   0.528862
    35  H   -0.157807   0.315319
 Sum of Mulliken charges =  -1.00000   1.00000

 Dipole moment (field-independent basis, Debye):
    X=              3.2614    Y=             -2.8000    Z=              1.3155  Tot=              4.4952
 Quadrupole moment (field-independent basis, Debye-Ang):
   XX=           -188.2906   YY=           -143.2872   ZZ=           -141.0524
   XY=              5.2836   XZ=              3.8718   YZ=              5.2823

 Summary of Natural Population Analysis:

                                       Natural Population
                Natural  -----------------------------------------------
    Atom  No    Charge         Core      Valence    Rydberg      Total
 -----------------------------------------------------------------------
      C    1   -0.19524      0.99962     2.18685    0.00877     3.19524
      C    2   -0.19284      0.99961     2.18272    0.01051     3.19284
      C    3   -0.11778      0.99958     2.10659    0.01161     3.11778
      C    4   -0.08311      0.99960     2.07114    0.01237     3.08311
      N    5   -0.34498      0.99974     2.83288    0.01236     3.84498
      C    6   -0.08524      0.99962     2.07452    0.01109     3.08524
      C    7   -0.20356      0.99959     2.19458    0.00939     3.20356
      C    8   -0.28249      0.99957     2.27137    0.01156     3.28249
      S    9    1.08557      4.99930     1.81753    0.09759     6.91443
      O   10   -0.46189      0.99991     3.45674    0.00525     4.46189
      O   11   -0.46889      0.99991     3.46356    0.00542     4.46889
      N   12   -0.42933      0.99975     2.91492    0.01466     3.92933
      C   13   -0.02382      0.99957     2.00948    0.01477     3.02382
      C   14   -0.20325      0.99962     2.19539    0.00824     3.20325
      C   15   -0.19649      0.99962     2.18680    0.01008     3.19649
      H   16    0.10095      0.00000     0.39786    0.00119     0.39905
      H   17    0.09309      0.00000     0.40545    0.00146     0.40691
      H   18    0.10391      0.00000     0.39425    0.00183     0.39609
      H   19    0.09852      0.00000     0.39976    0.00172     0.40148
      H   20    0.10196      0.00000     0.39510    0.00294     0.39804
      H   21    0.09512      0.00000     0.40379    0.00108     0.40488
      H   22    0.08124      0.00000     0.41717    0.00159     0.41876
      H   23    0.17745      0.00000     0.31920    0.00336     0.32255
      H   24    0.07627      0.00000     0.42181    0.00192     0.42373
      H   25    0.09530      0.00000     0.40330    0.00140     0.40470
      H   26    0.10764      0.00000     0.39114    0.00122     0.39236
      H   27    0.11321      0.00000     0.38513    0.00166     0.38679
      H   28    0.11563      0.00000     0.38346    0.00091     0.38437
      H   29    0.11674      0.00000     0.38188    0.00138     0.38326
      H   30    0.19673      0.00000     0.30016    0.00311     0.30327
      H   31    0.10563      0.00000     0.39291    0.00147     0.39437
      H   32    0.10367      0.00000     0.39549    0.00083     0.39633
      H   33    0.10753      0.00000     0.39137    0.00110     0.39247
      H   34    0.10549      0.00000     0.39298    0.00153     0.39451
      H   35    0.10726      0.00000     0.39152    0.00122     0.39274
 =======================================================================
   * Total *   -0.00000     18.99460    43.72881    0.27660    63.00000

 Normal termination of Gaussian 16 at Thu Dec 10 17:22:44 2020.
