 Gaussian 16, Revision A.03,

 -----------------------------------------------------------
 # opt freq B3LYP/6-31G(d) empiricaldispersion=gd3bj scf=xqc
 -----------------------------------------------------------

 ------------------------------
 CID_67829625_JID_5275_neutraal
 ------------------------------
 Symbolic Z-matrix:
 Charge =  0 Multiplicity = 1

 SCF Done:  E(RB3LYP) =  -618.150292432     A.U. after   24 cycles
 SCF Done:  E(RB3LYP) =  -618.252739431     A.U. after   22 cycles
 SCF Done:  E(RB3LYP) =  -618.454070329     A.U. after   25 cycles
 SCF Done:  E(RB3LYP) =  -618.608946854     A.U. after   23 cycles
 SCF Done:  E(RB3LYP) =  -618.787786120     A.U. after   18 cycles
 SCF Done:  E(RB3LYP) =  -618.917439410     A.U. after   17 cycles
 SCF Done:  E(RB3LYP) =  -619.079342674     A.U. after   25 cycles
 SCF Done:  E(RB3LYP) =  -619.114937057     A.U. after   16 cycles
 SCF Done:  E(RB3LYP) =  -619.136869371     A.U. after   16 cycles
 SCF Done:  E(RB3LYP) =  -619.151680147     A.U. after   17 cycles
 SCF Done:  E(RB3LYP) =  -619.368946038     A.U. after    8 cycles
 SCF Done:  E(RB3LYP) =  -619.368948315     A.U. after    7 cycles
 SCF Done:  E(RB3LYP) =  -619.368949131     A.U. after    7 cycles
 SCF Done:  E(RB3LYP) =  -619.368949505     A.U. after    7 cycles
 SCF Done:  E(RB3LYP) =  -619.368949647     A.U. after    7 cycles
 Optimization completed.
    -- Stationary point found.
 Normal termination of Gaussian 16 at Thu Dec 10 16:10:16 2020.

 --------------------------------------------------------------------
 #N Geom=AllCheck Guess=TCheck SCRF=Check GenChk RB3LYP/6-31G(d) Freq
 --------------------------------------------------------------------

 Structure from the checkpoint file:  "JID_5275.chk"
 ------------------------------
 CID_67829625_JID_5275_neutraal
 ------------------------------
 Charge =  0 Multiplicity = 1

 SCF Done:  E(RB3LYP) =  -619.368949647     A.U. after    1 cycles

  Exact polarizability: 174.225  -3.034 149.131  -6.846   3.040 121.943
 Approx polarizability: 234.044  -4.621 229.490 -13.381   4.199 174.799

                      1                      2                      3
                      A                      A                      A
 Frequencies --     26.2045                42.9434                67.0934
 Red. masses --      3.3963                 3.3778                 2.7385
 Frc consts  --      0.0014                 0.0037                 0.0073
 IR Inten    --      0.0736                 0.3090                 0.0325

                      4                      5                      6
                      A                      A                      A
 Frequencies --     87.1655               110.6709               122.6039
 Red. masses --      3.5351                 3.0789                 2.4344
 Frc consts  --      0.0158                 0.0222                 0.0216
 IR Inten    --      0.4689                 0.5556                 0.3763

                      7                      8                      9
                      A                      A                      A
 Frequencies --    156.9444               165.0610               184.5546
 Red. masses --      2.8961                 3.1790                 1.9047
 Frc consts  --      0.0420                 0.0510                 0.0382
 IR Inten    --      0.2027                 0.7529                 0.8887

                     10                     11                     12
                      A                      A                      A
 Frequencies --    209.3881               231.5590               259.2875
 Red. masses --      2.2838                 2.8849                 1.0568
 Frc consts  --      0.0590                 0.0911                 0.0419
 IR Inten    --      1.3871                 0.1625                 0.4959

                     13                     14                     15
                      A                      A                      A
 Frequencies --    260.5529               280.4002               298.8675
 Red. masses --      1.5749                 2.4452                 1.9755
 Frc consts  --      0.0630                 0.1133                 0.1040
 IR Inten    --      3.1914                 4.5478                11.1443

                     16                     17                     18
                      A                      A                      A
 Frequencies --    334.8405               346.8465               361.4724
 Red. masses --      1.9734                 1.7700                 1.8776
 Frc consts  --      0.1304                 0.1255                 0.1445
 IR Inten    --      7.3469                 9.5363                 3.2027

                     19                     20                     21
                      A                      A                      A
 Frequencies --    413.8321               447.8134               454.1804
 Red. masses --      2.2807                 2.2176                 2.5721
 Frc consts  --      0.2301                 0.2620                 0.3126
 IR Inten    --     13.0900                 2.6736                 1.8431

                     22                     23                     24
                      A                      A                      A
 Frequencies --    483.0258               525.5450               577.1434
 Red. masses --      3.0592                 2.7458                 3.5841
 Frc consts  --      0.4205                 0.4468                 0.7034
 IR Inten    --      1.0053                 2.5554                 2.4848

                     25                     26                     27
                      A                      A                      A
 Frequencies --    608.3334               634.3008               747.3776
 Red. masses --      3.2767                 4.7775                 1.3338
 Frc consts  --      0.7145                 1.1325                 0.4390
 IR Inten    --      1.4512                 2.7373                36.8013

                     28                     29                     30
                      A                      A                      A
 Frequencies --    756.6195               768.5184               773.6188
 Red. masses --      2.4317                 2.1210                 1.1944
 Frc consts  --      0.8202                 0.7381                 0.4212
 IR Inten    --     18.2814                52.7107                23.7241

                     31                     32                     33
                      A                      A                      A
 Frequencies --    812.1407               856.2834               869.3609
 Red. masses --      1.9831                 2.2351                 1.7780
 Frc consts  --      0.7707                 0.9656                 0.7917
 IR Inten    --      0.4885                 4.2511                19.2344

                     34                     35                     36
                      A                      A                      A
 Frequencies --    890.6019               894.9064               913.9114
 Red. masses --      1.5094                 1.5349                 1.3567
 Frc consts  --      0.7054                 0.7242                 0.6677
 IR Inten    --     44.2318                29.8513                32.9244

                     37                     38                     39
                      A                      A                      A
 Frequencies --    943.8208               951.9671               965.9270
 Red. masses --      1.6452                 2.2711                 2.0868
 Frc consts  --      0.8635                 1.2126                 1.1472
 IR Inten    --      9.1764                 1.2903                 1.2139

                     40                     41                     42
                      A                      A                      A
 Frequencies --    981.2723              1001.4109              1017.7805
 Red. masses --      1.3053                 1.7177                 1.5936
 Frc consts  --      0.7405                 1.0149                 0.9726
 IR Inten    --      3.7179                30.4225                 2.3470

                     43                     44                     45
                      A                      A                      A
 Frequencies --   1027.4663              1041.9521              1061.9459
 Red. masses --      2.0706                 2.5651                 2.3882
 Frc consts  --      1.2879                 1.6408                 1.5868
 IR Inten    --      2.5738                 1.0079                 0.8947

                     46                     47                     48
                      A                      A                      A
 Frequencies --   1064.5908              1074.4032              1087.0869
 Red. masses --      2.4188                 2.1541                 1.9762
 Frc consts  --      1.6151                 1.4651                 1.3759
 IR Inten    --      0.6781                 6.2301                 6.5727

                     49                     50                     51
                      A                      A                      A
 Frequencies --   1117.1993              1130.1200              1150.8795
 Red. masses --      2.2507                 1.8876                 1.6279
 Frc consts  --      1.6551                 1.4204                 1.2704
 IR Inten    --      1.8897                 9.2693                 0.3031

                     52                     53                     54
                      A                      A                      A
 Frequencies --   1176.3099              1186.2260              1191.4291
 Red. masses --      1.6018                 2.3163                 1.6365
 Frc consts  --      1.3059                 1.9204                 1.3687
 IR Inten    --     30.9142                19.3065                 3.4980

                     55                     56                     57
                      A                      A                      A
 Frequencies --   1194.7470              1215.4201              1240.2650
 Red. masses --      1.2506                 1.5420                 1.2088
 Frc consts  --      1.0518                 1.3421                 1.0955
 IR Inten    --      1.0323                 3.4138                 0.1050

                     58                     59                     60
                      A                      A                      A
 Frequencies --   1259.0118              1305.6125              1308.4998
 Red. masses --      1.2103                 1.2806                 1.2472
 Frc consts  --      1.1303                 1.2861                 1.2582
 IR Inten    --      3.1383                 0.9901                 4.4886

                     61                     62                     63
                      A                      A                      A
 Frequencies --   1317.9052              1333.7981              1345.0581
 Red. masses --      1.2233                 1.6059                 1.3003
 Frc consts  --      1.2519                 1.6832                 1.3860
 IR Inten    --      0.7347                 0.7596                 6.2900

                     64                     65                     66
                      A                      A                      A
 Frequencies --   1357.3361              1362.2058              1381.7719
 Red. masses --      1.3475                 1.3054                 1.3792
 Frc consts  --      1.4627                 1.4272                 1.5515
 IR Inten    --      0.4169                 1.6361                11.0715

                     67                     68                     69
                      A                      A                      A
 Frequencies --   1389.7077              1406.0815              1411.4025
 Red. masses --      1.3709                 1.2871                 1.4105
 Frc consts  --      1.5599                 1.4993                 1.6555
 IR Inten    --      5.1335                10.5792                 1.1280

                     70                     71                     72
                      A                      A                      A
 Frequencies --   1421.5760              1427.8077              1435.5489
 Red. masses --      1.3952                 1.5527                 1.3792
 Frc consts  --      1.6612                 1.8650                 1.6747
 IR Inten    --      1.7928                 2.4676                38.5293

                     73                     74                     75
                      A                      A                      A
 Frequencies --   1445.2943              1446.5334              1511.2558
 Red. masses --      1.4186                 1.4047                 1.0848
 Frc consts  --      1.7460                 1.7318                 1.4597
 IR Inten    --      3.8534                 3.8439                 1.5149

                     76                     77                     78
                      A                      A                      A
 Frequencies --   1513.2784              1519.9507              1522.9309
 Red. masses --      1.0775                 1.0829                 1.0762
 Frc consts  --      1.4538                 1.4739                 1.4706
 IR Inten    --      0.3484                 1.1778                 7.5852

                     79                     80                     81
                      A                      A                      A
 Frequencies --   1523.4283              1529.4234              1532.1407
 Red. masses --      1.0530                 1.0581                 1.0455
 Frc consts  --      1.4398                 1.4582                 1.4460
 IR Inten    --      4.5075                 2.9195                 2.3748

                     82                     83                     84
                      A                      A                      A
 Frequencies --   1540.9631              1556.8344              1579.8150
 Red. masses --      1.0586                 1.0900                 1.1597
 Frc consts  --      1.4810                 1.5565                 1.7053
 IR Inten    --      2.2059                 4.1422                35.2475

                     85                     86                     87
                      A                      A                      A
 Frequencies --   1668.9087              1692.7829              1731.8175
 Red. masses --      6.5161                 1.1088                 5.9112
 Frc consts  --     10.6931                 1.8720                10.4456
 IR Inten    --      3.3548                35.5996                 2.0689

                     88                     89                     90
                      A                      A                      A
 Frequencies --   2941.9209              2981.8595              3011.3551
 Red. masses --      1.0736                 1.0645                 1.0851
 Frc consts  --      5.4748                 5.5767                 5.7975
 IR Inten    --     48.5773                83.8884                65.5745

                     91                     92                     93
                      A                      A                      A
 Frequencies --   3018.3113              3025.4879              3027.3611
 Red. masses --      1.0641                 1.0967                 1.0832
 Frc consts  --      5.7118                 5.9146                 5.8490
 IR Inten    --     67.3968                30.1483                16.3289

                     94                     95                     96
                      A                      A                      A
 Frequencies --   3029.2385              3040.3521              3042.2717
 Red. masses --      1.0623                 1.0383                 1.0358
 Frc consts  --      5.7433                 5.6546                 5.6486
 IR Inten    --     26.5182                22.7801                27.1626

                     97                     98                     99
                      A                      A                      A
 Frequencies --   3060.0940              3060.3742              3065.9018
 Red. masses --      1.0967                 1.0806                 1.1015
 Frc consts  --      6.0509                 5.9631                 6.1003
 IR Inten    --     64.7203                 6.7657                60.8249

                    100                    101                    102
                      A                      A                      A
 Frequencies --   3070.0602              3102.4487              3104.1729
 Red. masses --      1.0640                 1.1036                 1.1010
 Frc consts  --      5.9086                 6.2584                 6.2508
 IR Inten    --     43.2886                22.2746                67.0418

                    103                    104                    105
                      A                      A                      A
 Frequencies --   3109.5896              3114.9718              3121.9735
 Red. masses --      1.1015                 1.1018                 1.1026
 Frc consts  --      6.2753                 6.2987                 6.3318
 IR Inten    --     30.1454                38.7425                26.5015

                    106                    107                    108
                      A                      A                      A
 Frequencies --   3162.3566              3171.5326              3192.8875
 Red. masses --      1.0867                 1.0878                 1.0976
 Frc consts  --      6.4033                 6.4464                 6.5930
 IR Inten    --     11.1160                25.5402                46.0988

                    109                    110                    111
                      A                      A                      A
 Frequencies --   3455.6974              3473.1788              3559.1751
 Red. masses --      1.0764                 1.0500                 1.0932
 Frc consts  --      7.5737                 7.4624                 8.1590
 IR Inten    --     86.0645                 1.2432                 0.5195

 - Thermochemistry -
 -------------------
 Temperature   298.150 Kelvin.  Pressure   1.00000 Atm.
 Atom     1 has atomic number  6 and mass  12.00000

 Molecular mass:   208.19395 amu.
 Principal axes and moments of inertia in atomic units:
                           1         2         3
     Eigenvalues --  2140.558394633.079225064.24285
           X            0.99997  -0.00008  -0.00747
           Y            0.00007   1.00000  -0.00107
           Z            0.00747   0.00107   0.99997
 This molecule is an asymmetric top.
 Rotational symmetry number  1.
 Warning -- assumption of classical behavior for rotation
           may cause significant error
 Rotational temperatures (Kelvin)      0.04046     0.01869     0.01710
 Rotational constants (GHZ):           0.84312     0.38953     0.35637
 Zero-point vibrational energy     942163.5 (Joules/Mol)
                                  225.18249 (Kcal/Mol)
 Warning -- explicit consideration of  25 degrees of freedom as
           vibrations may cause significant error
 Vibrational temperatures:     37.70    61.79    96.53   125.41   159.23
          (Kelvin)            176.40   225.81   237.49   265.53   301.26
                              333.16   373.06   374.88   403.43   430.00
                              481.76   499.03   520.08   595.41   644.30
                              653.46   694.97   756.14   830.38   875.26
                              912.62  1075.31  1088.61  1105.73  1113.06
                             1168.49  1232.00  1250.82  1281.38  1287.57
                             1314.91  1357.95  1369.67  1389.75  1411.83
                             1440.81  1464.36  1478.29  1499.14  1527.90
                             1531.71  1545.83  1564.08  1607.40  1625.99
                             1655.86  1692.45  1706.71  1714.20  1718.97
                             1748.72  1784.46  1811.44  1878.49  1882.64
                             1896.17  1919.04  1935.24  1952.90  1959.91
                             1988.06  1999.48  2023.04  2030.69  2045.33
                             2054.30  2065.43  2079.46  2081.24  2174.36
                             2177.27  2186.87  2191.16  2191.87  2200.50
                             2204.41  2217.10  2239.94  2273.00  2401.19
                             2435.54  2491.70  4232.77  4290.23  4332.67
                             4342.68  4353.00  4355.70  4358.40  4374.39
                             4377.15  4402.79  4403.20  4411.15  4417.13
                             4463.73  4466.21  4474.01  4481.75  4491.82
                             4549.93  4563.13  4593.85  4971.98  4997.13
                             5120.86

 Zero-point correction=                           0.358851 (Hartree/Particle)
 Thermal correction to Energy=                    0.375419
 Thermal correction to Enthalpy=                  0.376363
 Thermal correction to Gibbs Free Energy=         0.314723
 Sum of electronic and zero-point Energies=           -619.010099
 Sum of electronic and thermal Energies=              -618.993531
 Sum of electronic and thermal Enthalpies=            -618.992586
 Sum of electronic and thermal Free Energies=         -619.054227

                     E (Thermal)             CV                S
                      KCal/Mol        Cal/Mol-Kelvin    Cal/Mol-Kelvin
 Total                  235.579             63.493            129.733
 Electronic               0.000              0.000              0.000
 Translational            0.889              2.981             41.904
 Rotational               0.889              2.981             32.285
 Vibrational            233.802             57.532             55.544
 Vibration     1          0.593              1.985              6.098
 Vibration     2          0.595              1.980              5.118
 Vibration     3          0.598              1.970              4.237
 Vibration     4          0.601              1.958              3.723
 Vibration     5          0.607              1.941              3.257
 Vibration     6          0.610              1.930              3.059
 Vibration     7          0.621              1.895              2.586
 Vibration     8          0.623              1.885              2.491
 Vibration     9          0.631              1.861              2.282
 Vibration    10          0.642              1.826              2.049
 Vibration    11          0.653              1.793              1.867
 Vibration    12          0.668              1.747              1.667
 Vibration    13          0.669              1.745              1.658
 Vibration    14          0.680              1.710              1.531
 Vibration    15          0.692              1.676              1.423
 Vibration    16          0.716              1.606              1.237
 Vibration    17          0.725              1.582              1.180
 Vibration    18          0.736              1.552              1.116
 Vibration    19          0.777              1.440              0.913
 Vibration    20          0.807              1.366              0.802
 Vibration    21          0.813              1.352              0.783
 Vibration    22          0.839              1.288              0.702
 Vibration    23          0.881              1.193              0.597
 Vibration    24          0.934              1.081              0.491
 Vibration    25          0.967              1.014              0.436

                           ! Non-Optimized Parameters !
 Normal termination of Gaussian 16 at Thu Dec 10 16:25:12 2020.

 ----------------------------------------------------------------------
 # B3LYP/6-311++G(d,p) empiricaldispersion=gd3bj scf=xqc pop=npa geom=c
 heck
 ----------------------------------------------------------------------

 --------------------------------------
 CID_67829625_JID_5275_Energie_neutraal
 --------------------------------------
 Structure from the checkpoint file:  "JID_5275.chk"
 Charge =  0 Multiplicity = 1

 SCF Done:  E(RB3LYP) =  -619.548956773     A.U. after   15 cycles
 Normal termination of Gaussian 16 at Thu Dec 10 16:33:22 2020.

 ----------------------------------------------------------------------
 # B3LYP/6-311++G(d,p) empiricaldispersion=gd3bj scf=xqc pop=npa geom=c
 heck
 ----------------------------------------------------------------------

 ------------------------------------
 CID_67829625_JID_5275_Energie_kation
 ------------------------------------
 Structure from the checkpoint file:  "JID_5275.chk"
 Charge =  1 Multiplicity = 2

 SCF Done:  E(UB3LYP) =  -619.279615819     A.U. after   27 cycles
 Normal termination of Gaussian 16 at Thu Dec 10 16:59:37 2020.
 Gaussian 16:  ES64L-G16RevA.03 25-Dec-2016

 ----------------------------------------------------------------------
 # B3LYP/6-311++G(d,p) empiricaldispersion=gd3bj scf=xqc pop=npa geom=c
 heck
 ----------------------------------------------------------------------

 -----------------------------------
 CID_67829625_JID_5275_Energie_anion
 -----------------------------------
 Structure from the checkpoint file:  "JID_5275.chk"
 Charge = -1 Multiplicity = 2

                         Standard orientation:
 ---------------------------------------------------------------------
 Center     Atomic      Atomic             Coordinates (Angstroms)
 Number     Number       Type             X           Y           Z
 ---------------------------------------------------------------------
      1          6           0        1.558020   -1.675608    1.820959
      2          6           0        0.202287   -0.288870   -1.554216
      3          6           0       -1.195000   -0.902643   -1.645363
      4          7           0       -2.211189    0.087037   -1.291916
      5          6           0       -3.412657   -0.450315   -0.667408
      6          6           0       -3.264196   -0.921433    0.793255
      7          6           0       -3.000296    0.231634    1.766269
      8          6           0        2.921913   -1.369771   -0.249410
      9          6           0        1.513771   -1.452690    0.297830
     10          6           0        0.699976   -0.195550   -0.082767
     11          6           0        1.501383    1.069794    0.149286
     12          6           0        2.827906    1.060212   -0.074278
     13          6           0        3.526014   -0.181057   -0.411165
     14          6           0        0.773348    2.288955    0.646005
     15          7           0       -0.478221    2.530461   -0.092843
     16          1           0        0.544089   -1.785508    2.224919
     17          1           0        2.036797   -0.824829    2.317774
     18          1           0        2.126829   -2.577031    2.074253
     19          1           0        0.172057    0.702062   -2.019216
     20          1           0        0.920402   -0.876949   -2.135772
     21          1           0       -1.382565   -1.265539   -2.667080
     22          1           0       -1.226493   -1.796352   -0.994296
     23          1           0       -1.800360    0.832234   -0.728697
     24          1           0       -4.196385    0.320193   -0.708492
     25          1           0       -3.769252   -1.283959   -1.286909
     26          1           0       -4.179463   -1.450485    1.093234
     27          1           0       -2.449760   -1.655776    0.859508
     28          1           0       -3.843248    0.934511    1.774350
     29          1           0       -2.857254   -0.130675    2.790594
     30          1           0       -2.105597    0.797136    1.482099
     31          1           0        3.456311   -2.297009   -0.444151
     32          1           0        1.005958   -2.317176   -0.151911
     33          1           0       -0.185924   -0.159293    0.561810
     34          1           0        3.410975    1.973835    0.027493
     35          1           0        4.556443   -0.121339   -0.753199
     36          1           0        0.478979    2.111937    1.691569
     37          1           0        1.460534    3.151287    0.653128
     38          1           0       -0.994181    3.292554    0.342634
     39          1           0       -0.267833    2.827749   -1.044307
 ---------------------------------------------------------------------

 SCF Done:  E(UB3LYP) =  -619.538956955     A.U. after   33 cycles
 SCF Done:  E(UB3LYP) =  -619.538956955     a.u. after    1 cycles

 The electronic state is 2-A.
 Alpha  occ. eigenvalues --  -14.17381 -14.17116 -10.08423 -10.07795 -10.07115
 Alpha  occ. eigenvalues --  -10.06374 -10.05944 -10.05199 -10.05198 -10.04994
 Alpha  occ. eigenvalues --  -10.04634 -10.03890 -10.03539 -10.03269 -10.02965
 Alpha  occ. eigenvalues --   -0.78921  -0.76458  -0.72456  -0.67269  -0.64705
 Alpha  occ. eigenvalues --   -0.64226  -0.60978  -0.56900  -0.54483  -0.53458
 Alpha  occ. eigenvalues --   -0.49538  -0.47831  -0.46524  -0.44629  -0.38650
 Alpha  occ. eigenvalues --   -0.37293  -0.37183  -0.35960  -0.34581  -0.34270
 Alpha  occ. eigenvalues --   -0.33140  -0.32670  -0.31825  -0.30916  -0.30101
 Alpha  occ. eigenvalues --   -0.29035  -0.28672  -0.27479  -0.27267  -0.26010
 Alpha  occ. eigenvalues --   -0.25081  -0.24553  -0.24178  -0.23706  -0.23154
 Alpha  occ. eigenvalues --   -0.22403  -0.21340  -0.19724  -0.18531  -0.18136
 Alpha  occ. eigenvalues --   -0.13112  -0.10423  -0.09087   0.05041
 Alpha virt. eigenvalues --    0.07052   0.07907   0.08074   0.08665   0.09299
 Alpha virt. eigenvalues --    0.09516   0.10239   0.10385   0.10770   0.11456
 Alpha virt. eigenvalues --    0.11627   0.12436   0.12668   0.13196   0.13905

  Beta  occ. eigenvalues --  -14.17297 -14.17112 -10.08419 -10.07792 -10.07110
  Beta  occ. eigenvalues --  -10.06372 -10.05952 -10.05206 -10.05177 -10.04967
  Beta  occ. eigenvalues --  -10.04605 -10.03864 -10.03355 -10.03049 -10.02889
  Beta  occ. eigenvalues --   -0.78909  -0.76290  -0.72269  -0.67234  -0.64532
  Beta  occ. eigenvalues --   -0.64050  -0.60794  -0.56846  -0.54420  -0.53240
  Beta  occ. eigenvalues --   -0.49489  -0.47793  -0.46462  -0.44334  -0.38541
  Beta  occ. eigenvalues --   -0.37199  -0.37134  -0.35891  -0.34492  -0.34158
  Beta  occ. eigenvalues --   -0.33063  -0.32595  -0.31797  -0.30809  -0.30063
  Beta  occ. eigenvalues --   -0.28974  -0.28544  -0.27403  -0.27182  -0.25889
  Beta  occ. eigenvalues --   -0.25049  -0.24477  -0.24097  -0.23675  -0.23135
  Beta  occ. eigenvalues --   -0.22368  -0.21229  -0.19606  -0.18417  -0.17415
  Beta  occ. eigenvalues --   -0.13026  -0.10413  -0.08100
  Beta virt. eigenvalues --    0.07061   0.07868   0.08277   0.08504   0.09398
  Beta virt. eigenvalues --    0.09481   0.09868   0.10368   0.10486   0.11135
  Beta virt. eigenvalues --    0.11720   0.11735   0.12560   0.12695   0.13458

 Mulliken charges and spin densities:
               1          2
     1  C   -0.741431  -0.039508
     2  C   -0.860426   0.014138
     3  C   -0.560373   0.158082
     4  N   -0.160101   0.022307
     5  C   -0.314932  -0.139758
     6  C   -0.346603   0.281698
     7  C   -0.052145  -0.455567
     8  C   -0.597860   0.214858
     9  C    0.653361  -0.227037
    10  C    0.671821   0.592815
    11  C   -0.730570   0.791955
    12  C    0.533663  -0.764158
    13  C   -0.012190  -0.211945
    14  C    0.756488  -1.666990
    15  N   -0.592587   0.159539
    16  H    0.101706   0.003489
    17  H    0.157336  -0.000141
    18  H    0.120638   0.018182
    19  H    0.072084   0.090476
    20  H    0.134771   0.026327
    21  H    0.148260   0.011900
    22  H    0.060086   0.009669
    23  H    0.453369  -0.123675
    24  H    0.067453   0.089575
    25  H    0.102923   0.011044
    26  H    0.122257   0.018646
    27  H    0.103469   0.003250
    28  H   -0.204991   0.340944
    29  H    0.004505   0.102469
    30  H    0.354712  -0.142079
    31  H    0.100372  -0.001670
    32  H    0.177161   0.000718
    33  H    0.225851  -0.194259
    34  H    0.065738   0.045050
    35  H    0.082870   0.038052
    36  H   -0.238406   0.424017
    37  H   -0.448988   0.593826
    38  H   -0.456225   0.721239
    39  H    0.046932   0.182519
 Sum of Mulliken charges =  -1.00000   1.00000

 Dipole moment (field-independent basis, Debye):
    X=              0.1689    Y=             -7.6122    Z=             -1.2927  Tot=              7.7230
 Quadrupole moment (field-independent basis, Debye-Ang):
   XX=           -142.8867   YY=           -143.5433   ZZ=           -123.8105
   XY=             10.3921   XZ=              0.5262   YZ=             -6.9513

 Summary of Natural Population Analysis:

                                       Natural Population
                Natural  -----------------------------------------------
    Atom  No    Charge         Core      Valence    Rydberg      Total
 -----------------------------------------------------------------------
      C    1   -0.27602      0.99965     2.27197    0.00441     3.27602
      C    2   -0.18852      0.99960     2.17878    0.01014     3.18852
      C    3   -0.08239      0.99962     2.07268    0.01009     3.08239
      N    4   -0.36459      0.99975     2.85259    0.01226     3.86459
      C    5   -0.08411      0.99963     2.07259    0.01189     3.08411
      C    6   -0.20073      0.99964     2.19425    0.00684     3.20073
      C    7   -0.29276      0.99966     2.28639    0.00671     3.29276
      C    8   -0.05217      0.99954     2.04232    0.01031     3.05217
      C    9   -0.12288      0.99959     2.11237    0.01093     3.12288
      C   10   -0.12692      0.99954     2.11454    0.01283     3.12692
      C   11    0.03745      0.99947     1.95120    0.01188     2.96255
      C   12   -0.11439      0.99945     2.10533    0.00961     3.11439
      C   13   -0.11307      0.99953     2.10324    0.01029     3.11307
      C   14   -0.09881      0.99957     2.08525    0.01399     3.09881
      N   15   -0.42932      0.99977     2.91729    0.01225     3.92932
      H   16    0.09331      0.00000     0.40589    0.00080     0.40669
      H   17    0.10145      0.00000     0.39749    0.00107     0.39855
      H   18    0.09329      0.00000     0.40590    0.00082     0.40671
      H   19    0.10187      0.00000     0.39696    0.00117     0.39813
      H   20    0.10148      0.00000     0.39753    0.00099     0.39852
      H   21    0.08372      0.00000     0.41527    0.00100     0.41628
      H   22    0.07561      0.00000     0.42292    0.00148     0.42439
      H   23    0.19745      0.00000     0.29858    0.00397     0.30255
      H   24    0.08982      0.00000     0.40924    0.00094     0.41018
      H   25    0.08565      0.00000     0.41343    0.00091     0.41435
      H   26    0.08936      0.00000     0.40965    0.00098     0.41064
      H   27    0.09246      0.00000     0.40643    0.00111     0.40754
      H   28    0.09499      0.00000     0.40370    0.00131     0.40501
      H   29    0.09481      0.00000     0.40438    0.00082     0.40519
      H   30    0.10670      0.00000     0.39151    0.00179     0.39330
      H   31    0.08750      0.00000     0.41165    0.00084     0.41250
      H   32    0.09504      0.00000     0.40347    0.00149     0.40496
      H   33    0.10294      0.00000     0.39476    0.00230     0.39706
      H   34    0.09235      0.00000     0.40609    0.00156     0.40765
      H   35    0.09178      0.00000     0.40711    0.00111     0.40822
      H   36    0.09587      0.00000     0.40184    0.00230     0.40413
      H   37    0.08300      0.00000     0.41535    0.00166     0.41700
      H   38    0.18461      0.00000     0.30338    0.01201     0.31539
      H   39    0.17419      0.00000     0.32345    0.00236     0.32581
 =======================================================================
   * Total *    0.00000     14.99401    42.80678    0.19921    58.00000

 Normal termination of Gaussian 16 at Thu Dec 10 17:30:39 2020.
