 Gaussian 16, Revision A.03,

 -----------------------------------------------------------
 # opt freq B3LYP/6-31G(d) empiricaldispersion=gd3bj scf=xqc
 -----------------------------------------------------------

 -------------------------------
 CID_116162746_JID_2472_neutraal
 -------------------------------
 Symbolic Z-matrix:
 Charge =  0 Multiplicity = 1

 SCF Done:  E(RB3LYP) =  -594.332899397     A.U. after   14 cycles
 SCF Done:  E(RB3LYP) =  -594.336627747     A.U. after   12 cycles
 SCF Done:  E(RB3LYP) =  -594.336328813     A.U. after   13 cycles
 SCF Done:  E(RB3LYP) =  -594.337744254     A.U. after   11 cycles
 SCF Done:  E(RB3LYP) =  -594.337882736     A.U. after   11 cycles
 SCF Done:  E(RB3LYP) =  -594.337977170     A.U. after   11 cycles
 SCF Done:  E(RB3LYP) =  -594.338370686     A.U. after   11 cycles
 SCF Done:  E(RB3LYP) =  -594.338684324     A.U. after   12 cycles
 SCF Done:  E(RB3LYP) =  -594.338848401     A.U. after   11 cycles
 SCF Done:  E(RB3LYP) =  -594.338805773     A.U. after   11 cycles
 SCF Done:  E(RB3LYP) =  -594.339069018     A.U. after   11 cycles
 SCF Done:  E(RB3LYP) =  -594.339077413     A.U. after    9 cycles
 SCF Done:  E(RB3LYP) =  -594.339081684     A.U. after   10 cycles
 SCF Done:  E(RB3LYP) =  -594.339085073     A.U. after   11 cycles
 SCF Done:  E(RB3LYP) =  -594.339085272     A.U. after    8 cycles
 SCF Done:  E(RB3LYP) =  -594.339085390     A.U. after    8 cycles
 Optimization completed.
    -- Stationary point found.
 Normal termination of Gaussian 16 at Wed Dec  9 17:33:05 2020.

 --------------------------------------------------------------------
 #N Geom=AllCheck Guess=TCheck SCRF=Check GenChk RB3LYP/6-31G(d) Freq
 --------------------------------------------------------------------

 Structure from the checkpoint file:  "JID_2472.chk"
 -------------------------------
 CID_116162746_JID_2472_neutraal
 -------------------------------
 Charge =  0 Multiplicity = 1

 SCF Done:  E(RB3LYP) =  -594.339085390     A.U. after    1 cycles

  Exact polarizability: 112.426   0.177  97.695  -3.745  -1.318  79.547
 Approx polarizability: 151.387   1.346 134.120  -7.164   0.195 121.892

                      1                      2                      3
                      A                      A                      A
 Frequencies --     20.2400                41.4688                82.2358
 Red. masses --      8.6365                 4.3400                 5.5249
 Frc consts  --      0.0021                 0.0044                 0.0220
 IR Inten    --      1.3871                 0.6931                 0.1782

                      4                      5                      6
                      A                      A                      A
 Frequencies --    104.4533               159.9949               169.4437
 Red. masses --      2.1398                 4.2415                 3.5857
 Frc consts  --      0.0138                 0.0640                 0.0607
 IR Inten    --      0.5950                 3.5261                 2.1327

                      7                      8                      9
                      A                      A                      A
 Frequencies --    188.1442               253.5852               284.6225
 Red. masses --      3.8982                 1.3132                 1.9075
 Frc consts  --      0.0813                 0.0498                 0.0910
 IR Inten    --      5.5471                 0.2536                 1.2116

                     10                     11                     12
                      A                      A                      A
 Frequencies --    334.6517               351.1383               378.3123
 Red. masses --      2.2904                 2.5836                 2.3605
 Frc consts  --      0.1511                 0.1877                 0.1990
 IR Inten    --      2.1123                 2.5081                 3.8920

                     13                     14                     15
                      A                      A                      A
 Frequencies --    428.7694               446.7794               521.1150
 Red. masses --      2.0862                 2.3875                 2.1487
 Frc consts  --      0.2260                 0.2808                 0.3438
 IR Inten    --      3.4416                 2.1655                 7.1773

                     16                     17                     18
                      A                      A                      A
 Frequencies --    565.9538               613.0918               639.6920
 Red. masses --      3.6857                 2.6379                 1.4563
 Frc consts  --      0.6956                 0.5842                 0.3511
 IR Inten    --     30.8541                 2.2967                72.2708

                     19                     20                     21
                      A                      A                      A
 Frequencies --    685.6829               727.9490               745.8878
 Red. masses --      2.9168                 2.4916                 2.0682
 Frc consts  --      0.8080                 0.7779                 0.6779
 IR Inten    --     32.3029                94.3409                10.6517

                     22                     23                     24
                      A                      A                      A
 Frequencies --    768.5163               816.0589               839.2822
 Red. masses --      3.0320                 1.6073                 2.3194
 Frc consts  --      1.0551                 0.6307                 0.9626
 IR Inten    --      9.4751                 9.5512                30.2375

                     25                     26                     27
                      A                      A                      A
 Frequencies --    866.9416               905.6917               932.7582
 Red. masses --      2.5222                 2.0300                 2.3430
 Frc consts  --      1.1169                 0.9811                 1.2011
 IR Inten    --      6.8032                 4.2965                 6.8532

                     28                     29                     30
                      A                      A                      A
 Frequencies --    948.0091               968.5139               991.0676
 Red. masses --      3.0429                 2.3318                 2.5735
 Frc consts  --      1.6113                 1.2887                 1.4893
 IR Inten    --     10.3054                36.1478                10.7427

                     31                     32                     33
                      A                      A                      A
 Frequencies --   1031.9499              1036.7565              1067.1235
 Red. masses --      1.5990                 1.4903                 1.8708
 Frc consts  --      1.0033                 0.9438                 1.2552
 IR Inten    --      2.0946                 6.6305                15.7465

                     34                     35                     36
                      A                      A                      A
 Frequencies --   1103.2916              1113.4216              1179.1049
 Red. masses --      5.4241                 2.4987                 2.2202
 Frc consts  --      3.8901                 1.8251                 1.8186
 IR Inten    --     94.4080                43.2115                18.9802

                     37                     38                     39
                      A                      A                      A
 Frequencies --   1190.5745              1207.9971              1212.5485
 Red. masses --      1.7433                 2.1781                 1.9021
 Frc consts  --      1.4559                 1.8726                 1.6477
 IR Inten    --     21.7863                61.5872                84.0853

                     40                     41                     42
                      A                      A                      A
 Frequencies --   1245.8100              1263.4831              1266.7222
 Red. masses --      1.2662                 1.3003                 1.3490
 Frc consts  --      1.1579                 1.2230                 1.2754
 IR Inten    --     32.6090                 5.2032                 5.6333

                     43                     44                     45
                      A                      A                      A
 Frequencies --   1297.0393              1308.6940              1325.4707
 Red. masses --      1.3591                 1.6259                 1.4114
 Frc consts  --      1.3471                 1.6407                 1.4610
 IR Inten    --      5.6707                40.5729                18.4720

                     46                     47                     48
                      A                      A                      A
 Frequencies --   1343.0085              1376.2780              1390.8624
 Red. masses --      1.4211                 1.4861                 1.4329
 Frc consts  --      1.5102                 1.6585                 1.6332
 IR Inten    --     18.9316                16.6391                10.3305

                     49                     50                     51
                      A                      A                      A
 Frequencies --   1414.3752              1420.0066              1438.3263
 Red. masses --      1.4628                 1.3957                 1.2643
 Frc consts  --      1.7241                 1.6582                 1.5411
 IR Inten    --     18.7092                15.2416                14.2829

                     52                     53                     54
                      A                      A                      A
 Frequencies --   1502.3787              1510.2673              1519.6888
 Red. masses --      1.1114                 1.0783                 1.1001
 Frc consts  --      1.4780                 1.4491                 1.4969
 IR Inten    --      4.7818                 7.2298                 8.4003

                     55                     56                     57
                      A                      A                      A
 Frequencies --   1526.2473              1529.1994              1534.7807
 Red. masses --      1.0599                 1.0885                 1.1454
 Frc consts  --      1.4547                 1.4997                 1.5896
 IR Inten    --      7.2154                 0.6131                27.3326

                     58                     59                     60
                      A                      A                      A
 Frequencies --   1547.0887              1556.1825              1850.4427
 Red. masses --      1.1535                 1.1073                 9.2378
 Frc consts  --      1.6267                 1.5799                18.6367
 IR Inten    --     16.8756                10.2666               342.1940

                     61                     62                     63
                      A                      A                      A
 Frequencies --   2979.9407              3023.5698              3051.8987
 Red. masses --      1.0720                 1.0719                 1.0552
 Frc consts  --      5.6084                 5.7733                 5.7906
 IR Inten    --     75.6145                79.5948                18.5870

                     64                     65                     66
                      A                      A                      A
 Frequencies --   3055.0045              3071.9919              3092.3237
 Red. masses --      1.0486                 1.0715                 1.0613
 Frc consts  --      5.7659                 5.9576                 5.9795
 IR Inten    --     36.1039                32.9050                 5.3125

                     67                     68                     69
                      A                      A                      A
 Frequencies --   3111.6680              3114.3762              3120.2383
 Red. masses --      1.0963                 1.0946                 1.0999
 Frc consts  --      6.2541                 6.2552                 6.3093
 IR Inten    --     19.1028                40.4866                27.1828

                     70                     71                     72
                      A                      A                      A
 Frequencies --   3128.6334              3141.5170              3144.2395
 Red. masses --      1.1025                 1.0935                 1.1059
 Frc consts  --      6.3582                 6.3586                 6.4415
 IR Inten    --     17.9793                22.8896                28.4736

                     73                     74                     75
                      A                      A                      A
 Frequencies --   3175.3619              3542.0591              3677.6722
 Red. masses --      1.0922                 1.0735                 1.0640
 Frc consts  --      6.4887                 7.9353                 8.4787
 IR Inten    --     18.4599                 4.0111                48.1570

 - Thermochemistry -
 -------------------
 Temperature   298.150 Kelvin.  Pressure   1.00000 Atm.
 Atom     1 has atomic number  6 and mass  12.00000

 Molecular mass:   173.10519 amu.
 Principal axes and moments of inertia in atomic units:
                           1         2         3
     Eigenvalues --  1183.198232882.719333489.14044
           X            0.99997  -0.00303  -0.00675
           Y            0.00301   0.99999  -0.00320
           Z            0.00676   0.00318   0.99997
 This molecule is an asymmetric top.
 Rotational symmetry number  1.
 Warning -- assumption of classical behavior for rotation
           may cause significant error
 Rotational temperatures (Kelvin)      0.07320     0.03005     0.02482
 Rotational constants (GHZ):           1.52531     0.62606     0.51725
 Zero-point vibrational energy     619185.1 (Joules/Mol)
                                  147.98879 (Kcal/Mol)
 Warning -- explicit consideration of  17 degrees of freedom as
           vibrations may cause significant error
 Vibrational temperatures:     29.12    59.66   118.32   150.28   230.20
          (Kelvin)            243.79   270.70   364.85   409.51   481.49
                              505.21   544.31   616.90   642.82   749.77
                              814.28   882.10   920.37   986.54  1047.36
                             1073.17  1105.72  1174.13  1207.54  1247.34
                             1303.09  1342.03  1363.97  1393.48  1425.93
                             1484.75  1491.66  1535.35  1587.39  1601.97
                             1696.47  1712.97  1738.04  1744.59  1792.44
                             1817.87  1822.53  1866.15  1882.92  1907.06
                             1932.29  1980.16  2001.14  2034.97  2043.07
                             2069.43  2161.59  2172.94  2186.49  2195.93
                             2200.18  2208.21  2225.92  2239.00  2662.37
                             4287.47  4350.24  4391.00  4395.47  4419.91
                             4449.16  4477.00  4480.89  4489.33  4501.41
                             4519.94  4523.86  4568.64  5096.23  5291.35

 Zero-point correction=                           0.235835 (Hartree/Particle)
 Thermal correction to Energy=                    0.248146
 Thermal correction to Enthalpy=                  0.249090
 Thermal correction to Gibbs Free Energy=         0.195971
 Sum of electronic and zero-point Energies=           -594.103250
 Sum of electronic and thermal Energies=              -594.090939
 Sum of electronic and thermal Enthalpies=            -594.089995
 Sum of electronic and thermal Free Energies=         -594.143115

                     E (Thermal)             CV                S
                      KCal/Mol        Cal/Mol-Kelvin    Cal/Mol-Kelvin
 Total                  155.714             46.195            111.799
 Electronic               0.000              0.000              0.000
 Translational            0.889              2.981             41.354
 Rotational               0.889              2.981             30.854
 Vibrational            153.937             40.233             39.591
 Vibration     1          0.593              1.986              6.611
 Vibration     2          0.594              1.981              5.188
 Vibration     3          0.600              1.961              3.837
 Vibration     4          0.605              1.946              3.369
 Vibration     5          0.622              1.891              2.550
 Vibration     6          0.625              1.880              2.442
 Vibration     7          0.633              1.856              2.246
 Vibration     8          0.665              1.757              1.706
 Vibration     9          0.683              1.702              1.506
 Vibration    10          0.716              1.606              1.238
 Vibration    11          0.728              1.573              1.161
 Vibration    12          0.749              1.516              1.046
 Vibration    13          0.790              1.408              0.863
 Vibration    14          0.806              1.368              0.806
 Vibration    15          0.876              1.203              0.607
 Vibration    16          0.922              1.105              0.512
 Vibration    17          0.972              1.004              0.428

 Optimization completed.
    -- Stationary point found.
 Normal termination of Gaussian 16 at Wed Dec  9 17:40:39 2020.

 ----------------------------------------------------------------------
 # B3LYP/6-311++G(d,p) empiricaldispersion=gd3bj scf=xqc pop=npa geom=c
 heck
 ----------------------------------------------------------------------

 ---------------------------------------
 CID_116162746_JID_2472_Energie_neutraal
 ---------------------------------------
 Structure from the checkpoint file:  "JID_2472.chk"
 Charge =  0 Multiplicity = 1

 SCF Done:  E(RB3LYP) =  -594.524555915     A.U. after   14 cycles
 Normal termination of Gaussian 16 at Wed Dec  9 17:45:00 2020.

 ----------------------------------------------------------------------
 # B3LYP/6-311++G(d,p) empiricaldispersion=gd3bj scf=xqc pop=npa geom=c
 heck
 ----------------------------------------------------------------------

 -------------------------------------
 CID_116162746_JID_2472_Energie_kation
 -------------------------------------
 Structure from the checkpoint file:  "JID_2472.chk"
 Charge =  1 Multiplicity = 2

 SCF Done:  E(UB3LYP) =  -594.225434014     A.U. after   20 cycles
 Normal termination of Gaussian 16 at Wed Dec  9 17:51:38 2020.
 Gaussian 16:  ES64L-G16RevA.03 25-Dec-2016

 ----------------------------------------------------------------------
 # B3LYP/6-311++G(d,p) empiricaldispersion=gd3bj scf=xqc pop=npa geom=c
 heck
 ----------------------------------------------------------------------

 ------------------------------------
 CID_116162746_JID_2472_Energie_anion
 ------------------------------------
 Structure from the checkpoint file:  "JID_2472.chk"
 Charge = -1 Multiplicity = 2

                         Standard orientation:
 ---------------------------------------------------------------------
 Center     Atomic      Atomic             Coordinates (Angstroms)
 Number     Number       Type             X           Y           Z
 ---------------------------------------------------------------------
      1          6           0       -1.784921    1.990601    0.549898
      2          6           0       -1.370627    0.613429    0.039804
      3          6           0       -1.203511   -0.435767    1.183489
      4          6           0       -1.591223   -1.774051    0.514741
      5          8           0       -2.091361   -1.453176   -0.792304
      6          6           0       -2.488043   -0.088118   -0.754282
      7          7           0       -0.234333    0.717308   -0.886738
      8          6           0        0.944522    1.487837   -0.555526
      9          6           0        1.930246    0.959816    0.534741
     10          6           0        2.619579   -0.306061    0.101588
     11          8           0        3.762764   -0.400402   -0.284905
     12          8           0        1.781427   -1.383379    0.129616
     13          1           0       -1.896680    2.692116   -0.283697
     14          1           0       -1.052773    2.406552    1.250450
     15          1           0       -2.740848    1.923992    1.079223
     16          1           0       -0.193838   -0.463682    1.590452
     17          1           0       -1.890552   -0.199200    2.003627
     18          1           0       -2.362818   -2.304563    1.090621
     19          1           0       -0.736008   -2.441715    0.381989
     20          1           0       -3.459844    0.028921   -0.244239
     21          1           0       -2.565938    0.275236   -1.780763
     22          1           0        0.005564   -0.209333   -1.226485
     23          1           0        1.521692    1.616256   -1.479610
     24          1           0        0.634878    2.491308   -0.249757
     25          1           0        2.710126    1.709065    0.694456
     26          1           0        1.403056    0.799892    1.478651
     27          1           0        2.305540   -2.136465   -0.203721
 ---------------------------------------------------------------------

 SCF Done:  E(UB3LYP) =  -594.512265853     A.U. after   32 cycles

 The electronic state is 2-A.
 Alpha  occ. eigenvalues --  -19.06659 -19.02045 -19.01261 -14.19186 -10.20111
 Alpha  occ. eigenvalues --  -10.10805 -10.10780 -10.10758 -10.10106 -10.07849
 Alpha  occ. eigenvalues --  -10.06058 -10.05757  -1.00606  -0.93840  -0.91747
 Alpha  occ. eigenvalues --   -0.80736  -0.69333  -0.65715  -0.63694  -0.58708
 Alpha  occ. eigenvalues --   -0.55236  -0.49783  -0.49456  -0.45570  -0.41713
 Alpha  occ. eigenvalues --   -0.39433  -0.39219  -0.38083  -0.36434  -0.35732
 Alpha  occ. eigenvalues --   -0.34951  -0.32457  -0.32363  -0.30615  -0.30131
 Alpha  occ. eigenvalues --   -0.29861  -0.28256  -0.27366  -0.26686  -0.24954
 Alpha  occ. eigenvalues --   -0.23705  -0.23426  -0.22594  -0.21107  -0.18082
 Alpha  occ. eigenvalues --   -0.16169  -0.11724   0.04543
 Alpha virt. eigenvalues --    0.06719   0.07410   0.08540   0.09306   0.09765
 Alpha virt. eigenvalues --    0.10120   0.10323   0.10644   0.11510   0.12440
 Alpha virt. eigenvalues --    0.12834   0.13036   0.14136   0.14836   0.15437

  Beta  occ. eigenvalues --  -19.06606 -19.02043 -19.01225 -14.19181 -10.20073
  Beta  occ. eigenvalues --  -10.10789 -10.10773 -10.10750 -10.10082 -10.07819
  Beta  occ. eigenvalues --  -10.06033 -10.05712  -1.00510  -0.93832  -0.91663
  Beta  occ. eigenvalues --   -0.80721  -0.69290  -0.65652  -0.63653  -0.58640
  Beta  occ. eigenvalues --   -0.55148  -0.49675  -0.49405  -0.45509  -0.41672
  Beta  occ. eigenvalues --   -0.39381  -0.39165  -0.38034  -0.36379  -0.35649
  Beta  occ. eigenvalues --   -0.34891  -0.32405  -0.32318  -0.30572  -0.30081
  Beta  occ. eigenvalues --   -0.29824  -0.28209  -0.27308  -0.26648  -0.24921
  Beta  occ. eigenvalues --   -0.23658  -0.23396  -0.22474  -0.21083  -0.18024
  Beta  occ. eigenvalues --   -0.16154  -0.11707
  Beta virt. eigenvalues --    0.07067   0.08052   0.08159   0.09013   0.09818
  Beta virt. eigenvalues --    0.10158   0.10457   0.10767   0.11029   0.11947
  Beta virt. eigenvalues --    0.12998   0.13193   0.13422   0.14364   0.15192

 Mulliken charges and spin densities:
               1          2
     1  C    1.158362  -1.730506
     2  C   -2.415997   2.346033
     3  C    0.824814  -1.073987
     4  C    0.301652  -0.631746
     5  O   -0.117859   0.027765
     6  C    0.259672  -0.793394
     7  N    0.334382  -0.122158
     8  C   -0.183243  -0.100205
     9  C    0.837632  -1.107549
    10  C    0.317693  -0.331054
    11  O   -0.312153   0.038994
    12  O   -0.250936   0.032451
    13  H   -0.299678   0.459820
    14  H   -0.353978   0.515959
    15  H   -0.200745   0.337038
    16  H    0.427648  -0.326602
    17  H   -0.436032   0.643501
    18  H    0.005670   0.117039
    19  H   -0.148211   0.338527
    20  H   -0.045748   0.191201
    21  H    0.102479   0.079228
    22  H    0.199861   0.042920
    23  H    0.137033   0.038499
    24  H   -0.398343   0.563942
    25  H   -0.253529   0.455208
    26  H   -0.301436   0.484423
    27  H   -0.189007   0.504654
 Sum of Mulliken charges =  -1.00000   1.00000

 Dipole moment (field-independent basis, Debye):
    X=             -1.1139    Y=             -1.4467    Z=             -2.0676  Tot=              2.7584
 Quadrupole moment (field-independent basis, Debye-Ang):
   XX=           -132.5428   YY=           -120.7922   ZZ=           -104.3768
   XY=              4.9632   XZ=              3.3477   YZ=             -6.3282

 Summary of Natural Population Analysis:

                                       Natural Population
                Natural  -----------------------------------------------
    Atom  No    Charge         Core      Valence    Rydberg      Total
 -----------------------------------------------------------------------
      C    1   -0.29159      0.99961     2.28450    0.00748     3.29159
      C    2    0.04853      0.99956     1.93596    0.01594     2.95147
      C    3   -0.21378      0.99959     2.20500    0.00919     3.21378
      C    4   -0.01292      0.99960     2.00101    0.01230     3.01292
      O    5   -0.30472      0.99990     3.29666    0.00816     4.30472
      C    6   -0.00691      0.99952     1.99513    0.01225     3.00691
      N    7   -0.34819      0.99971     2.83693    0.01155     3.84819
      C    8   -0.08281      0.99961     2.07025    0.01295     3.08281
      C    9   -0.24853      0.99957     2.24013    0.00882     3.24853
      C   10    0.41034      0.99971     1.56614    0.02381     2.58966
      O   11   -0.30747      0.99987     3.30142    0.00618     4.30747
      O   12   -0.35276      0.99988     3.34483    0.00805     4.35276
      H   13    0.10353      0.00000     0.39518    0.00128     0.39647
      H   14    0.10509      0.00000     0.39293    0.00198     0.39491
      H   15    0.10451      0.00000     0.39395    0.00154     0.39549
      H   16    0.10913      0.00000     0.38885    0.00202     0.39087
      H   17    0.10057      0.00000     0.39779    0.00164     0.39943
      H   18    0.07850      0.00000     0.42019    0.00131     0.42150
      H   19    0.09226      0.00000     0.40603    0.00171     0.40774
      H   20    0.07753      0.00000     0.42101    0.00146     0.42247
      H   21    0.09595      0.00000     0.40261    0.00144     0.40405
      H   22    0.18326      0.00000     0.31289    0.00385     0.31674
      H   23    0.09400      0.00000     0.40494    0.00106     0.40600
      H   24    0.10010      0.00000     0.39842    0.00148     0.39990
      H   25    0.11233      0.00000     0.38614    0.00153     0.38767
      H   26    0.11082      0.00000     0.38700    0.00217     0.38918
      H   27    0.24323      0.00000     0.24803    0.00874     0.25677
 =======================================================================
   * Total *    0.00000     11.99613    34.83394    0.16993    47.00000

 Normal termination of Gaussian 16 at Wed Dec  9 18:02:02 2020.
