 Gaussian 16, Revision A.03,

 -----------------------------------------------------------
 # opt freq B3LYP/6-31G(d) empiricaldispersion=gd3bj scf=xqc
 -----------------------------------------------------------

 ------------------------------
 CID_81885095_JID_8988_neutraal
 ------------------------------
 Symbolic Z-matrix:
 Charge =  0 Multiplicity = 1

 SCF Done:  E(RB3LYP) =  -766.983106952     A.U. after   14 cycles
 SCF Done:  E(RB3LYP) =  -766.988640823     A.U. after   14 cycles
 SCF Done:  E(RB3LYP) =  -766.989249706     A.U. after   13 cycles
 SCF Done:  E(RB3LYP) =  -766.990466813     A.U. after   11 cycles
 SCF Done:  E(RB3LYP) =  -766.991055173     A.U. after   12 cycles
 SCF Done:  E(RB3LYP) =  -766.991501458     A.U. after   11 cycles
 SCF Done:  E(RB3LYP) =  -766.991642067     A.U. after   11 cycles
 SCF Done:  E(RB3LYP) =  -766.991686785     A.U. after   10 cycles
 SCF Done:  E(RB3LYP) =  -766.991720004     A.U. after   10 cycles
 SCF Done:  E(RB3LYP) =  -766.991735139     A.U. after   10 cycles
 SCF Done:  E(RB3LYP) =  -766.991748372     A.U. after   10 cycles
 SCF Done:  E(RB3LYP) =  -766.991749142     A.U. after    9 cycles
 SCF Done:  E(RB3LYP) =  -766.991749471     A.U. after    7 cycles
 SCF Done:  E(RB3LYP) =  -766.991749515     A.U. after    7 cycles
 SCF Done:  E(RB3LYP) =  -766.991749528     A.U. after    7 cycles
 Optimization completed.
    -- Stationary point found.
 Normal termination of Gaussian 16 at Fri Dec 11 23:32:00 2020.

 --------------------------------------------------------------------
 #N Geom=AllCheck Guess=TCheck SCRF=Check GenChk RB3LYP/6-31G(d) Freq
 --------------------------------------------------------------------

 Structure from the checkpoint file:  "JID_8988.chk"
 ------------------------------
 CID_81885095_JID_8988_neutraal
 ------------------------------
 Charge =  0 Multiplicity = 1

 SCF Done:  E(RB3LYP) =  -766.991749528     A.U. after    1 cycles

  Exact polarizability: 187.920   4.822 149.352  -3.105  10.577 156.176
 Approx polarizability: 253.205  16.087 209.709  -6.219  23.452 241.545

                      1                      2                      3
                      A                      A                      A
 Frequencies --     12.4469                32.1333                41.8942
 Red. masses --      3.7344                 4.1831                 4.1301
 Frc consts  --      0.0003                 0.0025                 0.0043
 IR Inten    --      0.1985                 0.6598                 1.9542

                      4                      5                      6
                      A                      A                      A
 Frequencies --     67.8881                76.5284                98.9351
 Red. masses --      3.1626                 2.7547                 3.9573
 Frc consts  --      0.0086                 0.0095                 0.0228
 IR Inten    --      0.4457                 0.2954                 0.2865

                      7                      8                      9
                      A                      A                      A
 Frequencies --    122.1199               172.6374               202.4288
 Red. masses --      2.9460                 2.6883                 2.1133
 Frc consts  --      0.0259                 0.0472                 0.0510
 IR Inten    --      1.5759                 0.4977                 1.4701

                     10                     11                     12
                      A                      A                      A
 Frequencies --    223.1791               238.6929               256.0102
 Red. masses --      2.7069                 1.7903                 1.4079
 Frc consts  --      0.0794                 0.0601                 0.0544
 IR Inten    --      0.4295                 0.3319                 0.0811

                     13                     14                     15
                      A                      A                      A
 Frequencies --    262.8189               286.8117               307.3805
 Red. masses --      2.2216                 3.5441                 2.8338
 Frc consts  --      0.0904                 0.1718                 0.1578
 IR Inten    --      0.7947                 5.5429                 0.2654

                     16                     17                     18
                      A                      A                      A
 Frequencies --    349.1149               398.8624               421.2436
 Red. masses --      3.4035                 2.1827                 3.0833
 Frc consts  --      0.2444                 0.2046                 0.3224
 IR Inten    --      3.7305                 2.6340                 1.5246

                     19                     20                     21
                      A                      A                      A
 Frequencies --    462.2734               475.2379               494.2662
 Red. masses --      2.1589                 3.4228                 2.3321
 Frc consts  --      0.2718                 0.4555                 0.3357
 IR Inten    --      3.3170                 1.9038                 0.3692

                     22                     23                     24
                      A                      A                      A
 Frequencies --    549.5784               572.8898               622.1892
 Red. masses --      3.1255                 3.3906                 2.1412
 Frc consts  --      0.5562                 0.6556                 0.4884
 IR Inten    --      0.6656                 2.0051                 1.3803

                     25                     26                     27
                      A                      A                      A
 Frequencies --    631.3546               655.6197               670.9722
 Red. masses --      3.3954                 2.8303                 6.1518
 Frc consts  --      0.7974                 0.7168                 1.6318
 IR Inten    --      5.5430                 3.5800                 2.8415

                     28                     29                     30
                      A                      A                      A
 Frequencies --    747.4345               752.0793               755.3946
 Red. masses --      3.8047                 1.7894                 1.2049
 Frc consts  --      1.2523                 0.5963                 0.4051
 IR Inten    --     10.8910                53.5006                59.1325

                     31                     32                     33
                      A                      A                      A
 Frequencies --    786.8106               827.3412               843.4843
 Red. masses --      1.7329                 1.2721                 2.4003
 Frc consts  --      0.6321                 0.5130                 1.0062
 IR Inten    --     11.8015                 1.3727                 3.8491

                     34                     35                     36
                      A                      A                      A
 Frequencies --    866.0057               875.9018               881.3396
 Red. masses --      1.7494                 2.4150                 1.2995
 Frc consts  --      0.7730                 1.0916                 0.5947
 IR Inten    --     14.6394                 1.0500                 3.3209

                     37                     38                     39
                      A                      A                      A
 Frequencies --    886.0516               898.8427               920.9334
 Red. masses --      1.8743                 1.8680                 1.9834
 Frc consts  --      0.8670                 0.8892                 0.9911
 IR Inten    --      0.9324                 5.3146                 1.5747

                     40                     41                     42
                      A                      A                      A
 Frequencies --    939.3886               943.9662               953.2994
 Red. masses --      2.5212                 5.1902                 1.5878
 Frc consts  --      1.3109                 2.7249                 0.8502
 IR Inten    --      1.7243                 1.5905                 6.5801

                     43                     44                     45
                      A                      A                      A
 Frequencies --    960.2199               992.0094               996.2919
 Red. masses --      2.3632                 2.4792                 1.7571
 Frc consts  --      1.2838                 1.4374                 1.0276
 IR Inten    --      0.3183                16.9742                 0.7975

                     46                     47                     48
                      A                      A                      A
 Frequencies --   1019.0992              1051.3269              1066.4800
 Red. masses --      1.9617                 1.6481                 2.0475
 Frc consts  --      1.2004                 1.0733                 1.3721
 IR Inten    --      3.0260                14.1191                 9.1755

                     49                     50                     51
                      A                      A                      A
 Frequencies --   1071.1331              1076.3225              1093.6887
 Red. masses --      3.1242                 1.4764                 1.6435
 Frc consts  --      2.1119                 1.0077                 1.1583
 IR Inten    --      4.8053                20.7354                12.6830

                     52                     53                     54
                      A                      A                      A
 Frequencies --   1106.6492              1118.2096              1125.1340
 Red. masses --      2.1279                 1.9564                 1.7804
 Frc consts  --      1.5354                 1.4413                 1.3279
 IR Inten    --      2.1690                 3.0874                15.7483

                     55                     56                     57
                      A                      A                      A
 Frequencies --   1137.5187              1147.5591              1161.1112
 Red. masses --      1.9713                 2.4277                 2.3386
 Frc consts  --      1.5029                 1.8836                 1.8576
 IR Inten    --     17.3495                35.2975                16.5293

                     58                     59                     60
                      A                      A                      A
 Frequencies --   1178.7513              1208.0165              1218.1356
 Red. masses --      1.9176                 1.9339                 1.3452
 Frc consts  --      1.5699                 1.6628                 1.1761
 IR Inten    --      5.0945                32.9269                 3.5004

                     61                     62                     63
                      A                      A                      A
 Frequencies --   1231.2749              1240.2023              1249.1445
 Red. masses --      1.6768                 1.5477                 1.6186
 Frc consts  --      1.4978                 1.4026                 1.4880
 IR Inten    --     33.5527                 6.7805                 5.4975

                     64                     65                     66
                      A                      A                      A
 Frequencies --   1260.1283              1268.0826              1293.5844
 Red. masses --      1.6989                 1.7912                 1.1967
 Frc consts  --      1.5895                 1.6970                 1.1798
 IR Inten    --     16.9073                 2.8212                 1.3344

                     67                     68                     69
                      A                      A                      A
 Frequencies --   1303.5881              1311.6729              1314.1767
 Red. masses --      1.4542                 1.8184                 1.3780
 Frc consts  --      1.4560                 1.8433                 1.4022
 IR Inten    --     19.1675                 3.3849                 5.4110

                     70                     71                     72
                      A                      A                      A
 Frequencies --   1333.1672              1345.4303              1348.0464
 Red. masses --      1.5525                 1.3698                 1.7217
 Frc consts  --      1.6257                 1.4610                 1.8434
 IR Inten    --      7.7613                 7.3941                11.2733

                     73                     74                     75
                      A                      A                      A
 Frequencies --   1363.2480              1368.8332              1376.7634
 Red. masses --      1.3729                 1.3514                 1.3787
 Frc consts  --      1.5033                 1.4919                 1.5397
 IR Inten    --     13.4466                13.9725                 4.4375

                     76                     77                     78
                      A                      A                      A
 Frequencies --   1387.0765              1395.3234              1399.3460
 Red. masses --      1.8924                 1.3940                 1.3957
 Frc consts  --      2.1452                 1.5990                 1.6102
 IR Inten    --     20.5778                 6.4933                 2.4614

                     79                     80                     81
                      A                      A                      A
 Frequencies --   1406.5179              1414.8455              1425.7768
 Red. masses --      1.4624                 1.3235                 1.3068
 Frc consts  --      1.7046                 1.5610                 1.5652
 IR Inten    --     24.1865                 6.0245                 5.5230

                     82                     83                     84
                      A                      A                      A
 Frequencies --   1434.6982              1440.0887              1447.6941
 Red. masses --      1.4477                 1.3003                 3.8870
 Frc consts  --      1.7556                 1.5889                 4.7997
 IR Inten    --      9.3440                 7.4322                27.6074

                     85                     86                     87
                      A                      A                      A
 Frequencies --   1496.7221              1509.1978              1511.1124
 Red. masses --      3.3926                 1.1263                 1.0850
 Frc consts  --      4.4778                 1.5115                 1.4598
 IR Inten    --      5.3898                 8.0043                 6.7689

                     88                     89                     90
                      A                      A                      A
 Frequencies --   1515.2562              1515.9984              1524.4674
 Red. masses --      1.0926                 1.0659                 1.0882
 Frc consts  --      1.4780                 1.4433                 1.4901
 IR Inten    --      4.1855                 5.0842                 3.1006

                     91                     92                     93
                      A                      A                      A
 Frequencies --   1529.2717              1529.9325              1541.6071
 Red. masses --      1.0888                 1.0561                 1.1010
 Frc consts  --      1.5002                 1.4564                 1.5417
 IR Inten    --      1.8502                 9.1558                 3.8106

                     94                     95                     96
                      A                      A                      A
 Frequencies --   1552.8404              1557.4635              1569.4033
 Red. masses --      1.1095                 1.1956                 3.9298
 Frc consts  --      1.5762                 1.7087                 5.7029
 IR Inten    --      2.1974                54.1554                18.0165

                     97                     98                     99
                      A                      A                      A
 Frequencies --   2905.3962              2921.5890              2951.6657
 Red. masses --      1.0741                 1.0744                 1.0819
 Frc consts  --      5.3420                 5.4031                 5.5535
 IR Inten    --     43.2549               100.0536                37.2617

                    100                    101                    102
                      A                      A                      A
 Frequencies --   3034.0427              3038.3044              3040.4938
 Red. masses --      1.0603                 1.0842                 1.0842
 Frc consts  --      5.7508                 5.8968                 5.9054
 IR Inten    --     43.0912                14.8687                27.1431

                    103                    104                    105
                      A                      A                      A
 Frequencies --   3047.4969              3048.6264              3053.6600
 Red. masses --      1.0681                 1.0395                 1.0848
 Frc consts  --      5.8444                 5.6921                 5.9598
 IR Inten    --     35.2691                25.1242                29.4252

                    106                    107                    108
                      A                      A                      A
 Frequencies --   3056.8897              3068.9410              3070.5683
 Red. masses --      1.0632                 1.0843                 1.0992
 Frc consts  --      5.8538                 6.0169                 6.1058
 IR Inten    --     31.1139                37.4303                41.5270

                    109                    110                    111
                      A                      A                      A
 Frequencies --   3085.4854              3089.0280              3090.8194
 Red. masses --      1.0691                 1.0674                 1.0984
 Frc consts  --      5.9965                 6.0009                 6.1824
 IR Inten    --     65.8648                23.9459                61.3284

                    112                    113                    114
                      A                      A                      A
 Frequencies --   3101.6124              3114.9451              3135.5868
 Red. masses --      1.1046                 1.0990                 1.1038
 Frc consts  --      6.2610                 6.2830                 6.3940
 IR Inten    --     74.4084                36.3465                25.3748

                    115                    116                    117
                      A                      A                      A
 Frequencies --   3146.4875              3162.1413              3258.1718
 Red. masses --      1.1012                 1.0977                 1.0929
 Frc consts  --      6.4233                 6.4669                 6.8359
 IR Inten    --     23.1421                12.8181                 4.9273

                    118                    119                    120
                      A                      A                      A
 Frequencies --   3272.4891              3290.6934              3484.7813
 Red. masses --      1.0931                 1.1062                 1.0733
 Frc consts  --      6.8969                 7.0573                 7.6790
 IR Inten    --      3.0840                 2.4941                16.9376

 - Thermochemistry -
 -------------------
 Temperature   298.150 Kelvin.  Pressure   1.00000 Atm.
 Atom     1 has atomic number  6 and mass  12.00000

 Molecular mass:   248.20010 amu.
 Principal axes and moments of inertia in atomic units:
                           1         2         3
     Eigenvalues --  2791.456046629.452877287.50579
           X            0.99979  -0.02031  -0.00289
           Y            0.02031   0.99979   0.00261
           Z            0.00284  -0.00267   0.99999
 This molecule is an asymmetric top.
 Rotational symmetry number  1.
 Warning -- assumption of classical behavior for rotation
           may cause significant error
 Rotational temperatures (Kelvin)      0.03103     0.01307     0.01189
 Rotational constants (GHZ):           0.64652     0.27223     0.24765
 Zero-point vibrational energy     995851.3 (Joules/Mol)
                                  238.01417 (Kcal/Mol)
 Warning -- explicit consideration of  23 degrees of freedom as
           vibrations may cause significant error
 Vibrational temperatures:     17.91    46.23    60.28    97.68   110.11
          (Kelvin)            142.35   175.70   248.39   291.25   321.10
                              343.43   368.34   378.14   412.66   442.25
                              502.30   573.87   606.08   665.11   683.76
                              711.14   790.72   824.26   895.19   908.38
                              943.29   965.38  1075.39  1082.07  1086.84
                             1132.05  1190.36  1213.59  1245.99  1260.23
                             1268.05  1274.83  1293.23  1325.02  1351.57
                             1358.16  1371.59  1381.54  1427.28  1433.44
                             1466.26  1512.62  1534.43  1541.12  1548.59
                             1573.57  1592.22  1608.85  1618.82  1636.64
                             1651.08  1670.58  1695.96  1738.07  1752.63
                             1771.53  1784.37  1797.24  1813.04  1824.49
                             1861.18  1875.57  1887.20  1890.81  1918.13
                             1935.77  1939.54  1961.41  1969.45  1980.86
                             1995.69  2007.56  2013.35  2023.67  2035.65
                             2051.37  2064.21  2071.97  2082.91  2153.45
                             2171.40  2174.15  2180.12  2181.18  2193.37
                             2200.28  2201.23  2218.03  2234.19  2240.84
                             2258.02  4180.22  4203.51  4246.79  4365.31
                             4371.44  4374.59  4384.67  4386.29  4393.54
                             4398.18  4415.52  4417.86  4439.33  4444.42
                             4447.00  4462.53  4481.71  4511.41  4527.09
                             4549.62  4687.78  4708.38  4734.57  5013.82

 Zero-point correction=                           0.379300 (Hartree/Particle)
 Thermal correction to Energy=                    0.396098
 Thermal correction to Enthalpy=                  0.397042
 Thermal correction to Gibbs Free Energy=         0.332661
 Sum of electronic and zero-point Energies=           -766.612450
 Sum of electronic and thermal Energies=              -766.595652
 Sum of electronic and thermal Enthalpies=            -766.594707
 Sum of electronic and thermal Free Energies=         -766.659088

                     E (Thermal)             CV                S
                      KCal/Mol        Cal/Mol-Kelvin    Cal/Mol-Kelvin
 Total                  248.555             65.839            135.501
 Electronic               0.000              0.000              0.000
 Translational            0.889              2.981             42.428
 Rotational               0.889              2.981             33.266
 Vibrational            246.778             59.878             59.807
 Vibration     1          0.593              1.987              7.576
 Vibration     2          0.594              1.983              5.693
 Vibration     3          0.595              1.980              5.167
 Vibration     4          0.598              1.970              4.214
 Vibration     5          0.599              1.965              3.978
 Vibration     6          0.604              1.950              3.475
 Vibration     7          0.610              1.931              3.067
 Vibration     8          0.626              1.876              2.407
 Vibration     9          0.639              1.836              2.111
 Vibration    10          0.649              1.806              1.933
 Vibration    11          0.657              1.781              1.813
 Vibration    12          0.666              1.753              1.689
 Vibration    13          0.670              1.741              1.643
 Vibration    14          0.684              1.698              1.493
 Vibration    15          0.697              1.660              1.376
 Vibration    16          0.726              1.577              1.170
 Vibration    17          0.765              1.473              0.967
 Vibration    18          0.784              1.424              0.888
 Vibration    19          0.820              1.334              0.760
 Vibration    20          0.832              1.305              0.723
 Vibration    21          0.850              1.263              0.673
 Vibration    22          0.905              1.141              0.545
 Vibration    23          0.929              1.090              0.499

 Optimization completed.
    -- Stationary point found.
 Normal termination of Gaussian 16 at Fri Dec 11 23:55:54 2020.

 ----------------------------------------------------------------------
 # B3LYP/6-311++G(d,p) empiricaldispersion=gd3bj scf=xqc pop=npa geom=c
 heck
 ----------------------------------------------------------------------

 --------------------------------------
 CID_81885095_JID_8988_Energie_neutraal
 --------------------------------------
 Structure from the checkpoint file:  "JID_8988.chk"
 Charge =  0 Multiplicity = 1

 SCF Done:  E(RB3LYP) =  -767.197855953     A.U. after   15 cycles
 Normal termination of Gaussian 16 at Sat Dec 12 00:07:09 2020.

 ----------------------------------------------------------------------
 # B3LYP/6-311++G(d,p) empiricaldispersion=gd3bj scf=xqc pop=npa geom=c
 heck
 ----------------------------------------------------------------------

 ------------------------------------
 CID_81885095_JID_8988_Energie_kation
 ------------------------------------
 Structure from the checkpoint file:  "JID_8988.chk"
 Charge =  1 Multiplicity = 2

 SCF Done:  E(UB3LYP) =  -766.929146648     A.U. after   26 cycles
 Normal termination of Gaussian 16 at Sat Dec 12 00:34:35 2020.
 Gaussian 16:  ES64L-G16RevA.03 25-Dec-2016

 ----------------------------------------------------------------------
 # B3LYP/6-311++G(d,p) empiricaldispersion=gd3bj scf=xqc pop=npa geom=c
 heck
 ----------------------------------------------------------------------

 -----------------------------------
 CID_81885095_JID_8988_Energie_anion
 -----------------------------------
 Structure from the checkpoint file:  "JID_8988.chk"
 Charge = -1 Multiplicity = 2

                         Standard orientation:
 ---------------------------------------------------------------------
 Center     Atomic      Atomic             Coordinates (Angstroms)
 Number     Number       Type             X           Y           Z
 ---------------------------------------------------------------------
      1          6           0       -2.757012    2.269249    0.539108
      2          6           0       -1.438194    1.550932    0.845972
      3          6           0       -1.712115    0.115081    1.365632
      4          7           0       -2.436575   -0.701650    0.403960
      5          6           0       -3.749001   -1.051983    0.427287
      6          6           0       -4.005801   -1.739441   -0.745488
      7          6           0       -2.770546   -1.745974   -1.425161
      8          7           0       -1.820211   -1.115109   -0.730701
      9          7           0       -0.564530    1.639769   -0.318289
     10          6           0        0.879319    1.586909   -0.101668
     11          6           0        1.630179    2.017280   -1.393590
     12          6           0        2.268122    0.726255   -1.910465
     13          7           0        2.640273    0.056577   -0.677545
     14          6           0        1.500812    0.190566    0.237405
     15          6           0        2.014502   -0.008019    1.675885
     16          6           0        3.227730   -0.965613    1.695542
     17          6           0        3.106591   -2.007635    0.576962
     18          6           0        3.097379   -1.319915   -0.807684
     19          1           0       -3.267767    1.791688   -0.304297
     20          1           0       -2.554865    3.307780    0.266056
     21          1           0       -3.436996    2.253272    1.399962
     22          1           0       -0.934025    2.076038    1.668871
     23          1           0       -0.779748   -0.395916    1.607139
     24          1           0       -2.323196    0.155007    2.272791
     25          1           0       -4.381840   -0.792996    1.263746
     26          1           0       -4.943019   -2.176910   -1.056192
     27          1           0       -2.526941   -2.186133   -2.383077
     28          1           0       -0.845614    0.938685   -1.003277
     29          1           0        1.096719    2.291813    0.709347
     30          1           0        2.414674    2.739836   -1.148839
     31          1           0        0.941894    2.484363   -2.101995
     32          1           0        3.146097    0.892759   -2.545844
     33          1           0        1.536953    0.134204   -2.499470
     34          1           0        0.737804   -0.573145    0.000727
     35          1           0        1.211565   -0.406501    2.309818
     36          1           0        2.303343    0.959450    2.105123
     37          1           0        3.310781   -1.456475    2.672246
     38          1           0        4.147518   -0.389571    1.546721
     39          1           0        3.923386   -2.736058    0.628267
     40          1           0        2.175720   -2.572424    0.715204
     41          1           0        4.107180   -1.306449   -1.238898
     42          1           0        2.455877   -1.895565   -1.504523
 ---------------------------------------------------------------------

 SCF Done:  E(UB3LYP) =  -767.184463583     A.U. after   33 cycles
 SCF Done:  E(UB3LYP) =  -767.184463583     a.u. after    1 cycles

 The electronic state is 2-A.
 Alpha  occ. eigenvalues --  -14.29788 -14.23740 -14.20570 -14.19487 -10.11461
 Alpha  occ. eigenvalues --  -10.11286 -10.11016 -10.10452 -10.10087 -10.10030
 Alpha  occ. eigenvalues --  -10.10001 -10.09423 -10.07598 -10.07470 -10.07337
 Alpha  occ. eigenvalues --  -10.07116 -10.06931 -10.06081  -0.95944  -0.85056
 Alpha  occ. eigenvalues --   -0.81174  -0.75246  -0.71175  -0.69583  -0.68356
 Alpha  occ. eigenvalues --   -0.65148  -0.63747  -0.60038  -0.58728  -0.53441
 Alpha  occ. eigenvalues --   -0.51688  -0.51329  -0.50751  -0.49125  -0.46871
 Alpha  occ. eigenvalues --   -0.44039  -0.43350  -0.41680  -0.39868  -0.39271
 Alpha  occ. eigenvalues --   -0.37997  -0.36841  -0.35803  -0.34824  -0.33639
 Alpha  occ. eigenvalues --   -0.33470  -0.32978  -0.32105  -0.31581  -0.30735
 Alpha  occ. eigenvalues --   -0.30342  -0.29552  -0.29477  -0.28610  -0.26860
 Alpha  occ. eigenvalues --   -0.26464  -0.25721  -0.25366  -0.24561  -0.23964
 Alpha  occ. eigenvalues --   -0.23035  -0.22760  -0.21957  -0.20683  -0.16895
 Alpha  occ. eigenvalues --   -0.16035  -0.12528  -0.12074   0.04234
 Alpha virt. eigenvalues --    0.05796   0.06574   0.06966   0.07717   0.07990
 Alpha virt. eigenvalues --    0.08330   0.08738   0.09168   0.09677   0.09759
 Alpha virt. eigenvalues --    0.10280   0.10491   0.10913   0.11711   0.11950

  Beta  occ. eigenvalues --  -14.29785 -14.23729 -14.20564 -14.19486 -10.11434
  Beta  occ. eigenvalues --  -10.11254 -10.11007 -10.10445 -10.10083 -10.10025
  Beta  occ. eigenvalues --  -10.09994 -10.09421 -10.07592 -10.07457 -10.07334
  Beta  occ. eigenvalues --  -10.07104 -10.06916 -10.06058  -0.95925  -0.85046
  Beta  occ. eigenvalues --   -0.81162  -0.75222  -0.71155  -0.69549  -0.68335
  Beta  occ. eigenvalues --   -0.65123  -0.63730  -0.59997  -0.58703  -0.53410
  Beta  occ. eigenvalues --   -0.51663  -0.51297  -0.50725  -0.49110  -0.46814
  Beta  occ. eigenvalues --   -0.43999  -0.43295  -0.41656  -0.39847  -0.39243
  Beta  occ. eigenvalues --   -0.37974  -0.36818  -0.35769  -0.34801  -0.33616
  Beta  occ. eigenvalues --   -0.33443  -0.32954  -0.32053  -0.31558  -0.30709
  Beta  occ. eigenvalues --   -0.30319  -0.29522  -0.29450  -0.28585  -0.26841
  Beta  occ. eigenvalues --   -0.26441  -0.25694  -0.25349  -0.24542  -0.23945
  Beta  occ. eigenvalues --   -0.23015  -0.22740  -0.21932  -0.20665  -0.16857
  Beta  occ. eigenvalues --   -0.15997  -0.12514  -0.12056
  Beta virt. eigenvalues --    0.06070   0.06759   0.07152   0.07205   0.08204
  Beta virt. eigenvalues --    0.08387   0.08641   0.09050   0.09351   0.09691
  Beta virt. eigenvalues --    0.10218   0.10629   0.10778   0.11278   0.11903

 Mulliken charges and spin densities:
               1          2
     1  C    0.418230  -1.014524
     2  C   -0.757153   0.837733
     3  C    0.471512  -1.023826
     4  N    0.366118  -0.025670
     5  C    0.539907  -0.903657
     6  C    0.057749   0.066298
     7  C    0.297963  -0.598246
     8  N   -0.426140   0.181810
     9  N    0.346014  -0.051141
    10  C   -0.598613  -0.221228
    11  C   -0.196064  -0.283591
    12  C   -0.124267   0.058068
    13  N    0.264296   0.037064
    14  C   -0.433805   0.150734
    15  C    0.020215  -0.314043
    16  C   -0.037881  -0.464318
    17  C   -0.464748   0.024087
    18  C    0.271317  -0.331004
    19  H    0.156591  -0.010034
    20  H   -0.044490   0.207398
    21  H   -0.074918   0.231670
    22  H   -0.299668   0.469011
    23  H    0.256262  -0.111283
    24  H   -1.122920   1.365990
    25  H   -0.723037   0.879861
    26  H   -0.286414   0.466375
    27  H    0.094488   0.026226
    28  H    0.223102   0.005595
    29  H    0.096318   0.064496
    30  H    0.045636   0.087168
    31  H    0.147705  -0.000701
    32  H    0.059270   0.118785
    33  H    0.066985   0.025563
    34  H    0.882542  -0.613402
    35  H   -0.017731   0.145167
    36  H   -0.000353   0.153048
    37  H   -0.244331   0.416812
    38  H    0.130560   0.007426
    39  H   -0.299285   0.489252
    40  H   -0.041107   0.182550
    41  H   -0.113846   0.265166
    42  H    0.093994   0.003315
 Sum of Mulliken charges =  -1.00000   1.00000

 Dipole moment (field-independent basis, Debye):
    X=              4.1152    Y=              0.8475    Z=             -6.4615  Tot=              7.7074
 Quadrupole moment (field-independent basis, Debye-Ang):
   XX=           -201.4829   YY=           -154.5143   ZZ=           -161.2039
   XY=              7.0319   XZ=             13.6742   YZ=              0.7658

 Summary of Natural Population Analysis:

                                       Natural Population
                Natural  -----------------------------------------------
    Atom  No    Charge         Core      Valence    Rydberg      Total
 -----------------------------------------------------------------------
      C    1   -0.28651      0.99964     2.28060    0.00626     3.28651
      C    2   -0.01412      0.99960     2.00135    0.01317     3.01412
      C    3   -0.09036      0.99957     2.07702    0.01377     3.09036
      N    4   -0.10852      0.99966     2.59337    0.01549     3.60852
      C    5    0.00246      0.99955     1.98597    0.01203     2.99754
      C    6   -0.16896      0.99956     2.16033    0.00907     3.16896
      C    7   -0.01405      0.99962     2.00124    0.01319     3.01405
      N    8   -0.16517      0.99973     2.65382    0.01162     3.66517
      N    9   -0.35068      0.99972     2.83957    0.01139     3.85068
      C   10   -0.00403      0.99957     1.99047    0.01399     3.00403
      C   11   -0.19235      0.99961     2.18485    0.00789     3.19235
      C   12   -0.08096      0.99963     2.07269    0.00864     3.08096
      N   13   -0.28488      0.99969     2.77492    0.01027     3.78488
      C   14   -0.02355      0.99958     2.01139    0.01258     3.02355
      C   15   -0.18848      0.99961     2.17966    0.00922     3.18848
      C   16   -0.18831      0.99963     2.18021    0.00847     3.18831
      C   17   -0.19685      0.99963     2.18940    0.00783     3.19685
      C   18   -0.07810      0.99963     2.06741    0.01106     3.07810
      H   19    0.09922      0.00000     0.39954    0.00124     0.40078
      H   20    0.10292      0.00000     0.39605    0.00103     0.39708
      H   21    0.10064      0.00000     0.39813    0.00124     0.39936
      H   22    0.09630      0.00000     0.40160    0.00210     0.40370
      H   23    0.10474      0.00000     0.39281    0.00245     0.39526
      H   24    0.10914      0.00000     0.38707    0.00378     0.39086
      H   25    0.11117      0.00000     0.38569    0.00314     0.38883
      H   26    0.10866      0.00000     0.39060    0.00075     0.39134
      H   27    0.09631      0.00000     0.40293    0.00075     0.40369
      H   28    0.18541      0.00000     0.31136    0.00322     0.31459
      H   29    0.09321      0.00000     0.40488    0.00192     0.40679
      H   30    0.09909      0.00000     0.39983    0.00108     0.40091
      H   31    0.10435      0.00000     0.39464    0.00101     0.39565
      H   32    0.09300      0.00000     0.40580    0.00120     0.40700
      H   33    0.07829      0.00000     0.42016    0.00155     0.42171
      H   34    0.09333      0.00000     0.40345    0.00323     0.40667
      H   35    0.09558      0.00000     0.40301    0.00141     0.40442
      H   36    0.09692      0.00000     0.40172    0.00136     0.40308
      H   37    0.09974      0.00000     0.39927    0.00100     0.40026
      H   38    0.09640      0.00000     0.40229    0.00131     0.40360
      H   39    0.10061      0.00000     0.39835    0.00104     0.39939
      H   40    0.09587      0.00000     0.40282    0.00131     0.40413
      H   41    0.09082      0.00000     0.40799    0.00119     0.40918
      H   42    0.08173      0.00000     0.41706    0.00121     0.41827
 =======================================================================
   * Total *   -0.00000     17.99325    49.77131    0.23545    68.00000

 Normal termination of Gaussian 16 at Sat Dec 12 01:09:16 2020.
