 Gaussian 16, Revision A.03,

 -----------------------------------------------------------
 # opt freq B3LYP/6-31G(d) empiricaldispersion=gd3bj scf=xqc
 -----------------------------------------------------------

 ------------------------------
 CID_82406736_JID_3562_neutraal
 ------------------------------
 Symbolic Z-matrix:
 Charge =  0 Multiplicity = 1

 SCF Done:  E(RB3LYP) =  -643.399085880     A.U. after   15 cycles
 SCF Done:  E(RB3LYP) =  -643.402222400     A.U. after   12 cycles
 SCF Done:  E(RB3LYP) =  -643.402912612     A.U. after   12 cycles
 SCF Done:  E(RB3LYP) =  -643.403252014     A.U. after   12 cycles
 SCF Done:  E(RB3LYP) =  -643.403407128     A.U. after   12 cycles
 SCF Done:  E(RB3LYP) =  -643.403534060     A.U. after   11 cycles
 SCF Done:  E(RB3LYP) =  -643.403658341     A.U. after   12 cycles
 SCF Done:  E(RB3LYP) =  -643.403692673     A.U. after   11 cycles
 SCF Done:  E(RB3LYP) =  -643.403708190     A.U. after   10 cycles
 SCF Done:  E(RB3LYP) =  -643.403715800     A.U. after   10 cycles
 SCF Done:  E(RB3LYP) =  -643.403770660     A.U. after   10 cycles
 SCF Done:  E(RB3LYP) =  -643.403773295     A.U. after   11 cycles
 SCF Done:  E(RB3LYP) =  -643.403774482     A.U. after   10 cycles
 SCF Done:  E(RB3LYP) =  -643.403774652     A.U. after    8 cycles
 SCF Done:  E(RB3LYP) =  -643.403774678     A.U. after    7 cycles
 Optimization completed.
    -- Stationary point found.
 Normal termination of Gaussian 16 at Wed Dec  9 23:50:41 2020.

 --------------------------------------------------------------------
 #N Geom=AllCheck Guess=TCheck SCRF=Check GenChk RB3LYP/6-31G(d) Freq
 --------------------------------------------------------------------

 Structure from the checkpoint file:  "JID_3562.chk"
 ------------------------------
 CID_82406736_JID_3562_neutraal
 ------------------------------
 Charge =  0 Multiplicity = 1

 SCF Done:  E(RB3LYP) =  -643.403774678     A.U. after    1 cycles

  Exact polarizability: 133.337  -4.653 103.197  -2.364  -7.112  69.521
 Approx polarizability: 180.997  -0.140 171.635  -6.835 -18.244  99.586

                      1                      2                      3
                      A                      A                      A
 Frequencies --     11.0715                47.9878                59.8031
 Red. masses --      3.8418                 3.6938                 1.1994
 Frc consts  --      0.0003                 0.0050                 0.0025
 IR Inten    --      5.1601                 2.2516                 1.1594

                      4                      5                      6
                      A                      A                      A
 Frequencies --     69.5562               115.5885               138.7895
 Red. masses --      5.9024                 4.5108                 3.1402
 Frc consts  --      0.0168                 0.0355                 0.0356
 IR Inten    --      0.9012                 4.9707                 1.3307

                      7                      8                      9
                      A                      A                      A
 Frequencies --    197.4968               217.4577               246.6027
 Red. masses --      3.5102                 2.0406                 1.7989
 Frc consts  --      0.0807                 0.0569                 0.0645
 IR Inten    --      2.0613                 1.5330                 0.5038

                     10                     11                     12
                      A                      A                      A
 Frequencies --    255.3495               300.8642               369.9934
 Red. masses --      2.6821                 5.9567                 4.3298
 Frc consts  --      0.1030                 0.3177                 0.3492
 IR Inten    --      5.0859                 2.1348                20.0066

                     13                     14                     15
                      A                      A                      A
 Frequencies --    397.8583               420.2118               435.7512
 Red. masses --      3.7355                 2.2411                 1.4052
 Frc consts  --      0.3484                 0.2332                 0.1572
 IR Inten    --     18.0307                20.3592                16.1549

                     16                     17                     18
                      A                      A                      A
 Frequencies --    452.1330               496.9286               530.1359
 Red. masses --      1.1009                 3.8969                 2.6620
 Frc consts  --      0.1326                 0.5670                 0.4408
 IR Inten    --     98.3678                 2.6773                74.3324

                     19                     20                     21
                      A                      A                      A
 Frequencies --    603.0391               640.5765               658.5147
 Red. masses --      1.6693                 4.8520                 4.4313
 Frc consts  --      0.3577                 1.1730                 1.1322
 IR Inten    --    128.1498                 0.5460                 8.1610

                     22                     23                     24
                      A                      A                      A
 Frequencies --    677.0291               692.5138               753.9949
 Red. masses --      3.6019                 2.9532                 4.3020
 Frc consts  --      0.9727                 0.8345                 1.4410
 IR Inten    --     22.6245                16.8136                15.9682

                     25                     26                     27
                      A                      A                      A
 Frequencies --    780.6654               792.9697               825.6472
 Red. masses --      4.2231                 3.9046                 1.3279
 Frc consts  --      1.5164                 1.4466                 0.5333
 IR Inten    --     53.1383                20.4526                 6.6473

                     28                     29                     30
                      A                      A                      A
 Frequencies --    862.5573               961.6681              1011.0636
 Red. masses --      1.3814                 2.4350                 3.6578
 Frc consts  --      0.6056                 1.3268                 2.2031
 IR Inten    --     13.9942                18.3032                37.6994

                     31                     32                     33
                      A                      A                      A
 Frequencies --   1034.8289              1074.9449              1081.3178
 Red. masses --      2.8730                 2.9382                 2.4731
 Frc consts  --      1.8127                 2.0003                 1.7037
 IR Inten    --     18.8883                 3.3377                17.5199

                     34                     35                     36
                      A                      A                      A
 Frequencies --   1084.4043              1112.1794              1134.7728
 Red. masses --      1.5798                 1.9617                 2.2870
 Frc consts  --      1.0946                 1.4297                 1.7351
 IR Inten    --     33.3857                42.7207                24.3618

                     37                     38                     39
                      A                      A                      A
 Frequencies --   1159.9025              1169.7089              1205.1205
 Red. masses --      1.3233                 2.4383                 1.9455
 Frc consts  --      1.0489                 1.9656                 1.6647
 IR Inten    --      8.4741                 9.8904                77.3300

                     40                     41                     42
                      A                      A                      A
 Frequencies --   1231.3095              1322.2733              1349.6810
 Red. masses --      1.5000                 1.6494                 3.6707
 Frc consts  --      1.3399                 1.6991                 3.9397
 IR Inten    --      6.7187                20.1493                 1.8008

                     43                     44                     45
                      A                      A                      A
 Frequencies --   1374.8094              1419.4172              1424.6609
 Red. masses --      1.5772                 1.6753                 4.3840
 Frc consts  --      1.7564                 1.9887                 5.2426
 IR Inten    --      0.2508                88.8752                61.5811

                     46                     47                     48
                      A                      A                      A
 Frequencies --   1432.2568              1450.8241              1470.6022
 Red. masses --      1.7755                 2.8966                 1.6840
 Frc consts  --      2.1459                 3.5923                 2.1458
 IR Inten    --    174.0931                53.4822                14.2320

                     49                     50                     51
                      A                      A                      A
 Frequencies --   1493.0854              1509.3077              1517.6206
 Red. masses --      1.9931                 1.0599                 1.2318
 Frc consts  --      2.6179                 1.4225                 1.6715
 IR Inten    --      8.5335                10.9156                68.8859

                     52                     53                     54
                      A                      A                      A
 Frequencies --   1518.9318              1529.3810              1546.7940
 Red. masses --      1.1205                 1.0921                 1.2005
 Frc consts  --      1.5231                 1.5050                 1.6924
 IR Inten    --     42.4961                 5.2037                 4.9665

                     55                     56                     57
                      A                      A                      A
 Frequencies --   1620.0328              1651.6629              1780.5817
 Red. masses --      5.1893                 1.2185                 6.0268
 Frc consts  --      8.0243                 1.9584                11.2580
 IR Inten    --     19.3416               135.1464               253.8567

                     58                     59                     60
                      A                      A                      A
 Frequencies --   3061.6003              3066.8786              3091.8125
 Red. masses --      1.0376                 1.0369                 1.0833
 Frc consts  --      5.7305                 5.7463                 6.1015
 IR Inten    --     21.6973                50.4084                13.6395

                     61                     62                     63
                      A                      A                      A
 Frequencies --   3131.6283              3139.2053              3164.4464
 Red. masses --      1.1017                 1.0996                 1.1012
 Frc consts  --      6.3656                 6.3847                 6.4973
 IR Inten    --     28.1708                15.6031                10.2972

                     64                     65                     66
                      A                      A                      A
 Frequencies --   3170.7438              3242.3578              3301.5939
 Red. masses --      1.1058                 1.0956                 1.0982
 Frc consts  --      6.5502                 6.7862                 7.0528
 IR Inten    --      8.3616                 8.2559                 1.5981

                     67                     68                     69
                      A                      A                      A
 Frequencies --   3471.7341              3571.0204              3679.5369
 Red. masses --      1.0646                 1.0472                 1.1005
 Frc consts  --      7.5603                 7.8678                 8.7784
 IR Inten    --    122.7597                39.4410                32.5296

 - Thermochemistry -
 -------------------
 Temperature   298.150 Kelvin.  Pressure   1.00000 Atm.
 Atom     1 has atomic number  6 and mass  12.00000

 Molecular mass:   184.09603 amu.
 Principal axes and moments of inertia in atomic units:
                           1         2         3
     Eigenvalues --  1007.171544293.323524645.05292
           X            0.99969  -0.02486  -0.00193
           Y            0.02489   0.99954   0.01721
           Z            0.00150  -0.01725   0.99985
 This molecule is an asymmetric top.
 Rotational symmetry number  1.
 Warning -- assumption of classical behavior for rotation
           may cause significant error
 Rotational temperatures (Kelvin)      0.08600     0.02017     0.01865
 Rotational constants (GHZ):           1.79189     0.42036     0.38853
 Zero-point vibrational energy     537223.7 (Joules/Mol)
                                  128.39955 (Kcal/Mol)
 Warning -- explicit consideration of  19 degrees of freedom as
           vibrations may cause significant error
 Vibrational temperatures:     15.93    69.04    86.04   100.08   166.31
          (Kelvin)            199.69   284.15   312.87   354.81   367.39
                              432.88   532.34   572.43   604.59   626.95
                              650.52   714.97   762.75   867.64   921.65
                              947.46   974.09   996.37  1084.83  1123.20
                             1140.91  1187.92  1241.03  1383.63  1454.70
                             1488.89  1546.61  1555.78  1560.22  1600.18
                             1632.68  1668.84  1682.95  1733.90  1771.58
                             1902.46  1941.89  1978.04  2042.22  2049.77
                             2060.70  2087.41  2115.87  2148.22  2171.56
                             2183.52  2185.40  2200.44  2225.49  2330.87
                             2376.37  2561.86  4404.96  4412.55  4448.43
                             4505.71  4516.62  4552.93  4561.99  4665.03
                             4750.26  4995.05  5137.90  5294.03

 Zero-point correction=                           0.204618 (Hartree/Particle)
 Thermal correction to Energy=                    0.218039
 Thermal correction to Enthalpy=                  0.218983
 Thermal correction to Gibbs Free Energy=         0.162476
 Sum of electronic and zero-point Energies=           -643.199157
 Sum of electronic and thermal Energies=              -643.185736
 Sum of electronic and thermal Enthalpies=            -643.184792
 Sum of electronic and thermal Free Energies=         -643.241298

                     E (Thermal)             CV                S
                      KCal/Mol        Cal/Mol-Kelvin    Cal/Mol-Kelvin
 Total                  136.821             48.802            118.929
 Electronic               0.000              0.000              0.000
 Translational            0.889              2.981             41.537
 Rotational               0.889              2.981             31.374
 Vibrational            135.044             42.840             46.017
 Vibration     1          0.593              1.987              7.809
 Vibration     2          0.595              1.978              4.899
 Vibration     3          0.597              1.973              4.464
 Vibration     4          0.598              1.969              4.166
 Vibration     5          0.608              1.936              3.173
 Vibration     6          0.614              1.915              2.820
 Vibration     7          0.637              1.843              2.156
 Vibration     8          0.646              1.814              1.980
 Vibration     9          0.661              1.768              1.755
 Vibration    10          0.666              1.754              1.693
 Vibration    11          0.693              1.672              1.412
 Vibration    12          0.742              1.534              1.080
 Vibration    13          0.764              1.475              0.971
 Vibration    14          0.783              1.426              0.891
 Vibration    15          0.796              1.392              0.840
 Vibration    16          0.811              1.356              0.789
 Vibration    17          0.852              1.257              0.666
 Vibration    18          0.885              1.183              0.587
 Vibration    19          0.961              1.025              0.444

                           ! Non-Optimized Parameters !
 Normal termination of Gaussian 16 at Wed Dec  9 23:56:57 2020.

 ----------------------------------------------------------------------
 # B3LYP/6-311++G(d,p) empiricaldispersion=gd3bj scf=xqc pop=npa geom=c
 heck
 ----------------------------------------------------------------------

 --------------------------------------
 CID_82406736_JID_3562_Energie_neutraal
 --------------------------------------
 Structure from the checkpoint file:  "JID_3562.chk"
 Charge =  0 Multiplicity = 1

 SCF Done:  E(RB3LYP) =  -643.602442846     A.U. after   15 cycles
 Normal termination of Gaussian 16 at Wed Dec  9 23:59:47 2020.

 ----------------------------------------------------------------------
 # B3LYP/6-311++G(d,p) empiricaldispersion=gd3bj scf=xqc pop=npa geom=c
 heck
 ----------------------------------------------------------------------

 ------------------------------------
 CID_82406736_JID_3562_Energie_kation
 ------------------------------------
 Structure from the checkpoint file:  "JID_3562.chk"
 Charge =  1 Multiplicity = 2

 SCF Done:  E(UB3LYP) =  -643.292310195     A.U. after   31 cycles
 Normal termination of Gaussian 16 at Thu Dec 10 00:07:58 2020.
 Gaussian 16:  ES64L-G16RevA.03 25-Dec-2016

 ----------------------------------------------------------------------
 # B3LYP/6-311++G(d,p) empiricaldispersion=gd3bj scf=xqc pop=npa geom=c
 heck
 ----------------------------------------------------------------------

 -----------------------------------
 CID_82406736_JID_3562_Energie_anion
 -----------------------------------
 Structure from the checkpoint file:  "JID_3562.chk"
 Charge = -1 Multiplicity = 2

                         Standard orientation:
 ---------------------------------------------------------------------
 Center     Atomic      Atomic             Coordinates (Angstroms)
 Number     Number       Type             X           Y           Z
 ---------------------------------------------------------------------
      1          6           0       -0.913144    1.026137    1.773320
      2          6           0       -0.596253    0.749586    0.295500
      3          6           0        0.869280    0.533543    0.044472
      4          6           0        1.590676   -0.649041    0.062121
      5          7           0        2.889540   -0.320811   -0.165875
      6          7           0        3.068110    1.008448   -0.335944
      7          6           0        1.846072    1.526236   -0.204130
      8          6           0        4.014959   -1.218154   -0.328845
      9          7           0       -1.393113   -0.383431   -0.228893
     10          6           0       -2.756248   -0.221980   -0.467154
     11          8           0       -3.570762   -1.061740   -0.084974
     12          7           0       -3.111867    0.921267   -1.152305
     13          8           0       -1.166362   -1.549314    0.553473
     14          1           0       -0.653018    0.156854    2.380456
     15          1           0       -1.977681    1.250837    1.904806
     16          1           0       -0.328911    1.882667    2.122618
     17          1           0       -0.914877    1.617011   -0.290043
     18          1           0        1.266662   -1.667817    0.207379
     19          1           0        1.706526    2.597319   -0.285694
     20          1           0        4.249714   -1.363198   -1.388786
     21          1           0        4.884693   -0.790233    0.173488
     22          1           0        3.769027   -2.181776    0.122228
     23          1           0       -2.449213    1.280614   -1.827040
     24          1           0       -4.067122    0.889894   -1.484577
     25          1           0       -2.089539   -1.840014    0.746596
 ---------------------------------------------------------------------

 SCF Done:  E(UB3LYP) =  -643.592692553     A.U. after   33 cycles
 SCF Done:  E(UB3LYP) =  -643.592692553     a.u. after    1 cycles

 The electronic state is 2-A.
 Alpha  occ. eigenvalues --  -19.06051 -19.00827 -14.29471 -14.28819 -14.23264
 Alpha  occ. eigenvalues --  -14.23130 -10.20860 -10.13193 -10.11871 -10.10559
 Alpha  occ. eigenvalues --  -10.09219 -10.07593 -10.07192  -1.00966  -0.95477
 Alpha  occ. eigenvalues --   -0.94011  -0.82637  -0.76943  -0.74678  -0.69989
 Alpha  occ. eigenvalues --   -0.65652  -0.60595  -0.56108  -0.51332  -0.49138
 Alpha  occ. eigenvalues --   -0.47549  -0.46421  -0.43263  -0.41229  -0.39465
 Alpha  occ. eigenvalues --   -0.38449  -0.36582  -0.36267  -0.34206  -0.34057
 Alpha  occ. eigenvalues --   -0.32405  -0.31426  -0.30653  -0.30106  -0.29172
 Alpha  occ. eigenvalues --   -0.28681  -0.26585  -0.25139  -0.20753  -0.19873
 Alpha  occ. eigenvalues --   -0.18531  -0.15996  -0.14624  -0.14253   0.04171
 Alpha virt. eigenvalues --    0.05556   0.07688   0.08348   0.08670   0.09034
 Alpha virt. eigenvalues --    0.10060   0.10468   0.10911   0.11223   0.11954
 Alpha virt. eigenvalues --    0.12469   0.12666   0.13148   0.13854   0.14661

  Beta  occ. eigenvalues --  -19.06045 -19.00812 -14.29470 -14.28817 -14.23165
  Beta  occ. eigenvalues --  -14.23125 -10.20847 -10.13175 -10.11829 -10.10548
  Beta  occ. eigenvalues --  -10.09211 -10.07594 -10.07180  -1.00950  -0.95471
  Beta  occ. eigenvalues --   -0.93984  -0.82542  -0.76885  -0.74659  -0.69969
  Beta  occ. eigenvalues --   -0.65623  -0.60549  -0.56068  -0.51285  -0.49110
  Beta  occ. eigenvalues --   -0.47450  -0.46330  -0.43228  -0.41144  -0.39434
  Beta  occ. eigenvalues --   -0.38424  -0.36543  -0.36229  -0.34174  -0.34026
  Beta  occ. eigenvalues --   -0.32368  -0.31397  -0.30623  -0.30082  -0.29148
  Beta  occ. eigenvalues --   -0.28658  -0.26555  -0.25122  -0.20706  -0.19840
  Beta  occ. eigenvalues --   -0.18468  -0.15986  -0.14614  -0.14238
  Beta virt. eigenvalues --    0.06483   0.07268   0.08267   0.08758   0.08908
  Beta virt. eigenvalues --    0.09518   0.10517   0.10826   0.11248   0.11625
  Beta virt. eigenvalues --    0.12270   0.12540   0.12787   0.13544   0.13948

 Mulliken charges and spin densities:
               1          2
     1  C    0.036030  -0.781372
     2  C    1.344417  -2.389026
     3  C   -0.494466   1.187835
     4  C   -1.420235   1.122548
     5  N    0.105731   0.086083
     6  N   -0.392360   0.168759
     7  C    0.238650  -0.226785
     8  C    1.004954  -1.337013
     9  N    0.022691   0.068863
    10  C    0.972032  -0.794073
    11  O   -0.374232   0.001246
    12  N   -0.260546  -0.119589
    13  O   -0.152228   0.014700
    14  H    0.087925   0.085055
    15  H    0.087498   0.083404
    16  H    0.030425   0.112268
    17  H    0.003247   0.176364
    18  H   -0.065710   0.293768
    19  H   -0.314996   0.469926
    20  H   -0.171235   0.350817
    21  H   -0.185495   0.349497
    22  H   -0.486093   0.630892
    23  H   -0.593820   0.875058
    24  H   -0.287236   0.600136
    25  H    0.265050  -0.029360
 Sum of Mulliken charges =  -1.00000   1.00000

 Dipole moment (field-independent basis, Debye):
    X=              1.0574    Y=             -1.1795    Z=              4.6091  Tot=              4.8738
 Quadrupole moment (field-independent basis, Debye-Ang):
   XX=           -160.6467   YY=           -116.3299   ZZ=           -109.4969
   XY=             10.1592   XZ=             -9.9771   YZ=              7.2485

 Summary of Natural Population Analysis:

                                       Natural Population
                Natural  -----------------------------------------------
    Atom  No    Charge         Core      Valence    Rydberg      Total
 -----------------------------------------------------------------------
      C    1   -0.28891      0.99964     2.28470    0.00457     3.28891
      C    2   -0.01728      0.99954     2.00243    0.01531     3.01728
      C    3   -0.07935      0.99950     2.06715    0.01270     3.07935
      C    4    0.00129      0.99949     1.98851    0.01071     2.99871
      N    5   -0.10521      0.99967     2.59302    0.01252     3.60521
      N    6   -0.15603      0.99973     2.64420    0.01210     3.65603
      C    7   -0.00712      0.99957     1.99448    0.01307     3.00712
      C    8   -0.17127      0.99964     2.16345    0.00819     3.17127
      N    9   -0.11422      0.99961     2.59945    0.01516     3.61422
      C   10    0.39659      0.99970     1.58076    0.02296     2.60341
      O   11   -0.34293      0.99987     3.33682    0.00624     4.34293
      N   12   -0.40644      0.99971     2.89741    0.00931     3.90644
      O   13   -0.29386      0.99990     3.28736    0.00660     4.29386
      H   14    0.10628      0.00000     0.39262    0.00110     0.39372
      H   15    0.10132      0.00000     0.39777    0.00090     0.39868
      H   16    0.10246      0.00000     0.39664    0.00090     0.39754
      H   17    0.11228      0.00000     0.38447    0.00325     0.38772
      H   18    0.11480      0.00000     0.38376    0.00144     0.38520
      H   19    0.09843      0.00000     0.40038    0.00119     0.40157
      H   20    0.09915      0.00000     0.39953    0.00132     0.40085
      H   21    0.10442      0.00000     0.39407    0.00151     0.39558
      H   22    0.10167      0.00000     0.39676    0.00157     0.39833
      H   23    0.20220      0.00000     0.27954    0.01827     0.29780
      H   24    0.20010      0.00000     0.29495    0.00495     0.29990
      H   25    0.24163      0.00000     0.25484    0.00354     0.25837
 =======================================================================
   * Total *    0.00000     12.99557    35.81505    0.18938    49.00000

 Normal termination of Gaussian 16 at Thu Dec 10 00:16:38 2020.
