 Gaussian 16, Revision A.03,

 -----------------------------------------------------------
 # opt freq B3LYP/6-31G(d) empiricaldispersion=gd3bj scf=xqc
 -----------------------------------------------------------

 ------------------------------
 CID_89241704_JID_1756_neutraal
 ------------------------------
 Symbolic Z-matrix:
 Charge =  0 Multiplicity = 1

 SCF Done:  E(RB3LYP) =  -1236.76826477     A.U. after   16 cycles
 SCF Done:  E(RB3LYP) =  -1236.77458860     A.U. after   13 cycles
 SCF Done:  E(RB3LYP) =  -1236.77555722     A.U. after   13 cycles
 SCF Done:  E(RB3LYP) =  -1236.77549970     A.U. after   13 cycles
 SCF Done:  E(RB3LYP) =  -1236.77572918     A.U. after   13 cycles
 SCF Done:  E(RB3LYP) =  -1236.77582263     A.U. after   13 cycles
 SCF Done:  E(RB3LYP) =  -1236.77590336     A.U. after   13 cycles
 SCF Done:  E(RB3LYP) =  -1236.77584705     A.U. after   14 cycles
 SCF Done:  E(RB3LYP) =  -1236.77609777     A.U. after   13 cycles
 SCF Done:  E(RB3LYP) =  -1236.77572281     A.U. after   14 cycles
 SCF Done:  E(RB3LYP) =  -1236.77640998     A.U. after   13 cycles
 SCF Done:  E(RB3LYP) =  -1236.77641749     A.U. after   12 cycles
 SCF Done:  E(RB3LYP) =  -1236.77641719     A.U. after   10 cycles
 SCF Done:  E(RB3LYP) =  -1236.77641761     A.U. after   10 cycles
 SCF Done:  E(RB3LYP) =  -1236.77641758     A.U. after    8 cycles
 SCF Done:  E(RB3LYP) =  -1236.77641763     A.U. after    8 cycles
 Optimization completed.
    -- Stationary point found.
 Normal termination of Gaussian 16 at Tue Dec  8 20:27:29 2020.

 --------------------------------------------------------------------
 #N Geom=AllCheck Guess=TCheck SCRF=Check GenChk RB3LYP/6-31G(d) Freq
 --------------------------------------------------------------------

 Structure from the checkpoint file:  "JID_1756.chk"
 ------------------------------
 CID_89241704_JID_1756_neutraal
 ------------------------------
 Charge =  0 Multiplicity = 1

 SCF Done:  E(RB3LYP) =  -1236.77641763     A.U. after    1 cycles

  Exact polarizability: 120.394   4.303 111.265   4.210  -5.947  85.035
 Approx polarizability: 164.000   8.901 177.854   8.344 -10.037 142.466

                      1                      2                      3
                      A                      A                      A
 Frequencies --     33.7028                64.0523                74.3298
 Red. masses --      9.9293                 9.3938                 7.5034
 Frc consts  --      0.0066                 0.0227                 0.0244
 IR Inten    --      0.7485                 1.2351                 1.8781

                      4                      5                      6
                      A                      A                      A
 Frequencies --     96.6793               118.2129               153.6983
 Red. masses --      2.9934                 4.2921                 4.7298
 Frc consts  --      0.0165                 0.0353                 0.0658
 IR Inten    --      1.6018                 5.2341                 4.1694

                      7                      8                      9
                      A                      A                      A
 Frequencies --    167.0597               239.5741               262.8420
 Red. masses --      3.4862                 4.4822                 2.3366
 Frc consts  --      0.0573                 0.1516                 0.0951
 IR Inten    --      0.8688                 7.0150                29.3956

                     10                     11                     12
                      A                      A                      A
 Frequencies --    282.1943               333.8853               370.7791
 Red. masses --      1.4300                 4.9315                 2.3923
 Frc consts  --      0.0671                 0.3239                 0.1938
 IR Inten    --     80.7546                 5.9577                 2.0351

                     13                     14                     15
                      A                      A                      A
 Frequencies --    389.5157               438.3067               480.6102
 Red. masses --      8.1893                 3.9930                 7.9597
 Frc consts  --      0.7321                 0.4520                 1.0833
 IR Inten    --      2.0227                 5.2651                 2.1031

                     16                     17                     18
                      A                      A                      A
 Frequencies --    501.2349               562.7769               624.7433
 Red. masses --      3.7513                 2.5764                 4.0653
 Frc consts  --      0.5553                 0.4808                 0.9349
 IR Inten    --      5.0861                 1.3462                 4.7670

                     19                     20                     21
                      A                      A                      A
 Frequencies --    725.7753               740.5613               827.9173
 Red. masses --      5.6007                 5.0846                 3.0193
 Frc consts  --      1.7382                 1.6430                 1.2194
 IR Inten    --      3.7659                 4.8783                 7.8219

                     22                     23                     24
                      A                      A                      A
 Frequencies --    870.2447               875.3159               926.6247
 Red. masses --      2.2574                 1.5352                 2.3051
 Frc consts  --      1.0073                 0.6930                 1.1662
 IR Inten    --     16.1836                 2.1630                11.5626

                     25                     26                     27
                      A                      A                      A
 Frequencies --    955.4454              1003.6312              1012.8028
 Red. masses --      1.5047                 2.8038                 1.8384
 Frc consts  --      0.8093                 1.6640                 1.1111
 IR Inten    --      0.7873                14.9917                 6.1873

                     28                     29                     30
                      A                      A                      A
 Frequencies --   1072.5680              1079.9276              1125.8892
 Red. masses --      3.2121                 3.9018                 2.0211
 Frc consts  --      2.1772                 2.6810                 1.5095
 IR Inten    --      1.7134                77.6999                 3.9595

                     31                     32                     33
                      A                      A                      A
 Frequencies --   1132.4938              1141.1582              1187.8632
 Red. masses --      1.0488                 2.0795                 1.2155
 Frc consts  --      0.7925                 1.5955                 1.0105
 IR Inten    --      2.5257                 4.7777                 1.0224

                     34                     35                     36
                      A                      A                      A
 Frequencies --   1239.0764              1247.0735              1258.3387
 Red. masses --      1.3224                 1.2749                 1.2405
 Frc consts  --      1.1962                 1.1682                 1.1573
 IR Inten    --      5.4600                 8.7184                15.4464

                     37                     38                     39
                      A                      A                      A
 Frequencies --   1283.7627              1299.0869              1308.7278
 Red. masses --      1.2592                 1.1959                 1.3523
 Frc consts  --      1.2227                 1.1891                 1.3647
 IR Inten    --     20.8128                18.6360                21.3644

                     40                     41                     42
                      A                      A                      A
 Frequencies --   1353.1355              1358.3403              1386.2277
 Red. masses --      1.2415                 1.3184                 1.2588
 Frc consts  --      1.3393                 1.4333                 1.4252
 IR Inten    --      3.5265                 0.7656                 1.2378

                     43                     44                     45
                      A                      A                      A
 Frequencies --   1408.3465              1477.4514              1488.2094
 Red. masses --      1.4088                 1.3663                 1.1104
 Frc consts  --      1.6463                 1.7572                 1.4489
 IR Inten    --      2.1132                 3.6396                 6.1422

                     46                     47                     48
                      A                      A                      A
 Frequencies --   1500.7146              1524.7187              1549.3705
 Red. masses --      1.1055                 1.0895                 1.0862
 Frc consts  --      1.4670                 1.4923                 1.5363
 IR Inten    --     13.3468                 4.8423                 2.6822

                     49                     50                     51
                      A                      A                      A
 Frequencies --   1672.1529              3002.9604              3036.6168
 Red. masses --     12.7874                 1.0595                 1.0966
 Frc consts  --     21.0661                 5.6295                 5.9575
 IR Inten    --     67.3792                57.6540                17.3460

                     52                     53                     54
                      A                      A                      A
 Frequencies --   3047.5248              3059.3320              3064.5317
 Red. masses --      1.0843                 1.0645                 1.0819
 Frc consts  --      5.9335                 5.8702                 5.9862
 IR Inten    --     14.6357                17.2755                15.6865

                     55                     56                     57
                      A                      A                      A
 Frequencies --   3075.3141              3090.5100              3129.0085
 Red. masses --      1.0622                 1.0659                 1.1057
 Frc consts  --      5.9189                 5.9984                 6.3784
 IR Inten    --     23.6763                20.1788                17.1183

                     58                     59                     60
                      A                      A                      A
 Frequencies --   3141.4365              3173.5994              3756.1492
 Red. masses --      1.1051                 1.1000                 1.0665
 Frc consts  --      6.4257                 6.5276                 8.8651
 IR Inten    --      3.6561                 1.6584                25.2277

 - Thermochemistry -
 -------------------
 Temperature   298.150 Kelvin.  Pressure   1.00000 Atm.
 Atom     1 has atomic number  6 and mass  12.00000

 Molecular mass:   193.02312 amu.
 Principal axes and moments of inertia in atomic units:
                           1         2         3
     Eigenvalues --  1693.590783120.352754285.75510
           X            0.99976   0.02149   0.00475
           Y           -0.02140   0.99962  -0.01738
           Z           -0.00513   0.01728   0.99984
 This molecule is an asymmetric top.
 Rotational symmetry number  1.
 Warning -- assumption of classical behavior for rotation
           may cause significant error
 Rotational temperatures (Kelvin)      0.05114     0.02776     0.02021
 Rotational constants (GHZ):           1.06563     0.57838     0.42110
 Zero-point vibrational energy     459390.7 (Joules/Mol)
                                  109.79702 (Kcal/Mol)
 Warning -- explicit consideration of  17 degrees of freedom as
           vibrations may cause significant error
 Vibrational temperatures:     48.49    92.16   106.94   139.10   170.08
          (Kelvin)            221.14   240.36   344.69   378.17   406.01
                              480.39   533.47   560.43   630.63   691.49
                              721.17   809.71   898.87  1044.23  1065.50
                             1191.19  1252.09  1259.38  1333.21  1374.67
                             1444.00  1457.20  1543.19  1553.77  1619.90
                             1629.41  1641.87  1709.07  1782.75  1794.26
                             1810.47  1847.05  1869.10  1882.97  1946.86
                             1954.35  1994.47  2026.30  2125.72  2141.20
                             2159.19  2193.73  2229.20  2405.86  4320.59
                             4369.01  4384.71  4401.70  4409.18  4424.69
                             4446.55  4501.95  4519.83  4566.10  5404.26

 Zero-point correction=                           0.174973 (Hartree/Particle)
 Thermal correction to Energy=                    0.187300
 Thermal correction to Enthalpy=                  0.188244
 Thermal correction to Gibbs Free Energy=         0.134833
 Sum of electronic and zero-point Energies=          -1236.601445
 Sum of electronic and thermal Energies=             -1236.589117
 Sum of electronic and thermal Enthalpies=           -1236.588173
 Sum of electronic and thermal Free Energies=        -1236.641585

                     E (Thermal)             CV                S
                      KCal/Mol        Cal/Mol-Kelvin    Cal/Mol-Kelvin
 Total                  117.533             43.690            112.415
 Electronic               0.000              0.000              0.000
 Translational            0.889              2.981             41.678
 Rotational               0.889              2.981             31.494
 Vibrational            115.755             37.728             39.243
 Vibration     1          0.594              1.983              5.599
 Vibration     2          0.597              1.971              4.328
 Vibration     3          0.599              1.966              4.035
 Vibration     4          0.603              1.952              3.520
 Vibration     5          0.608              1.934              3.129
 Vibration     6          0.619              1.899              2.626
 Vibration     7          0.624              1.883              2.468
 Vibration     8          0.657              1.780              1.806
 Vibration     9          0.670              1.741              1.643
 Vibration    10          0.681              1.707              1.520
 Vibration    11          0.715              1.608              1.241
 Vibration    12          0.743              1.532              1.077
 Vibration    13          0.757              1.493              1.002
 Vibration    14          0.798              1.387              0.832
 Vibration    15          0.837              1.293              0.708
 Vibration    16          0.857              1.247              0.655
 Vibration    17          0.919              1.112              0.518

 Optimization completed.
    -- Stationary point found.
 Normal termination of Gaussian 16 at Tue Dec  8 20:33:18 2020.

 ----------------------------------------------------------------------
 # B3LYP/6-311++G(d,p) empiricaldispersion=gd3bj scf=xqc pop=npa geom=c
 heck
 ----------------------------------------------------------------------

 --------------------------------------
 CID_89241704_JID_1756_Energie_neutraal
 --------------------------------------
 Structure from the checkpoint file:  "JID_1756.chk"
 Charge =  0 Multiplicity = 1

 SCF Done:  E(RB3LYP) =  -1236.96825307     A.U. after   16 cycles
 Normal termination of Gaussian 16 at Tue Dec  8 20:37:28 2020.

 ----------------------------------------------------------------------
 # B3LYP/6-311++G(d,p) empiricaldispersion=gd3bj scf=xqc pop=npa geom=c
 heck
 ----------------------------------------------------------------------

 ------------------------------------
 CID_89241704_JID_1756_Energie_kation
 ------------------------------------
 Structure from the checkpoint file:  "JID_1756.chk"
 Charge =  1 Multiplicity = 2

 SCF Done:  E(UB3LYP) =  -1236.68376338     A.U. after   26 cycles
 Normal termination of Gaussian 16 at Tue Dec  8 20:43:55 2020.
 Gaussian 16:  ES64L-G16RevA.03 25-Dec-2016

 ----------------------------------------------------------------------
 # B3LYP/6-311++G(d,p) empiricaldispersion=gd3bj scf=xqc pop=npa geom=c
 heck
 ----------------------------------------------------------------------

 -----------------------------------
 CID_89241704_JID_1756_Energie_anion
 -----------------------------------
 Structure from the checkpoint file:  "JID_1756.chk"
 Charge = -1 Multiplicity = 2

                         Standard orientation:
 ---------------------------------------------------------------------
 Center     Atomic      Atomic             Coordinates (Angstroms)
 Number     Number       Type             X           Y           Z
 ---------------------------------------------------------------------
      1          6           0       -0.696842   -1.123661    0.670551
      2          6           0       -0.020437    0.078772   -0.024543
      3          6           0       -0.987567    1.272100   -0.011389
      4         16           0       -2.554445    0.684601   -0.744174
      5         16           0       -2.539586   -1.061996    0.462893
      6          6           0        1.357272    0.399601    0.604356
      7          6           0        2.248296   -0.859843    0.685009
      8          7           0        2.535418   -1.343763   -0.693962
      9          8           0        2.092872   -2.450095   -0.917050
     10          6           0        2.103062    1.522971   -0.127780
     11          8           0        1.510268    2.764980    0.236790
     12          1           0       -0.320904   -2.067192    0.269558
     13          1           0       -0.513157   -1.100248    1.749335
     14          1           0        0.138243   -0.194366   -1.074763
     15          1           0       -1.158083    1.633830    1.007373
     16          1           0       -0.622173    2.102541   -0.615793
     17          1           0        1.203286    0.740007    1.637421
     18          1           0        3.223223   -0.587989    1.108337
     19          1           0        1.796769   -1.663961    1.272830
     20          1           0        3.164744    1.502925    0.162566
     21          1           0        2.058627    1.356178   -1.213835
     22          1           0        1.938146    3.464220   -0.279942
 ---------------------------------------------------------------------

 SCF Done:  E(UB3LYP) =  -1236.99851250     A.U. after   28 cycles

 The electronic state is 2-A.
 Alpha  occ. eigenvalues --  -88.74077 -88.73822 -19.02133 -18.92874 -14.16371
 Alpha  occ. eigenvalues --  -10.09979 -10.08618 -10.08202 -10.06832 -10.05758
 Alpha  occ. eigenvalues --  -10.03383  -7.82613  -7.82342  -5.79083  -5.78829
 Alpha  occ. eigenvalues --   -5.78668  -5.78386  -5.77900  -5.77624  -0.92613
 Alpha  occ. eigenvalues --   -0.92172  -0.73805  -0.67879  -0.62232  -0.60633
 Alpha  occ. eigenvalues --   -0.57305  -0.49623  -0.47253  -0.46300  -0.41600
 Alpha  occ. eigenvalues --   -0.39943  -0.37429  -0.35326  -0.32095  -0.31360
 Alpha  occ. eigenvalues --   -0.29578  -0.29324  -0.27432  -0.26851  -0.25791
 Alpha  occ. eigenvalues --   -0.24819  -0.22912  -0.22207  -0.21767  -0.20540
 Alpha  occ. eigenvalues --   -0.19528  -0.18025  -0.17092  -0.16005  -0.09004
 Alpha  occ. eigenvalues --   -0.01453   0.04041
 Alpha virt. eigenvalues --    0.06471   0.06869   0.09415   0.10109   0.10711
 Alpha virt. eigenvalues --    0.11492   0.12393   0.12549   0.13488   0.13885
 Alpha virt. eigenvalues --    0.14187   0.14677   0.15612   0.16497   0.16995

  Beta  occ. eigenvalues --  -88.74056 -88.73803 -19.02124 -18.91888 -14.15321
  Beta  occ. eigenvalues --  -10.09966 -10.08613 -10.08201 -10.06827 -10.05704
  Beta  occ. eigenvalues --  -10.03437  -7.82592  -7.82323  -5.79021  -5.78779
  Beta  occ. eigenvalues --   -5.78655  -5.78373  -5.77887  -5.77611  -0.92166
  Beta  occ. eigenvalues --   -0.90689  -0.73752  -0.67690  -0.62186  -0.60394
  Beta  occ. eigenvalues --   -0.56814  -0.49211  -0.47166  -0.45845  -0.41141
  Beta  occ. eigenvalues --   -0.39211  -0.37295  -0.35265  -0.31889  -0.31167
  Beta  occ. eigenvalues --   -0.29333  -0.28669  -0.27144  -0.26401  -0.25503
  Beta  occ. eigenvalues --   -0.23826  -0.22473  -0.22003  -0.21166  -0.19904
  Beta  occ. eigenvalues --   -0.17536  -0.16831  -0.16694  -0.15791  -0.08950
  Beta  occ. eigenvalues --   -0.00324
  Beta virt. eigenvalues --    0.06707   0.07026   0.09311   0.10026   0.10701
  Beta virt. eigenvalues --    0.11420   0.12343   0.12497   0.13371   0.13801
  Beta virt. eigenvalues --    0.14119   0.14599   0.15323   0.16060   0.16630

 Mulliken charges and spin densities:
               1          2
     1  C   -0.727614  -0.012365
     2  C   -0.058796   0.082032
     3  C   -0.569931  -0.161842
     4  S   -0.201062   0.069487
     5  S   -0.193270   0.033205
     6  C    0.777974   0.312886
     7  C   -0.271366  -0.264302
     8  N   -0.270309   0.482307
     9  O   -0.269819   0.321907
    10  C   -0.317710  -0.399283
    11  O   -0.272050   0.004743
    12  H    0.188275  -0.000289
    13  H    0.158167  -0.002062
    14  H    0.210402   0.017225
    15  H    0.171583   0.012593
    16  H    0.182779   0.046967
    17  H    0.106049   0.136602
    18  H   -0.026226   0.107003
    19  H    0.033470   0.002758
    20  H    0.077753   0.077331
    21  H    0.131375   0.037810
    22  H    0.140325   0.095288
 Sum of Mulliken charges =  -1.00000   1.00000

 Dipole moment (field-independent basis, Debye):
    X=             -3.1687    Y=              5.4910    Z=              2.1710  Tot=              6.7011
 Quadrupole moment (field-independent basis, Debye-Ang):
   XX=           -123.5981   YY=           -107.5744   ZZ=            -95.1749
   XY=             14.2740   XZ=              4.2306   YZ=            -10.2605

 Summary of Natural Population Analysis:

                                       Natural Population
                Natural  -----------------------------------------------
    Atom  No    Charge         Core      Valence    Rydberg      Total
 -----------------------------------------------------------------------
      C    1   -0.24827      0.99956     2.23615    0.01256     3.24827
      C    2   -0.12753      0.99956     2.11239    0.01558     3.12753
      C    3   -0.24431      0.99957     2.23517    0.00957     3.24431
      S    4    0.03016      4.99967     2.95136    0.01880     7.96984
      S    5    0.01521      4.99970     2.96735    0.01774     7.98479
      C    6   -0.11781      0.99956     2.10111    0.01714     3.11781
      C    7   -0.14194      0.99962     2.12332    0.01900     3.14194
      N    8    0.12313      0.99981     2.34557    0.03149     3.37687
      O    9   -0.10458      0.99990     3.09240    0.01228     4.10458
      C   10   -0.01481      0.99957     1.99942    0.01582     3.01481
      O   11   -0.37607      0.99989     3.36942    0.00675     4.37607
      H   12    0.12132      0.00000     0.37658    0.00211     0.37868
      H   13    0.09863      0.00000     0.39992    0.00146     0.40137
      H   14    0.11326      0.00000     0.38481    0.00193     0.38674
      H   15    0.09978      0.00000     0.39844    0.00178     0.40022
      H   16    0.11709      0.00000     0.38128    0.00163     0.38291
      H   17    0.09756      0.00000     0.40030    0.00214     0.40244
      H   18    0.08975      0.00000     0.40539    0.00486     0.41025
      H   19    0.07983      0.00000     0.41313    0.00703     0.42017
      H   20    0.07934      0.00000     0.41852    0.00214     0.42066
      H   21    0.08564      0.00000     0.41204    0.00232     0.41436
      H   22    0.22462      0.00000     0.27232    0.00306     0.27538
 =======================================================================
   * Total *    0.00000     18.99640    31.79640    0.20720    51.00000

 Normal termination of Gaussian 16 at Tue Dec  8 20:49:49 2020.
