 Gaussian 16, Revision A.03,

 -----------------------------------------------------------
 # opt freq B3LYP/6-31G(d) empiricaldispersion=gd3bj scf=xqc
 -----------------------------------------------------------

 -------------------------------
 CID_145221790_JID_5319_neutraal
 -------------------------------
 Symbolic Z-matrix:
 Charge =  0 Multiplicity = 1

 SCF Done:  E(RB3LYP) =  -630.426193213     A.U. after   16 cycles
 SCF Done:  E(RB3LYP) =  -630.459185633     A.U. after   14 cycles
 SCF Done:  E(RB3LYP) =  -630.459977505     A.U. after   15 cycles
 SCF Done:  E(RB3LYP) =  -630.461189368     A.U. after   15 cycles
 SCF Done:  E(RB3LYP) =  -630.461006164     A.U. after   14 cycles
 SCF Done:  E(RB3LYP) =  -630.462108764     A.U. after   13 cycles
 SCF Done:  E(RB3LYP) =  -630.462823020     A.U. after   12 cycles
 SCF Done:  E(RB3LYP) =  -630.463831055     A.U. after   13 cycles
 SCF Done:  E(RB3LYP) =  -630.463919421     A.U. after   15 cycles
 SCF Done:  E(RB3LYP) =  -630.464642401     A.U. after   13 cycles
 SCF Done:  E(RB3LYP) =  -630.464822680     A.U. after    9 cycles
 SCF Done:  E(RB3LYP) =  -630.464822936     A.U. after    8 cycles
 SCF Done:  E(RB3LYP) =  -630.464823109     A.U. after    8 cycles
 SCF Done:  E(RB3LYP) =  -630.464823179     A.U. after    8 cycles
 SCF Done:  E(RB3LYP) =  -630.464823203     A.U. after    7 cycles
 SCF Done:  E(RB3LYP) =  -630.464823217     A.U. after    7 cycles
 Optimization completed.
    -- Stationary point found.
 Normal termination of Gaussian 16 at Thu Dec 10 15:43:36 2020.

 --------------------------------------------------------------------
 #N Geom=AllCheck Guess=TCheck SCRF=Check GenChk RB3LYP/6-31G(d) Freq
 --------------------------------------------------------------------

 Structure from the checkpoint file:  "JID_5319.chk"
 -------------------------------
 CID_145221790_JID_5319_neutraal
 -------------------------------
 Charge =  0 Multiplicity = 1

 SCF Done:  E(RB3LYP) =  -630.464823217     A.U. after    1 cycles

  Exact polarizability: 185.507  14.365 124.196   4.092  -1.501 115.662
 Approx polarizability: 262.900  29.112 193.771   9.805  -6.242 189.771

                      1                      2                      3
                      A                      A                      A
 Frequencies --     28.0770                43.9036                68.9920
 Red. masses --      4.9567                 5.0347                 3.0643
 Frc consts  --      0.0023                 0.0057                 0.0086
 IR Inten    --      0.7072                 2.8521                 0.4069

                      4                      5                      6
                      A                      A                      A
 Frequencies --     81.1033               105.5430               140.9435
 Red. masses --      4.8412                 3.2334                 5.5774
 Frc consts  --      0.0188                 0.0212                 0.0653
 IR Inten    --      3.2724                 2.7361                 0.7960

                      7                      8                      9
                      A                      A                      A
 Frequencies --    147.2699               183.7400               231.1597
 Red. masses --      3.8595                 4.1470                 3.9932
 Frc consts  --      0.0493                 0.0825                 0.1257
 IR Inten    --      0.3160                 4.1100                20.3108

                     10                     11                     12
                      A                      A                      A
 Frequencies --    245.6683               282.5056               304.6580
 Red. masses --      3.4075                 2.2322                 3.4420
 Frc consts  --      0.1212                 0.1050                 0.1882
 IR Inten    --      3.5694                 1.9596                 1.3365

                     13                     14                     15
                      A                      A                      A
 Frequencies --    322.3192               378.1972               394.5668
 Red. masses --      3.0594                 2.3953                 2.1163
 Frc consts  --      0.1873                 0.2019                 0.1941
 IR Inten    --      2.8295                 5.9337                 1.5886

                     16                     17                     18
                      A                      A                      A
 Frequencies --    398.4521               474.2892               495.6770
 Red. masses --      3.3785                 3.3024                 2.7768
 Frc consts  --      0.3160                 0.4377                 0.4020
 IR Inten    --      1.0187                 3.9541                 5.2208

                     19                     20                     21
                      A                      A                      A
 Frequencies --    513.2871               598.4256               648.9470
 Red. masses --      2.7208                 3.9100                 3.7190
 Frc consts  --      0.4223                 0.8250                 0.9228
 IR Inten    --      5.4165                 7.0358                10.3207

                     22                     23                     24
                      A                      A                      A
 Frequencies --    684.1234               705.5298               717.5859
 Red. masses --      2.8308                 1.5031                 1.9646
 Frc consts  --      0.7806                 0.4408                 0.5960
 IR Inten    --     29.3090                26.0131                21.0025

                     25                     26                     27
                      A                      A                      A
 Frequencies --    730.1030               753.9863               799.1909
 Red. masses --      1.3509                 3.3868                 1.7832
 Frc consts  --      0.4243                 1.1344                 0.6710
 IR Inten    --     10.0936                 0.4507                38.5864

                     28                     29                     30
                      A                      A                      A
 Frequencies --    807.9499               829.3022               877.8499
 Red. masses --      1.6671                 2.2059                 1.9706
 Frc consts  --      0.6412                 0.8938                 0.8947
 IR Inten    --     33.2555                10.9880                 8.8995

                     31                     32                     33
                      A                      A                      A
 Frequencies --    890.4546               924.6112               930.8622
 Red. masses --      2.0147                 2.5796                 1.5612
 Frc consts  --      0.9412                 1.2993                 0.7970
 IR Inten    --     21.7309                 1.4379                 0.6124

                     34                     35                     36
                      A                      A                      A
 Frequencies --    939.1663               945.8005               967.0461
 Red. masses --      1.3931                 2.3074                 1.9351
 Frc consts  --      0.7240                 1.2161                 1.0662
 IR Inten    --     32.9104                 0.8199                10.4647

                     37                     38                     39
                      A                      A                      A
 Frequencies --    982.2895               996.4117              1006.6701
 Red. masses --      1.2993                 1.6985                 1.7035
 Frc consts  --      0.7387                 0.9936                 1.0171
 IR Inten    --      8.6826                 2.6841                 1.2373

                     40                     41                     42
                      A                      A                      A
 Frequencies --   1016.9498              1039.2911              1097.6997
 Red. masses --      2.2516                 2.5259                 2.4549
 Frc consts  --      1.3720                 1.6075                 1.7428
 IR Inten    --      1.5427                11.6475                 3.7117

                     43                     44                     45
                      A                      A                      A
 Frequencies --   1126.0263              1144.1437              1157.6594
 Red. masses --      1.1351                 3.1410                 1.0419
 Frc consts  --      0.8480                 2.4226                 0.8227
 IR Inten    --      9.6465                14.7200                 0.1831

                     46                     47                     48
                      A                      A                      A
 Frequencies --   1171.4845              1182.7999              1214.4727
 Red. masses --      1.6843                 1.7335                 1.2427
 Frc consts  --      1.3619                 1.4289                 1.0799
 IR Inten    --     14.2417                 2.4584                 1.5740

                     49                     50                     51
                      A                      A                      A
 Frequencies --   1236.9690              1245.7144              1268.7623
 Red. masses --      2.6350                 1.8751                 1.8514
 Frc consts  --      2.3755                 1.7144                 1.7559
 IR Inten    --      6.5867                 2.5635                 1.5308

                     52                     53                     54
                      A                      A                      A
 Frequencies --   1276.5480              1309.5320              1331.9822
 Red. masses --      1.2793                 1.3822                 2.2090
 Frc consts  --      1.2283                 1.3966                 2.3091
 IR Inten    --     13.2456                 1.4617                13.5024

                     55                     56                     57
                      A                      A                      A
 Frequencies --   1365.8457              1370.6127              1388.9672
 Red. masses --      1.9279                 1.8145                 1.3373
 Frc consts  --      2.1191                 2.0084                 1.5201
 IR Inten    --     62.6484                70.8261                10.2706

                     58                     59                     60
                      A                      A                      A
 Frequencies --   1392.2076              1429.9630              1466.7821
 Red. masses --      2.2036                 1.7646                 1.3905
 Frc consts  --      2.5165                 2.1259                 1.7626
 IR Inten    --      0.8942                52.0205                54.4586

                     61                     62                     63
                      A                      A                      A
 Frequencies --   1477.0814              1524.4511              1530.8808
 Red. masses --      1.4933                 1.0797                 1.0835
 Frc consts  --      1.9196                 1.4784                 1.4962
 IR Inten    --      9.8299                 0.0114                 0.8522

                     64                     65                     66
                      A                      A                      A
 Frequencies --   1543.3642              1558.3729              1660.3949
 Red. masses --      1.1129                 1.1156                 4.2369
 Frc consts  --      1.5619                 1.5963                 6.8821
 IR Inten    --      9.1925                 0.8808                20.4821

                     67                     68                     69
                      A                      A                      A
 Frequencies --   1674.1336              1709.7949              2345.4775
 Red. masses --      5.1764                 6.9348                12.6820
 Frc consts  --      8.5480                11.9446                41.1055
 IR Inten    --    146.4855                12.6601                12.2260

                     70                     71                     72
                      A                      A                      A
 Frequencies --   2988.6865              3001.0895              3034.3633
 Red. masses --      1.0660                 1.0702                 1.0548
 Frc consts  --      5.6101                 5.6793                 5.7219
 IR Inten    --     70.4069                56.4890                64.2303

                     73                     74                     75
                      A                      A                      A
 Frequencies --   3042.4456              3067.1080              3086.5262
 Red. masses --      1.0583                 1.0974                 1.1091
 Frc consts  --      5.7715                 6.0822                 6.2255
 IR Inten    --     25.1404                42.8864                44.1466

                     76                     77                     78
                      A                      A                      A
 Frequencies --   3088.3235              3097.3393              3159.7553
 Red. masses --      1.1089                 1.0961                 1.0844
 Frc consts  --      6.2313                 6.1957                 6.3788
 IR Inten    --     29.6048                30.5406                 3.7418

                     79                     80                     81
                      A                      A                      A
 Frequencies --   3181.4417              3184.1320              3191.7175
 Red. masses --      1.0817                 1.0712                 1.0589
 Frc consts  --      6.4508                 6.3987                 6.3553
 IR Inten    --      8.7066                10.8084                 3.9274

                     82                     83                     84
                      A                      A                      A
 Frequencies --   3274.9233              3278.6382              3499.5267
 Red. masses --      1.1178                 1.1162                 1.0761
 Frc consts  --      7.0633                 7.0692                 7.7648
 IR Inten    --      2.4550                 6.7839                 6.7087

 - Thermochemistry -
 -------------------
 Temperature   298.150 Kelvin.  Pressure   1.00000 Atm.
 Atom     1 has atomic number  6 and mass  12.00000

 Molecular mass:   201.12660 amu.
 Principal axes and moments of inertia in atomic units:
                           1         2         3
     Eigenvalues --  1452.922454870.340515451.62411
           X            1.00000  -0.00257  -0.00177
           Y            0.00260   0.99983   0.01807
           Z            0.00173  -0.01808   0.99984
 This molecule is an asymmetric top.
 Rotational symmetry number  1.
 Warning -- assumption of classical behavior for rotation
           may cause significant error
 Rotational temperatures (Kelvin)      0.05961     0.01778     0.01589
 Rotational constants (GHZ):           1.24215     0.37056     0.33105
 Zero-point vibrational energy     658012.1 (Joules/Mol)
                                  157.26868 (Kcal/Mol)
 Warning -- explicit consideration of  20 degrees of freedom as
           vibrations may cause significant error
 Vibrational temperatures:     40.40    63.17    99.26   116.69   151.85
          (Kelvin)            202.79   211.89   264.36   332.59   353.46
                              406.46   438.33   463.75   544.14   567.69
                              573.28   682.40   713.17   738.51   861.00
                              933.69   984.30  1015.10  1032.45  1050.46
                             1084.82  1149.86  1162.46  1193.18  1263.03
                             1281.17  1330.31  1339.30  1351.25  1360.80
                             1391.36  1413.30  1433.61  1448.37  1463.16
                             1495.31  1579.35  1620.10  1646.17  1665.61
                             1685.50  1701.79  1747.36  1779.72  1792.31
                             1825.47  1836.67  1884.12  1916.43  1965.15
                             1972.01  1998.41  2003.08  2057.40  2110.37
                             2125.19  2193.35  2202.60  2220.56  2242.15
                             2388.94  2408.70  2460.01  3374.62  4300.05
                             4317.90  4365.77  4377.40  4412.88  4440.82
                             4443.41  4456.38  4546.18  4577.39  4581.26
                             4592.17  4711.88  4717.23  5035.04

 Zero-point correction=                           0.250624 (Hartree/Particle)
 Thermal correction to Energy=                    0.265132
 Thermal correction to Enthalpy=                  0.266077
 Thermal correction to Gibbs Free Energy=         0.208204
 Sum of electronic and zero-point Energies=           -630.214200
 Sum of electronic and thermal Energies=              -630.199691
 Sum of electronic and thermal Enthalpies=            -630.198747
 Sum of electronic and thermal Free Energies=         -630.256619

                     E (Thermal)             CV                S
                      KCal/Mol        Cal/Mol-Kelvin    Cal/Mol-Kelvin
 Total                  166.373             54.972            121.803
 Electronic               0.000              0.000              0.000
 Translational            0.889              2.981             41.801
 Rotational               0.889              2.981             32.023
 Vibrational            164.596             49.011             47.979
 Vibration     1          0.593              1.984              5.961
 Vibration     2          0.595              1.980              5.075
 Vibration     3          0.598              1.969              4.182
 Vibration     4          0.600              1.962              3.864
 Vibration     5          0.605              1.945              3.349
 Vibration     6          0.615              1.912              2.791
 Vibration     7          0.617              1.906              2.707
 Vibration     8          0.631              1.862              2.290
 Vibration     9          0.653              1.793              1.870
 Vibration    10          0.660              1.770              1.761
 Vibration    11          0.682              1.706              1.518
 Vibration    12          0.696              1.665              1.391
 Vibration    13          0.707              1.631              1.298
 Vibration    14          0.748              1.517              1.046
 Vibration    15          0.762              1.482              0.983
 Vibration    16          0.765              1.473              0.968
 Vibration    17          0.831              1.307              0.726
 Vibration    18          0.851              1.260              0.669
 Vibration    19          0.868              1.221              0.626
 Vibration    20          0.956              1.035              0.452

 Optimization completed.
    -- Stationary point found.
 Normal termination of Gaussian 16 at Thu Dec 10 15:54:25 2020.

 ----------------------------------------------------------------------
 # B3LYP/6-311++G(d,p) empiricaldispersion=gd3bj scf=xqc pop=npa geom=c
 heck
 ----------------------------------------------------------------------

 ---------------------------------------
 CID_145221790_JID_5319_Energie_neutraal
 ---------------------------------------
 Structure from the checkpoint file:  "JID_5319.chk"
 Charge =  0 Multiplicity = 1

 SCF Done:  E(RB3LYP) =  -630.637429267     A.U. after   16 cycles
 Normal termination of Gaussian 16 at Thu Dec 10 15:59:41 2020.

 ----------------------------------------------------------------------
 # B3LYP/6-311++G(d,p) empiricaldispersion=gd3bj scf=xqc pop=npa geom=c
 heck
 ----------------------------------------------------------------------

 -------------------------------------
 CID_145221790_JID_5319_Energie_kation
 -------------------------------------
 Structure from the checkpoint file:  "JID_5319.chk"
 Charge =  1 Multiplicity = 2

 SCF Done:  E(UB3LYP) =  -630.366805275     A.U. after   25 cycles
 Normal termination of Gaussian 16 at Thu Dec 10 16:13:05 2020.
 Gaussian 16:  ES64L-G16RevA.03 25-Dec-2016

 ----------------------------------------------------------------------
 # B3LYP/6-311++G(d,p) empiricaldispersion=gd3bj scf=xqc pop=npa geom=c
 heck
 ----------------------------------------------------------------------

 ------------------------------------
 CID_145221790_JID_5319_Energie_anion
 ------------------------------------
 Structure from the checkpoint file:  "JID_5319.chk"
 Charge = -1 Multiplicity = 2

                         Standard orientation:
 ---------------------------------------------------------------------
 Center     Atomic      Atomic             Coordinates (Angstroms)
 Number     Number       Type             X           Y           Z
 ---------------------------------------------------------------------
      1          6           0       -4.192906   -1.333304   -0.171693
      2          6           0       -3.001152   -0.708352   -0.236962
      3          6           0       -2.791453    0.539506   -0.992408
      4          6           0       -1.805618    1.429809   -0.795799
      5          6           0       -0.863952    1.393260    0.344761
      6          6           0       -1.322026    1.534321    1.606456
      7          7           0        0.475585    1.281760    0.008784
      8          6           0        1.488092    0.789433    0.961609
      9          6           0        2.173004    0.023802   -0.191925
     10          6           0        0.976515    0.413015   -1.079847
     11          6           0        3.639996    0.333647   -0.552914
     12          7           0        4.037468   -0.929195    0.113990
     13          6           0        2.641734   -1.427379    0.020822
     14          6           0       -1.854078   -1.361881    0.345019
     15          7           0       -0.925639   -1.939625    0.741123
     16          1           0       -5.071337   -0.897468   -0.637923
     17          1           0       -4.314648   -2.277872    0.346075
     18          1           0       -3.506977    0.708272   -1.794347
     19          1           0       -1.692439    2.250859   -1.502445
     20          1           0       -0.654425    1.545393    2.461128
     21          1           0       -2.377601    1.687493    1.790136
     22          1           0        2.072966    1.580348    1.445722
     23          1           0        1.060112    0.128293    1.726697
     24          1           0        0.315928   -0.430563   -1.312324
     25          1           0        1.216618    0.952482   -2.004621
     26          1           0        3.792282    0.346848   -1.644628
     27          1           0        4.085355    1.239820   -0.123382
     28          1           0        4.728763   -1.482609   -0.387817
     29          1           0        2.271632   -1.946602    0.911158
     30          1           0        2.432940   -2.050536   -0.863412
 ---------------------------------------------------------------------

 SCF Done:  E(UB3LYP) =  -630.652082854     A.U. after   28 cycles

 The electronic state is 2-A.
 Alpha  occ. eigenvalues --  -14.20627 -14.19789 -14.14322 -10.10218 -10.09205
 Alpha  occ. eigenvalues --  -10.08452 -10.08411 -10.08235 -10.06993 -10.04831
 Alpha  occ. eigenvalues --  -10.03111 -10.02801 -10.01479 -10.00660  -9.99644
 Alpha  occ. eigenvalues --   -0.84919  -0.82508  -0.74693  -0.68818  -0.65526
 Alpha  occ. eigenvalues --   -0.60890  -0.58446  -0.58083  -0.56759  -0.52928
 Alpha  occ. eigenvalues --   -0.47624  -0.45444  -0.43193  -0.41468  -0.39522
 Alpha  occ. eigenvalues --   -0.37957  -0.36828  -0.34610  -0.33171  -0.31824
 Alpha  occ. eigenvalues --   -0.31510  -0.29023  -0.28710  -0.27838  -0.27360
 Alpha  occ. eigenvalues --   -0.26069  -0.24076  -0.22887  -0.22365  -0.21874
 Alpha  occ. eigenvalues --   -0.21437  -0.21105  -0.19833  -0.18404  -0.16832
 Alpha  occ. eigenvalues --   -0.14685  -0.14186  -0.09850  -0.07231   0.04553
 Alpha virt. eigenvalues --    0.06344   0.08486   0.09471   0.09748   0.10439
 Alpha virt. eigenvalues --    0.10951   0.11422   0.12121   0.12654   0.12853
 Alpha virt. eigenvalues --    0.13052   0.13745   0.14000   0.14374   0.15094

  Beta  occ. eigenvalues --  -14.20623 -14.19777 -14.14201 -10.10216 -10.09205
  Beta  occ. eigenvalues --  -10.08452 -10.08405 -10.08232 -10.07037 -10.04805
  Beta  occ. eigenvalues --  -10.02966 -10.02759 -10.01188 -10.00570  -9.99034
  Beta  occ. eigenvalues --   -0.84906  -0.82493  -0.74481  -0.68593  -0.65059
  Beta  occ. eigenvalues --   -0.60563  -0.58270  -0.58078  -0.56535  -0.52832
  Beta  occ. eigenvalues --   -0.46496  -0.45063  -0.43166  -0.41406  -0.39463
  Beta  occ. eigenvalues --   -0.37897  -0.36745  -0.34509  -0.32988  -0.31621
  Beta  occ. eigenvalues --   -0.31442  -0.28996  -0.28559  -0.27814  -0.27015
  Beta  occ. eigenvalues --   -0.26009  -0.23802  -0.22643  -0.22302  -0.21538
  Beta  occ. eigenvalues --   -0.21057  -0.20781  -0.19634  -0.18223  -0.16616
  Beta  occ. eigenvalues --   -0.14180  -0.13695  -0.07878  -0.06353
  Beta virt. eigenvalues --    0.06318   0.08399   0.09322   0.09673   0.10275
  Beta virt. eigenvalues --    0.10806   0.11058   0.11568   0.12103   0.12598
  Beta virt. eigenvalues --    0.12782   0.13091   0.13778   0.14074   0.14789

 Mulliken charges and spin densities:
               1          2
     1  C   -0.842893   0.685517
     2  C    1.204188  -0.046595
     3  C   -0.457798  -0.029825
     4  C   -0.257045   0.277581
     5  C    0.307012  -0.092004
     6  C   -0.744735   0.071283
     7  N    0.126506   0.001039
     8  C   -0.389128   0.001010
     9  C   -0.048348  -0.011139
    10  C   -0.444674   0.008274
    11  C   -0.240230  -0.057672
    12  N   -0.109228   0.005636
    13  C   -0.269460  -0.005855
    14  C   -0.482747   0.000267
    15  N   -0.346282   0.077512
    16  H    0.090824  -0.022149
    17  H    0.129645  -0.027762
    18  H    0.063692   0.055369
    19  H    0.140328   0.001175
    20  H    0.094326  -0.000073
    21  H    0.131197   0.005480
    22  H    0.162654   0.000911
    23  H    0.099503   0.017994
    24  H    0.140027  -0.001375
    25  H    0.164611   0.005886
    26  H    0.078213   0.029483
    27  H    0.161669   0.005245
    28  H    0.192965   0.032741
    29  H    0.216618   0.004239
    30  H    0.128590   0.007809
 Sum of Mulliken charges =  -1.00000   1.00000

 Dipole moment (field-independent basis, Debye):
    X=              7.8279    Y=              2.3240    Z=             -2.3149  Tot=              8.4874
 Quadrupole moment (field-independent basis, Debye-Ang):
   XX=           -137.8258   YY=           -114.3694   ZZ=           -102.9531
   XY=             -7.3574   XZ=             -5.2858   YZ=              1.4990

 Summary of Natural Population Analysis:

                                       Natural Population
                Natural  -----------------------------------------------
    Atom  No    Charge         Core      Valence    Rydberg      Total
 -----------------------------------------------------------------------
      C    1   -0.01944      0.99956     2.01105    0.00882     3.01944
      C    2   -0.10454      0.99940     2.09504    0.01011     3.10454
      C    3   -0.08137      0.99951     2.07133    0.01052     3.08137
      C    4   -0.07216      0.99949     2.06144    0.01123     3.07216
      C    5    0.07959      0.99950     1.90655    0.01436     2.92041
      C    6   -0.22499      0.99954     2.21972    0.00573     3.22499
      N    7   -0.26332      0.99965     2.75110    0.01257     3.76332
      C    8   -0.06976      0.99961     2.06191    0.00824     3.06976
      C    9   -0.05578      0.99954     2.04335    0.01288     3.05578
      C   10   -0.07271      0.99960     2.06318    0.00993     3.07271
      C   11   -0.07759      0.99961     2.06881    0.00917     3.07759
      N   12   -0.34434      0.99976     2.83345    0.01113     3.84434
      C   13   -0.07480      0.99961     2.06602    0.00917     3.07480
      C   14    0.17319      0.99962     1.80663    0.02056     2.82681
      N   15   -0.21611      0.99978     2.70517    0.01117     3.71611
      H   16    0.07783      0.00000     0.42140    0.00076     0.42217
      H   17    0.08303      0.00000     0.41628    0.00069     0.41697
      H   18    0.09063      0.00000     0.40784    0.00153     0.40937
      H   19    0.08970      0.00000     0.40877    0.00153     0.41030
      H   20    0.08640      0.00000     0.41260    0.00100     0.41360
      H   21    0.09858      0.00000     0.40057    0.00085     0.40142
      H   22    0.08711      0.00000     0.41185    0.00104     0.41289
      H   23    0.10158      0.00000     0.39657    0.00185     0.39842
      H   24    0.10626      0.00000     0.39252    0.00122     0.39374
      H   25    0.08740      0.00000     0.41168    0.00091     0.41260
      H   26    0.07968      0.00000     0.41860    0.00173     0.42032
      H   27    0.08721      0.00000     0.41126    0.00153     0.41279
      H   28    0.16554      0.00000     0.33075    0.00371     0.33446
      H   29    0.09941      0.00000     0.39910    0.00148     0.40059
      H   30    0.08376      0.00000     0.41486    0.00138     0.41624
 =======================================================================
   * Total *    0.00000     14.99380    38.81941    0.18680    54.00000

 Normal termination of Gaussian 16 at Thu Dec 10 16:28:34 2020.
