 Gaussian 16, Revision A.03,

 -----------------------------------------------------------
 # opt freq B3LYP/6-31G(d) empiricaldispersion=gd3bj scf=xqc
 -----------------------------------------------------------

 ------------------------------
 CID_66384988_JID_7418_neutraal
 ------------------------------
 Symbolic Z-matrix:
 Charge =  0 Multiplicity = 1

 SCF Done:  E(RB3LYP) =  -1085.32700673     A.U. after   15 cycles
 SCF Done:  E(RB3LYP) =  -1085.33461838     A.U. after   13 cycles
 SCF Done:  E(RB3LYP) =  -1085.33387921     A.U. after   14 cycles
 SCF Done:  E(RB3LYP) =  -1085.33645189     A.U. after   13 cycles
 SCF Done:  E(RB3LYP) =  -1085.33804528     A.U. after   12 cycles
 SCF Done:  E(RB3LYP) =  -1085.33850051     A.U. after   13 cycles
 SCF Done:  E(RB3LYP) =  -1085.33930801     A.U. after   12 cycles
 SCF Done:  E(RB3LYP) =  -1085.33956085     A.U. after   12 cycles
 SCF Done:  E(RB3LYP) =  -1085.33982329     A.U. after   13 cycles
 SCF Done:  E(RB3LYP) =  -1085.33993633     A.U. after   11 cycles
 SCF Done:  E(RB3LYP) =  -1085.34106563     A.U. after    8 cycles
 SCF Done:  E(RB3LYP) =  -1085.34106628     A.U. after    9 cycles
 SCF Done:  E(RB3LYP) =  -1085.34106662     A.U. after    9 cycles
 SCF Done:  E(RB3LYP) =  -1085.34106673     A.U. after    7 cycles
 SCF Done:  E(RB3LYP) =  -1085.34106676     A.U. after    6 cycles
 Optimization completed.
    -- Stationary point found.
 Normal termination of Gaussian 16 at Mon Dec 14 17:15:25 2020.

 --------------------------------------------------------------------
 #N Geom=AllCheck Guess=TCheck SCRF=Check GenChk RB3LYP/6-31G(d) Freq
 --------------------------------------------------------------------

 Structure from the checkpoint file:  "JID_7418.chk"
 ------------------------------
 CID_66384988_JID_7418_neutraal
 ------------------------------
 Charge =  0 Multiplicity = 1

 SCF Done:  E(RB3LYP) =  -1085.34106676     A.U. after    1 cycles

  Exact polarizability: 142.921   6.428 170.570 -10.544   1.622 149.738
 Approx polarizability: 192.697  10.903 282.727 -19.102   1.063 265.932

                      1                      2                      3
                      A                      A                      A
 Frequencies --     16.8311                29.3905                47.7574
 Red. masses --      5.6110                 4.9019                 4.4415
 Frc consts  --      0.0009                 0.0025                 0.0060
 IR Inten    --      0.3966                 1.0191                 0.4173

                      4                      5                      6
                      A                      A                      A
 Frequencies --     63.2844                79.3961                83.6178
 Red. masses --      4.2583                 5.7228                 1.0789
 Frc consts  --      0.0100                 0.0213                 0.0044
 IR Inten    --      1.1647                 0.9374                 0.1685

                      7                      8                      9
                      A                      A                      A
 Frequencies --    124.2166               128.5938               173.3563
 Red. masses --      4.2627                 3.5455                 3.2203
 Frc consts  --      0.0388                 0.0345                 0.0570
 IR Inten    --      0.9258                 0.4911                 1.1503

                     10                     11                     12
                      A                      A                      A
 Frequencies --    198.3987               239.5111               245.8080
 Red. masses --      4.1076                 2.6268                 1.3291
 Frc consts  --      0.0953                 0.0888                 0.0473
 IR Inten    --      0.7189                 1.7389                13.9437

                     13                     14                     15
                      A                      A                      A
 Frequencies --    248.1316               274.1566               293.0572
 Red. masses --      2.5231                 2.3445                 3.1165
 Frc consts  --      0.0915                 0.1038                 0.1577
 IR Inten    --      5.6855                 2.2186                 0.4830

                     16                     17                     18
                      A                      A                      A
 Frequencies --    329.9885               355.8176               392.3517
 Red. masses --      2.1165                 3.6482                 3.2367
 Frc consts  --      0.1358                 0.2721                 0.2936
 IR Inten    --      1.2880                 9.9383                 0.7193

                     19                     20                     21
                      A                      A                      A
 Frequencies --    397.9328               441.0743               468.9791
 Red. masses --      2.5934                 3.4527                 1.5058
 Frc consts  --      0.2420                 0.3958                 0.1951
 IR Inten    --      0.4379                 0.5970                49.8044

                     22                     23                     24
                      A                      A                      A
 Frequencies --    486.4983               524.6699               566.4148
 Red. masses --      3.7117                 4.2204                 3.9617
 Frc consts  --      0.5176                 0.6845                 0.7489
 IR Inten    --      1.7734                 1.7292                 7.1556

                     25                     26                     27
                      A                      A                      A
 Frequencies --    626.5990               647.5585               664.0661
 Red. masses --      2.6985                 3.8390                 2.5630
 Frc consts  --      0.6242                 0.9485                 0.6659
 IR Inten    --     28.7207                 0.9650                 9.5972

                     28                     29                     30
                      A                      A                      A
 Frequencies --    682.9664               696.2778               705.8975
 Red. masses --      2.9603                 3.5679                 2.3625
 Frc consts  --      0.8135                 1.0191                 0.6936
 IR Inten    --     18.2920                 5.3898                11.1812

                     31                     32                     33
                      A                      A                      A
 Frequencies --    713.3383               732.6582               783.7147
 Red. masses --      2.5973                 2.3888                 1.8306
 Frc consts  --      0.7787                 0.7555                 0.6625
 IR Inten    --     15.2531                15.3712               160.8135

                     34                     35                     36
                      A                      A                      A
 Frequencies --    809.0122               827.7234               849.6582
 Red. masses --      2.1532                 1.5287                 3.1222
 Frc consts  --      0.8303                 0.6171                 1.3280
 IR Inten    --     31.1696                98.8906                16.1252

                     37                     38                     39
                      A                      A                      A
 Frequencies --    857.0842               867.3003               905.3866
 Red. masses --      1.4261                 2.1604                 2.1374
 Frc consts  --      0.6172                 0.9575                 1.0323
 IR Inten    --     17.6221                 7.3304                16.7405

                     40                     41                     42
                      A                      A                      A
 Frequencies --    914.2149               951.2059               969.2272
 Red. masses --      1.4160                 2.3493                 2.4183
 Frc consts  --      0.6973                 1.2524                 1.3385
 IR Inten    --     24.3349                 2.4816                40.9600

                     43                     44                     45
                      A                      A                      A
 Frequencies --   1011.7087              1024.1064              1036.8653
 Red. masses --      1.7155                 1.9104                 2.0078
 Frc consts  --      1.0346                 1.1805                 1.2718
 IR Inten    --      5.7282                 7.4152                 8.9164

                     46                     47                     48
                      A                      A                      A
 Frequencies --   1071.7742              1084.6130              1106.9416
 Red. masses --      1.4563                 1.7672                 2.3697
 Frc consts  --      0.9856                 1.2249                 1.7108
 IR Inten    --      3.2187                 2.5797                 9.6450

                     49                     50                     51
                      A                      A                      A
 Frequencies --   1118.4050              1131.9098              1135.4384
 Red. masses --      1.1221                 3.0629                 2.2570
 Frc consts  --      0.8269                 2.3121                 1.7144
 IR Inten    --      6.8546                53.4582                 7.9781

                     52                     53                     54
                      A                      A                      A
 Frequencies --   1145.9719              1185.2963              1228.4909
 Red. masses --      2.8178                 2.5260                 2.4447
 Frc consts  --      2.1802                 2.0909                 2.1738
 IR Inten    --      9.4852                 3.9081                11.0075

                     55                     56                     57
                      A                      A                      A
 Frequencies --   1235.6810              1245.9742              1266.7260
 Red. masses --      1.9060                 1.2821                 1.6967
 Frc consts  --      1.7147                 1.1727                 1.6040
 IR Inten    --      2.1482                 6.5372                 4.0040

                     58                     59                     60
                      A                      A                      A
 Frequencies --   1296.6655              1301.1957              1322.0941
 Red. masses --      1.4627                 1.3489                 1.7910
 Frc consts  --      1.4490                 1.3456                 1.8445
 IR Inten    --      5.4527                 6.1713                19.5740

                     61                     62                     63
                      A                      A                      A
 Frequencies --   1352.3979              1362.6874              1371.8280
 Red. masses --      1.2045                 1.7277                 1.2864
 Frc consts  --      1.2980                 1.8902                 1.4263
 IR Inten    --      3.4212                 4.2531                23.3673

                     64                     65                     66
                      A                      A                      A
 Frequencies --   1399.3938              1407.3794              1432.8029
 Red. masses --      1.3987                 2.7549                 1.4182
 Frc consts  --      1.6138                 3.2150                 1.7154
 IR Inten    --      5.5343                 2.1109                 2.3518

                     67                     68                     69
                      A                      A                      A
 Frequencies --   1441.5297              1455.0493              1465.6548
 Red. masses --      1.4248                 3.4636                 2.1526
 Frc consts  --      1.7444                 4.3205                 2.7245
 IR Inten    --      1.0259                16.8197                 2.8630

                     70                     71                     72
                      A                      A                      A
 Frequencies --   1499.6437              1503.8689              1505.9748
 Red. masses --      1.1557                 1.2266                 3.5762
 Frc consts  --      1.5313                 1.6345                 4.7787
 IR Inten    --      0.0593                 4.2047                12.0158

                     73                     74                     75
                      A                      A                      A
 Frequencies --   1513.3376              1515.9496              1519.4199
 Red. masses --      1.0614                 1.2926                 1.1420
 Frc consts  --      1.4322                 1.7502                 1.5533
 IR Inten    --      3.1439                20.5840                22.0385

                     76                     77                     78
                      A                      A                      A
 Frequencies --   1540.1847              1542.9079              1547.7110
 Red. masses --      1.2232                 1.1182                 1.9490
 Frc consts  --      1.7096                 1.5683                 2.7507
 IR Inten    --      6.0349                12.4906                13.6030

                     79                     80                     81
                      A                      A                      A
 Frequencies --   1634.5764              1639.9380              1691.1792
 Red. masses --      5.5800                 4.6163                 1.1362
 Frc consts  --      8.7840                 7.3148                 1.9146
 IR Inten    --     26.8593                 8.7481                65.3702

                     82                     83                     84
                      A                      A                      A
 Frequencies --   3002.6300              3018.9719              3031.3324
 Red. masses --      1.0643                 1.0688                 1.0650
 Frc consts  --      5.6537                 5.7394                 5.7657
 IR Inten    --     29.7844                59.5626                19.7510

                     85                     86                     87
                      A                      A                      A
 Frequencies --   3039.0527              3040.4741              3054.2321
 Red. masses --      1.0495                 1.0574                 1.0906
 Frc consts  --      5.7111                 5.7591                 5.9939
 IR Inten    --     17.0523                45.4949                54.1777

                     88                     89                     90
                      A                      A                      A
 Frequencies --   3070.1781              3085.0844              3088.4678
 Red. masses --      1.0969                 1.0951                 1.1027
 Frc consts  --      6.0920                 6.1411                 6.1969
 IR Inten    --     35.7573                21.3549                62.2597

                     91                     92                     93
                      A                      A                      A
 Frequencies --   3092.4293              3126.1963              3215.3542
 Red. masses --      1.0995                 1.0997                 1.0913
 Frc consts  --      6.1949                 6.3325                 6.6476
 IR Inten    --     17.7300                12.6643                 6.0985

                     94                     95                     96
                      A                      A                      A
 Frequencies --   3243.6499              3272.9027              3482.6982
 Red. masses --      1.0977                 1.0964                 1.0729
 Frc consts  --      6.8047                 6.9197                 7.6673
 IR Inten    --      5.2373                 0.6527                 0.2529

                     97                     98                     99
                      A                      A                      A
 Frequencies --   3510.8765              3605.7790              3659.2268
 Red. masses --      1.0491                 1.0955                 1.0809
 Frc consts  --      7.6189                 8.3916                 8.5272
 IR Inten    --      4.7847                 6.4325                51.2281

 - Thermochemistry -
 -------------------
 Temperature   298.150 Kelvin.  Pressure   1.00000 Atm.
 Atom     1 has atomic number  6 and mass  12.00000

 Molecular mass:   250.12522 amu.
 Principal axes and moments of inertia in atomic units:
                           1         2         3
     Eigenvalues --  3047.204745523.030926518.41977
           X            0.99956   0.01179  -0.02712
           Y           -0.01161   0.99991   0.00659
           Z            0.02720  -0.00627   0.99961
 This molecule is an asymmetric top.
 Rotational symmetry number  1.
 Warning -- assumption of classical behavior for rotation
           may cause significant error
 Rotational temperatures (Kelvin)      0.02842     0.01568     0.01329
 Rotational constants (GHZ):           0.59226     0.32677     0.27687
 Zero-point vibrational energy     779641.8 (Joules/Mol)
                                  186.33887 (Kcal/Mol)
 Warning -- explicit consideration of  24 degrees of freedom as
           vibrations may cause significant error
 Vibrational temperatures:     24.22    42.29    68.71    91.05   114.23
          (Kelvin)            120.31   178.72   185.02   249.42   285.45
                              344.60   353.66   357.01   394.45   421.64
                              474.78   511.94   564.51   572.54   634.61
                              674.76   699.96   754.88   814.94   901.54
                              931.69   955.44   982.64  1001.79  1015.63
                             1026.33  1054.13  1127.59  1163.99  1190.91
                             1222.47  1233.15  1247.85  1302.65  1315.35
                             1368.57  1394.50  1455.62  1473.46  1491.82
                             1542.04  1560.52  1592.64  1609.14  1628.57
                             1633.64  1648.80  1705.38  1767.52  1777.87
                             1792.68  1822.54  1865.61  1872.13  1902.20
                             1945.80  1960.60  1973.75  2013.42  2024.91
                             2061.48  2074.04  2093.49  2108.75  2157.65
                             2163.73  2166.76  2177.36  2181.11  2186.11
                             2215.98  2219.90  2226.81  2351.79  2359.50
                             2433.23  4320.11  4343.63  4361.41  4372.52
                             4374.56  4394.36  4417.30  4438.75  4443.62
                             4449.32  4497.90  4626.18  4666.89  4708.98
                             5010.83  5051.37  5187.91  5264.81

 Zero-point correction=                           0.296950 (Hartree/Particle)
 Thermal correction to Energy=                    0.314223
 Thermal correction to Enthalpy=                  0.315168
 Thermal correction to Gibbs Free Energy=         0.249901
 Sum of electronic and zero-point Energies=          -1085.044117
 Sum of electronic and thermal Energies=             -1085.026843
 Sum of electronic and thermal Enthalpies=           -1085.025899
 Sum of electronic and thermal Free Energies=        -1085.091166

                     E (Thermal)             CV                S
                      KCal/Mol        Cal/Mol-Kelvin    Cal/Mol-Kelvin
 Total                  197.178             64.823            137.366
 Electronic               0.000              0.000              0.000
 Translational            0.889              2.981             42.451
 Rotational               0.889              2.981             33.061
 Vibrational            195.401             58.861             61.854
 Vibration     1          0.593              1.986              6.977
 Vibration     2          0.593              1.984              5.870
 Vibration     3          0.595              1.978              4.908
 Vibration     4          0.597              1.972              4.352
 Vibration     5          0.600              1.963              3.906
 Vibration     6          0.601              1.960              3.804
 Vibration     7          0.610              1.929              3.034
 Vibration     8          0.611              1.925              2.967
 Vibration     9          0.627              1.875              2.399
 Vibration    10          0.637              1.842              2.148
 Vibration    11          0.657              1.780              1.807
 Vibration    12          0.660              1.770              1.760
 Vibration    13          0.662              1.766              1.744
 Vibration    14          0.676              1.721              1.570
 Vibration    15          0.688              1.687              1.456
 Vibration    16          0.713              1.616              1.260
 Vibration    17          0.731              1.563              1.140
 Vibration    18          0.760              1.487              0.991
 Vibration    19          0.764              1.475              0.970
 Vibration    20          0.801              1.381              0.823
 Vibration    21          0.826              1.319              0.740
 Vibration    22          0.843              1.280              0.693
 Vibration    23          0.880              1.195              0.599
 Vibration    24          0.922              1.104              0.511

 Optimization completed.
    -- Stationary point found.
 Normal termination of Gaussian 16 at Mon Dec 14 17:31:01 2020.

 ----------------------------------------------------------------------
 # B3LYP/6-311++G(d,p) empiricaldispersion=gd3bj scf=xqc pop=npa geom=c
 heck
 ----------------------------------------------------------------------

 --------------------------------------
 CID_66384988_JID_7418_Energie_neutraal
 --------------------------------------
 Structure from the checkpoint file:  "JID_7418.chk"
 Charge =  0 Multiplicity = 1

 SCF Done:  E(RB3LYP) =  -1085.56542087     A.U. after   16 cycles
 Normal termination of Gaussian 16 at Mon Dec 14 17:39:11 2020.

 ----------------------------------------------------------------------
 # B3LYP/6-311++G(d,p) empiricaldispersion=gd3bj scf=xqc pop=npa geom=c
 heck
 ----------------------------------------------------------------------

 ------------------------------------
 CID_66384988_JID_7418_Energie_kation
 ------------------------------------
 Structure from the checkpoint file:  "JID_7418.chk"
 Charge =  1 Multiplicity = 2

 SCF Done:  E(UB3LYP) =  -1085.29944396     A.U. after   28 cycles
 Normal termination of Gaussian 16 at Mon Dec 14 17:59:21 2020.
 Gaussian 16:  ES64L-G16RevA.03 25-Dec-2016

 ----------------------------------------------------------------------
 # B3LYP/6-311++G(d,p) empiricaldispersion=gd3bj scf=xqc pop=npa geom=c
 heck
 ----------------------------------------------------------------------

 -----------------------------------
 CID_66384988_JID_7418_Energie_anion
 -----------------------------------
 Structure from the checkpoint file:  "JID_7418.chk"
 Charge = -1 Multiplicity = 2

                         Standard orientation:
 ---------------------------------------------------------------------
 Center     Atomic      Atomic             Coordinates (Angstroms)
 Number     Number       Type             X           Y           Z
 ---------------------------------------------------------------------
      1          6           0        4.042492   -0.512659   -1.156544
      2          6           0        2.905013   -0.829383   -0.241329
      3          6           0        2.158398   -0.023927    0.609932
      4          6           0        1.206062   -0.903514    1.184737
      5          7           0        1.339402   -2.154477    0.744425
      6          7           0        2.376906   -2.080381   -0.121922
      7          6           0        2.297825    1.455582    0.825262
      8          6           0        1.754304    2.312358   -0.340061
      9          6           0        0.309565    1.996031   -0.723850
     10          7           0       -0.616662    2.309180    0.367513
     11          6           0       -2.008626    1.950352    0.056579
     12          6           0       -2.264275    0.475894   -0.115218
     13          6           0       -2.217001   -0.475973    0.878737
     14          6           0       -2.329260   -1.814751    0.383663
     15          6           0       -2.461318   -1.865455   -0.974481
     16         16           0       -2.443257   -0.283497   -1.679294
     17          7           0       -1.983294   -0.173474    2.238939
     18          1           0        4.765942   -1.335173   -1.203715
     19          1           0        3.703390   -0.308941   -2.180585
     20          1           0        4.573962    0.376964   -0.804989
     21          1           0        0.424382   -0.663271    1.894835
     22          1           0        2.683449   -2.921096   -0.587690
     23          1           0        1.783953    1.731384    1.754366
     24          1           0        3.352016    1.720364    0.984482
     25          1           0        1.836850    3.373332   -0.073890
     26          1           0        2.384370    2.147961   -1.224069
     27          1           0        0.021125    2.613266   -1.585334
     28          1           0        0.246570    0.944823   -1.047169
     29          1           0       -0.341864    1.764848    1.184732
     30          1           0       -2.637364    2.339773    0.870423
     31          1           0       -2.306589    2.499355   -0.843904
     32          1           0       -2.291743   -2.693643    1.018503
     33          1           0       -2.571362   -2.741726   -1.597975
     34          1           0       -2.302968   -0.910650    2.858673
     35          1           0       -2.405543    0.705111    2.524756
 ---------------------------------------------------------------------

 SCF Done:  E(UB3LYP) =  -1085.55428726     A.U. after   33 cycles
 SCF Done:  E(UB3LYP) =  -1085.55428726     a.u. after    1 cycles

 The electronic state is 2-A.
 Alpha  occ. eigenvalues --  -88.77722 -14.27583 -14.22259 -14.22085 -14.20234
 Alpha  occ. eigenvalues --  -10.11421 -10.11124 -10.10805 -10.10378 -10.09247
 Alpha  occ. eigenvalues --  -10.09036 -10.08070 -10.08064 -10.07892 -10.07575
 Alpha  occ. eigenvalues --  -10.07255 -10.06311  -7.86333  -5.82625  -5.82265
 Alpha  occ. eigenvalues --   -5.81922  -0.93715  -0.83081  -0.80920  -0.76510
 Alpha  occ. eigenvalues --   -0.72094  -0.71349  -0.67185  -0.64468  -0.62303
 Alpha  occ. eigenvalues --   -0.61132  -0.58657  -0.55508  -0.50582  -0.49583
 Alpha  occ. eigenvalues --   -0.48360  -0.45343  -0.44737  -0.41781  -0.41314
 Alpha  occ. eigenvalues --   -0.39515  -0.38837  -0.37270  -0.35696  -0.34423
 Alpha  occ. eigenvalues --   -0.33783  -0.33342  -0.32478  -0.32115  -0.30852
 Alpha  occ. eigenvalues --   -0.30664  -0.30265  -0.29505  -0.29212  -0.27477
 Alpha  occ. eigenvalues --   -0.26658  -0.25304  -0.25049  -0.24696  -0.23933
 Alpha  occ. eigenvalues --   -0.22224  -0.18617  -0.15270  -0.14721  -0.14109
 Alpha  occ. eigenvalues --   -0.13075  -0.10994   0.04025
 Alpha virt. eigenvalues --    0.05256   0.06967   0.07491   0.07647   0.07901
 Alpha virt. eigenvalues --    0.08372   0.08864   0.09206   0.10123   0.10461
 Alpha virt. eigenvalues --    0.10887   0.11309   0.11739   0.11983   0.12210

  Beta  occ. eigenvalues --  -88.77720 -14.27555 -14.22194 -14.22081 -14.20226
  Beta  occ. eigenvalues --  -10.11418 -10.11106 -10.10804 -10.10360 -10.09244
  Beta  occ. eigenvalues --  -10.09031 -10.08063 -10.08009 -10.07882 -10.07571
  Beta  occ. eigenvalues --  -10.07247 -10.06309  -7.86331  -5.82622  -5.82263
  Beta  occ. eigenvalues --   -5.81917  -0.93692  -0.83022  -0.80885  -0.76459
  Beta  occ. eigenvalues --   -0.72068  -0.71325  -0.67155  -0.64439  -0.62257
  Beta  occ. eigenvalues --   -0.61073  -0.58621  -0.55468  -0.50545  -0.49558
  Beta  occ. eigenvalues --   -0.48331  -0.45311  -0.44672  -0.41744  -0.41267
  Beta  occ. eigenvalues --   -0.39456  -0.38809  -0.37239  -0.35667  -0.34389
  Beta  occ. eigenvalues --   -0.33750  -0.33306  -0.32445  -0.32091  -0.30832
  Beta  occ. eigenvalues --   -0.30631  -0.30228  -0.29478  -0.29175  -0.27447
  Beta  occ. eigenvalues --   -0.26636  -0.25287  -0.25032  -0.24678  -0.23911
  Beta  occ. eigenvalues --   -0.22168  -0.18601  -0.15250  -0.14688  -0.14095
  Beta  occ. eigenvalues --   -0.13063  -0.10949
  Beta virt. eigenvalues --    0.06327   0.06736   0.07294   0.07713   0.07778
  Beta virt. eigenvalues --    0.08247   0.08822   0.09301   0.09605   0.10218
  Beta virt. eigenvalues --    0.10680   0.11223   0.11658   0.11839   0.12044

 Mulliken charges and spin densities:
               1          2
     1  C    1.942451  -2.610450
     2  C   -1.412022   1.454130
     3  C    0.866650  -0.333995
     4  C   -0.164996  -0.373529
     5  N   -0.161347   0.122648
     6  N   -0.044240  -0.051035
     7  C   -1.109523   0.387347
     8  C    0.290213  -0.610821
     9  C   -0.630411   0.252685
    10  N    0.124085   0.057651
    11  C    0.613625  -1.585601
    12  C   -0.179428   0.940544
    13  C   -0.569733   0.051018
    14  C    1.294097  -1.067056
    15  C   -0.783129   0.052846
    16  S   -0.038193   0.299579
    17  N   -0.447120   0.057205
    18  H   -0.645118   0.792834
    19  H   -0.243063   0.429669
    20  H   -0.189721   0.349574
    21  H    0.297980  -0.041898
    22  H   -0.037024   0.371443
    23  H    0.068030   0.109818
    24  H   -0.037113   0.209357
    25  H    0.079358   0.072837
    26  H    0.077121   0.061936
    27  H    0.019193   0.151933
    28  H    0.253681  -0.203875
    29  H    0.295613  -0.116880
    30  H   -0.238250   0.422570
    31  H    0.088783   0.048778
    32  H    0.014796   0.152545
    33  H    0.159780   0.063086
    34  H   -0.256377   0.518975
    35  H   -0.298648   0.564131
 Sum of Mulliken charges =  -1.00000   1.00000

 Dipole moment (field-independent basis, Debye):
    X=             -3.2105    Y=              1.4028    Z=             -2.6809  Tot=              4.4116
 Quadrupole moment (field-independent basis, Debye-Ang):
   XX=           -189.8322   YY=           -151.1127   ZZ=           -153.0028
   XY=             13.9930   XZ=             20.8494   YZ=             -2.4480

 Summary of Natural Population Analysis:

                                       Natural Population
                Natural  -----------------------------------------------
    Atom  No    Charge         Core      Valence    Rydberg      Total
 -----------------------------------------------------------------------
      C    1   -0.30188      0.99964     2.29616    0.00608     3.30188
      C    2    0.07935      0.99949     1.90917    0.01200     2.92065
      C    3   -0.07956      0.99946     2.06890    0.01121     3.07956
      C    4   -0.01346      0.99956     2.00017    0.01373     3.01346
      N    5   -0.15774      0.99974     2.64513    0.01287     3.65774
      N    6   -0.16945      0.99965     2.65672    0.01308     3.66945
      C    7   -0.19858      0.99960     2.19069    0.00828     3.19858
      C    8   -0.18695      0.99962     2.17888    0.00844     3.18695
      C    9   -0.09197      0.99962     2.08299    0.00936     3.09197
      N   10   -0.33904      0.99975     2.82785    0.01144     3.83904
      C   11   -0.10292      0.99957     2.08887    0.01448     3.10292
      C   12   -0.14086      0.99941     2.12809    0.01336     3.14086
      C   13    0.05454      0.99936     1.93142    0.01469     2.94546
      C   14   -0.12865      0.99948     2.11813    0.01103     3.12865
      C   15   -0.18724      0.99954     2.17752    0.01018     3.18724
      S   16    0.20126      4.99941     2.77930    0.02003     7.79874
      N   17   -0.40422      0.99972     2.89259    0.01191     3.90422
      H   18    0.10889      0.00000     0.38870    0.00241     0.39111
      H   19    0.10738      0.00000     0.39110    0.00152     0.39262
      H   20    0.10867      0.00000     0.39007    0.00126     0.39133
      H   21    0.10674      0.00000     0.39079    0.00248     0.39326
      H   22    0.19795      0.00000     0.29880    0.00324     0.30205
      H   23    0.10047      0.00000     0.39824    0.00129     0.39953
      H   24    0.10314      0.00000     0.39579    0.00107     0.39686
      H   25    0.09652      0.00000     0.40225    0.00123     0.40348
      H   26    0.09675      0.00000     0.40221    0.00104     0.40325
      H   27    0.08866      0.00000     0.41022    0.00111     0.41134
      H   28    0.08913      0.00000     0.40815    0.00273     0.41087
      H   29    0.17327      0.00000     0.32168    0.00504     0.32673
      H   30    0.10086      0.00000     0.39771    0.00143     0.39914
      H   31    0.09737      0.00000     0.40157    0.00106     0.40263
      H   32    0.10810      0.00000     0.39079    0.00110     0.39190
      H   33    0.10774      0.00000     0.39152    0.00075     0.39226
      H   34    0.18782      0.00000     0.30854    0.00364     0.31218
      H   35    0.18792      0.00000     0.30777    0.00431     0.31208
 =======================================================================
   * Total *    0.00000     20.99263    45.76848    0.23889    67.00000

 Normal termination of Gaussian 16 at Mon Dec 14 18:23:05 2020.
