 Gaussian 16, Revision A.03,

 -----------------------------------------------------------
 # opt freq B3LYP/6-31G(d) empiricaldispersion=gd3bj scf=xqc
 -----------------------------------------------------------

 ------------------------------
 CID_61843407_JID_9972_neutraal
 ------------------------------
 Symbolic Z-matrix:
 Charge =  0 Multiplicity = 1

 SCF Done:  E(RB3LYP) =  -1242.00701291     A.U. after   15 cycles
 SCF Done:  E(RB3LYP) =  -1242.01460144     A.U. after   12 cycles
 SCF Done:  E(RB3LYP) =  -1242.01473336     A.U. after   13 cycles
 SCF Done:  E(RB3LYP) =  -1242.01435460     A.U. after   13 cycles
 SCF Done:  E(RB3LYP) =  -1242.01633963     A.U. after   13 cycles
 SCF Done:  E(RB3LYP) =  -1242.01695600     A.U. after   12 cycles
 SCF Done:  E(RB3LYP) =  -1242.01751399     A.U. after   13 cycles
 SCF Done:  E(RB3LYP) =  -1242.01825830     A.U. after   12 cycles
 SCF Done:  E(RB3LYP) =  -1242.01890000     A.U. after   13 cycles
 SCF Done:  E(RB3LYP) =  -1242.01779756     A.U. after   13 cycles
 SCF Done:  E(RB3LYP) =  -1242.02702424     A.U. after    9 cycles
 SCF Done:  E(RB3LYP) =  -1242.02702503     A.U. after    8 cycles
 SCF Done:  E(RB3LYP) =  -1242.02702518     A.U. after    7 cycles
 SCF Done:  E(RB3LYP) =  -1242.02702524     A.U. after    7 cycles
 Optimization completed.
    -- Stationary point found.
 Normal termination of Gaussian 16 at Sat Dec 12 11:06:48 2020.

 --------------------------------------------------------------------
 #N Geom=AllCheck Guess=TCheck SCRF=Check GenChk RB3LYP/6-31G(d) Freq
 --------------------------------------------------------------------

 Structure from the checkpoint file:  "JID_9972.chk"
 ------------------------------
 CID_61843407_JID_9972_neutraal
 ------------------------------
 Charge =  0 Multiplicity = 1

 SCF Done:  E(RB3LYP) =  -1242.02702524     A.U. after    1 cycles

  Exact polarizability: 189.038  -1.084 164.866  -0.103  -3.213 140.321
 Approx polarizability: 265.252 -15.373 238.228   5.143  -5.694 225.463

                      1                      2                      3
                      A                      A                      A
 Frequencies --     36.0751                51.5826                73.8743
 Red. masses --      5.5265                 5.7764                 5.4297
 Frc consts  --      0.0042                 0.0091                 0.0175
 IR Inten    --      2.7961                 3.5216                 7.0337

                      4                      5                      6
                      A                      A                      A
 Frequencies --     77.1047                90.4886               101.7717
 Red. masses --      4.0288                 5.1857                 4.7155
 Frc consts  --      0.0141                 0.0250                 0.0288
 IR Inten    --      1.0730                 0.2450                 2.5249

                      7                      8                      9
                      A                      A                      A
 Frequencies --    128.7264               141.4448               157.3064
 Red. masses --      4.0305                 4.3098                 5.4492
 Frc consts  --      0.0393                 0.0508                 0.0794
 IR Inten    --      1.7628                 0.9813                 2.0171

                     10                     11                     12
                      A                      A                      A
 Frequencies --    171.3942               177.2772               189.4738
 Red. masses --      4.4936                 2.8822                 2.8899
 Frc consts  --      0.0778                 0.0534                 0.0611
 IR Inten    --      9.2643                 3.2963                 8.3949

                     13                     14                     15
                      A                      A                      A
 Frequencies --    221.8387               235.7924               240.0664
 Red. masses --      1.2752                 3.0151                 2.3773
 Frc consts  --      0.0370                 0.0988                 0.0807
 IR Inten    --      1.3626                 5.7391                 2.1595

                     16                     17                     18
                      A                      A                      A
 Frequencies --    262.4843               286.9830               298.2952
 Red. masses --      3.5520                 3.5255                 3.5346
 Frc consts  --      0.1442                 0.1711                 0.1853
 IR Inten    --      2.9586                 0.5710                 2.3021

                     19                     20                     21
                      A                      A                      A
 Frequencies --    324.9262               340.5583               351.2624
 Red. masses --      2.0541                 2.9145                 3.4459
 Frc consts  --      0.1278                 0.1992                 0.2505
 IR Inten    --      0.5952                 3.1352                 1.2867

                     22                     23                     24
                      A                      A                      A
 Frequencies --    365.5928               407.3541               425.7996
 Red. masses --      2.9521                 2.3949                 2.1811
 Frc consts  --      0.2325                 0.2341                 0.2330
 IR Inten    --      1.0795                 1.2742                 4.7221

                     25                     26                     27
                      A                      A                      A
 Frequencies --    455.4148               466.5379               489.9495
 Red. masses --      4.3546                 8.3211                 3.4953
 Frc consts  --      0.5321                 1.0671                 0.4943
 IR Inten    --     11.2550                17.8460                 5.4003

                     28                     29                     30
                      A                      A                      A
 Frequencies --    505.2051               507.1276               554.8662
 Red. masses --      3.0814                 1.9971                 5.0355
 Frc consts  --      0.4634                 0.3026                 0.9134
 IR Inten    --     10.8696                 2.8763                16.4904

                     31                     32                     33
                      A                      A                      A
 Frequencies --    606.3947               621.0524               647.6240
 Red. masses --      3.8841                 3.9840                 3.3148
 Frc consts  --      0.8415                 0.9054                 0.8191
 IR Inten    --      1.9408                16.0429                20.5185

                     34                     35                     36
                      A                      A                      A
 Frequencies --    660.6638               674.1022               750.3251
 Red. masses --      2.0667                 2.4690                 4.7221
 Frc consts  --      0.5315                 0.6610                 1.5663
 IR Inten    --     22.5615                20.2985                37.8145

                     37                     38                     39
                      A                      A                      A
 Frequencies --    755.7065               761.3698               785.9709
 Red. masses --      3.1459                 1.3270                 2.6370
 Frc consts  --      1.0585                 0.4532                 0.9598
 IR Inten    --     64.3643                 5.6405                 4.8945

                     40                     41                     42
                      A                      A                      A
 Frequencies --    853.6029               867.0784               876.7029
 Red. masses --      2.0552                 1.8437                 2.7093
 Frc consts  --      0.8823                 0.8167                 1.2269
 IR Inten    --      5.6792                17.7647                12.3124

                     43                     44                     45
                      A                      A                      A
 Frequencies --    888.0864               900.3272               926.2010
 Red. masses --      1.7880                 1.8493                 1.7596
 Frc consts  --      0.8308                 0.8832                 0.8893
 IR Inten    --      2.1992                 0.9170                 5.5038

                     46                     47                     48
                      A                      A                      A
 Frequencies --    950.5373               973.9795               997.1211
 Red. masses --      1.8663                 2.1737                 1.4127
 Frc consts  --      0.9935                 1.2149                 0.8275
 IR Inten    --      0.1104                 1.9046                 8.5678

                     49                     50                     51
                      A                      A                      A
 Frequencies --   1002.0903              1012.7185              1032.4495
 Red. masses --      2.0756                 1.8465                 2.3322
 Frc consts  --      1.2280                 1.1158                 1.4647
 IR Inten    --     12.3236                20.3836                 0.5676

                     52                     53                     54
                      A                      A                      A
 Frequencies --   1056.6047              1071.2069              1072.7764
 Red. masses --      2.0750                 2.1676                 1.6926
 Frc consts  --      1.3649                 1.4655                 1.1477
 IR Inten    --     10.4873                 0.4468                 0.6967

                     55                     56                     57
                      A                      A                      A
 Frequencies --   1097.8128              1106.0030              1110.2520
 Red. masses --      2.8509                 3.6603                 1.8300
 Frc consts  --      2.0243                 2.6380                 1.3291
 IR Inten    --      1.6230                88.8458                 1.7002

                     58                     59                     60
                      A                      A                      A
 Frequencies --   1133.2662              1142.1237              1157.8911
 Red. masses --      3.3068                 2.2382                 3.3242
 Frc consts  --      2.5022                 1.7202                 2.6258
 IR Inten    --     38.1489                 0.6246                 4.0458

                     61                     62                     63
                      A                      A                      A
 Frequencies --   1184.4952              1236.9921              1238.5510
 Red. masses --      1.2256                 1.5146                 1.5490
 Frc consts  --      1.0132                 1.3654                 1.4000
 IR Inten    --     43.1998                46.5354                41.0664

                     64                     65                     66
                      A                      A                      A
 Frequencies --   1253.5444              1266.8063              1292.4876
 Red. masses --      1.2068                 1.2878                 1.3243
 Frc consts  --      1.1173                 1.2176                 1.3034
 IR Inten    --      0.1819                 6.3940                 0.3213

                     67                     68                     69
                      A                      A                      A
 Frequencies --   1303.2631              1319.8398              1328.9460
 Red. masses --      4.4895                 1.4579                 1.2243
 Frc consts  --      4.4928                 1.4963                 1.2740
 IR Inten    --    114.2281                94.2506                 2.8033

                     70                     71                     72
                      A                      A                      A
 Frequencies --   1336.9887              1341.4175              1367.9638
 Red. masses --      1.2587                 1.2915                 1.6974
 Frc consts  --      1.3257                 1.3692                 1.8715
 IR Inten    --     37.6834                53.0329                87.4378

                     73                     74                     75
                      A                      A                      A
 Frequencies --   1374.4328              1378.3553              1396.6961
 Red. masses --      1.3158                 1.2039                 1.3625
 Frc consts  --      1.4645                 1.3476                 1.5660
 IR Inten    --      8.9598                25.2781                 2.8244

                     76                     77                     78
                      A                      A                      A
 Frequencies --   1399.5154              1410.6421              1413.8357
 Red. masses --      1.3649                 1.4607                 1.4460
 Frc consts  --      1.5751                 1.7126                 1.7030
 IR Inten    --      3.1915                24.2054                 3.9863

                     79                     80                     81
                      A                      A                      A
 Frequencies --   1419.3742              1420.8030              1427.4485
 Red. masses --      1.3723                 1.3858                 1.3725
 Frc consts  --      1.6289                 1.6482                 1.6477
 IR Inten    --      3.4204                 2.0113                 1.9179

                     82                     83                     84
                      A                      A                      A
 Frequencies --   1480.7035              1492.7926              1500.9633
 Red. masses --      1.0493                 1.1160                 1.2796
 Frc consts  --      1.3555                 1.4652                 1.6985
 IR Inten    --      0.7590                13.8381                18.4543

                     85                     86                     87
                      A                      A                      A
 Frequencies --   1501.5342              1508.8767              1517.3926
 Red. masses --      1.1152                 1.0800                 1.0825
 Frc consts  --      1.4815                 1.4487                 1.4685
 IR Inten    --     21.3035                 4.9920                 2.0435

                     88                     89                     90
                      A                      A                      A
 Frequencies --   1520.3035              1521.9143              1525.0896
 Red. masses --      1.0894                 1.1694                 1.0797
 Frc consts  --      1.4835                 1.5958                 1.4796
 IR Inten    --      0.3657                 0.1774                 5.1425

                     91                     92                     93
                      A                      A                      A
 Frequencies --   1536.0361              1542.0649              1552.9680
 Red. masses --      1.0825                 1.0877                 1.0808
 Frc consts  --      1.5048                 1.5239                 1.5358
 IR Inten    --     11.5718                 7.3712                 3.5076

                     94                     95                     96
                      A                      A                      A
 Frequencies --   1785.6758              2349.7268              3031.1096
 Red. masses --      8.3074                12.6760                 1.0647
 Frc consts  --     15.6071                41.2352                 5.7632
 IR Inten    --    356.1742                24.5232                20.8533

                     97                     98                     99
                      A                      A                      A
 Frequencies --   3033.0333              3038.4818              3045.1451
 Red. masses --      1.0746                 1.0632                 1.0653
 Frc consts  --      5.8245                 5.7832                 5.8203
 IR Inten    --     33.2513                17.1699                 8.7458

                    100                    101                    102
                      A                      A                      A
 Frequencies --   3053.6139              3059.5949              3071.2840
 Red. masses --      1.0671                 1.0647                 1.0920
 Frc consts  --      5.8626                 5.8723                 6.0690
 IR Inten    --     26.0173                27.4439                30.3130

                    103                    104                    105
                      A                      A                      A
 Frequencies --   3075.0511              3079.1125              3082.0932
 Red. masses --      1.0940                 1.0784                 1.0291
 Frc consts  --      6.0952                 6.0237                 5.7598
 IR Inten    --     50.4285                14.3046                 8.1628

                    106                    107                    108
                      A                      A                      A
 Frequencies --   3086.3322              3089.1707              3097.4891
 Red. masses --      1.0892                 1.0710                 1.0799
 Frc consts  --      6.1127                 6.0220                 6.1044
 IR Inten    --     11.5826                30.0600                11.3718

                    109                    110                    111
                      A                      A                      A
 Frequencies --   3101.7025              3105.4395              3123.8863
 Red. masses --      1.0966                 1.0788                 1.1000
 Frc consts  --      6.2157                 6.1298                 6.3246
 IR Inten    --     47.2097                 8.7268                25.7351

                    112                    113                    114
                      A                      A                      A
 Frequencies --   3130.3566              3167.7817              3182.1830
 Red. masses --      1.1039                 1.1067                 1.1062
 Frc consts  --      6.3734                 6.5435                 6.5996
 IR Inten    --     19.5509                 0.0516                 1.4731

                    115                    116                    117
                      A                      A                      A
 Frequencies --   3198.1129              3203.8407              3557.0354
 Red. masses --      1.1088                 1.0900                 1.0748
 Frc consts  --      6.6820                 6.5920                 8.0120
 IR Inten    --      9.8868                 1.4606                16.5369

 - Thermochemistry -
 -------------------
 Temperature   298.150 Kelvin.  Pressure   1.00000 Atm.
 Atom     1 has atomic number  6 and mass  12.00000

 Molecular mass:   286.13511 amu.
 Principal axes and moments of inertia in atomic units:
                           1         2         3
     Eigenvalues --  3321.931407558.567579147.41653
           X            0.99949   0.03045   0.01010
           Y           -0.03029   0.99942  -0.01554
           Z           -0.01057   0.01523   0.99983
 This molecule is an asymmetric top.
 Rotational symmetry number  1.
 Warning -- assumption of classical behavior for rotation
           may cause significant error
 Rotational temperatures (Kelvin)      0.02607     0.01146     0.00947
 Rotational constants (GHZ):           0.54328     0.23877     0.19730
 Zero-point vibrational energy     925245.1 (Joules/Mol)
                                  221.13889 (Kcal/Mol)
 Warning -- explicit consideration of  31 degrees of freedom as
           vibrations may cause significant error
 Vibrational temperatures:     51.90    74.22   106.29   110.94   130.19
          (Kelvin)            146.43   185.21   203.51   226.33   246.60
                              255.06   272.61   319.18   339.25   345.40
                              377.66   412.90   429.18   467.50   489.99
                              505.39   526.01   586.09   612.63   655.24
                              671.24   704.93   726.88   729.64   798.33
                              872.47   893.56   931.79   950.55   969.88
                             1079.55  1087.29  1095.44  1130.84  1228.14
                             1247.53  1261.38  1277.76  1295.37  1332.60
                             1367.61  1401.34  1434.63  1441.78  1457.08
                             1485.46  1520.22  1541.23  1543.49  1579.51
                             1591.29  1597.41  1630.52  1643.26  1665.95
                             1704.22  1779.76  1782.00  1803.57  1822.65
                             1859.60  1875.10  1898.96  1912.06  1923.63
                             1930.00  1968.19  1977.50  1983.15  2009.53
                             2013.59  2029.60  2034.19  2042.16  2044.22
                             2053.78  2130.40  2147.80  2159.55  2160.37
                             2170.94  2183.19  2187.38  2189.70  2194.26
                             2210.01  2218.69  2234.37  2569.19  3380.73
                             4361.09  4363.86  4371.70  4381.28  4393.47
                             4402.07  4418.89  4424.31  4430.16  4434.44
                             4440.54  4444.63  4456.60  4462.66  4468.03
                             4494.58  4503.88  4557.73  4578.45  4601.37
                             4609.61  5117.78

 Zero-point correction=                           0.352407 (Hartree/Particle)
 Thermal correction to Energy=                    0.372130
 Thermal correction to Enthalpy=                  0.373075
 Thermal correction to Gibbs Free Energy=         0.304858
 Sum of electronic and zero-point Energies=          -1241.674618
 Sum of electronic and thermal Energies=             -1241.654895
 Sum of electronic and thermal Enthalpies=           -1241.653951
 Sum of electronic and thermal Free Energies=        -1241.722167

                     E (Thermal)             CV                S
                      KCal/Mol        Cal/Mol-Kelvin    Cal/Mol-Kelvin
 Total                  233.515             75.513            143.573
 Electronic               0.000              0.000              0.000
 Translational            0.889              2.981             42.852
 Rotational               0.889              2.981             33.795
 Vibrational            231.738             69.551             66.926
 Vibration     1          0.594              1.982              5.464
 Vibration     2          0.596              1.977              4.756
 Vibration     3          0.599              1.966              4.047
 Vibration     4          0.599              1.964              3.963
 Vibration     5          0.602              1.956              3.649
 Vibration     6          0.604              1.948              3.420
 Vibration     7          0.611              1.925              2.965
 Vibration     8          0.615              1.912              2.784
 Vibration     9          0.621              1.894              2.582
 Vibration    10          0.626              1.878              2.420
 Vibration    11          0.628              1.870              2.357
 Vibration    12          0.633              1.854              2.233
 Vibration    13          0.648              1.808              1.944
 Vibration    14          0.655              1.786              1.834
 Vibration    15          0.657              1.779              1.802
 Vibration    16          0.670              1.742              1.645
 Vibration    17          0.684              1.698              1.492
 Vibration    18          0.691              1.677              1.426
 Vibration    19          0.709              1.626              1.285
 Vibration    20          0.720              1.594              1.210
 Vibration    21          0.728              1.573              1.161
 Vibration    22          0.739              1.543              1.098
 Vibration    23          0.772              1.454              0.936
 Vibration    24          0.788              1.414              0.872
 Vibration    25          0.814              1.349              0.780
 Vibration    26          0.824              1.324              0.747
 Vibration    27          0.846              1.272              0.684
 Vibration    28          0.860              1.238              0.645
 Vibration    29          0.862              1.234              0.641
 Vibration    30          0.910              1.129              0.534
 Vibration    31          0.965              1.018              0.439

 Optimization completed.
    -- Stationary point found.
 Normal termination of Gaussian 16 at Sat Dec 12 11:30:11 2020.

 ----------------------------------------------------------------------
 # B3LYP/6-311++G(d,p) empiricaldispersion=gd3bj scf=xqc pop=npa geom=c
 heck
 ----------------------------------------------------------------------

 --------------------------------------
 CID_61843407_JID_9972_Energie_neutraal
 --------------------------------------
 Structure from the checkpoint file:  "JID_9972.chk"
 Charge =  0 Multiplicity = 1

 SCF Done:  E(RB3LYP) =  -1242.29597196     A.U. after   16 cycles
 Normal termination of Gaussian 16 at Sat Dec 12 11:41:38 2020.

 ----------------------------------------------------------------------
 # B3LYP/6-311++G(d,p) empiricaldispersion=gd3bj scf=xqc pop=npa geom=c
 heck
 ----------------------------------------------------------------------

 ------------------------------------
 CID_61843407_JID_9972_Energie_kation
 ------------------------------------
 Structure from the checkpoint file:  "JID_9972.chk"
 Charge =  1 Multiplicity = 2

 SCF Done:  E(UB3LYP) =  -1241.95659669     A.U. after   33 cycles
 SCF Done:  E(UB3LYP) =  -1241.95659669     a.u. after    1 cycles
 Normal termination of Gaussian 16 at Sat Dec 12 12:14:19 2020.
 Gaussian 16:  ES64L-G16RevA.03 25-Dec-2016

 ----------------------------------------------------------------------
 # B3LYP/6-311++G(d,p) empiricaldispersion=gd3bj scf=xqc pop=npa geom=c
 heck
 ----------------------------------------------------------------------

 -----------------------------------
 CID_61843407_JID_9972_Energie_anion
 -----------------------------------
 Structure from the checkpoint file:  "JID_9972.chk"
 Charge = -1 Multiplicity = 2

                         Standard orientation:
 ---------------------------------------------------------------------
 Center     Atomic      Atomic             Coordinates (Angstroms)
 Number     Number       Type             X           Y           Z
 ---------------------------------------------------------------------
      1          6           0        3.039861   -1.822776    1.434585
      2         16           0        3.065506   -0.739622   -0.003244
      3          8           0        4.442508   -0.663876   -0.521617
      4          8           0        1.979631   -1.163462   -0.910992
      5          6           0        2.654541    0.899662    0.686787
      6          6           0        2.343165    1.874664   -0.453013
      7          6           0        0.918586    1.725420   -1.006174
      8          7           0       -0.061519    2.437336   -0.186523
      9          6           0       -1.348133    2.112587    0.159307
     10          8           0       -2.131913    2.973891    0.528429
     11          6           0       -1.780846    0.612039    0.117854
     12          6           0       -3.161553    0.490487    0.824692
     13          6           0       -3.682331   -0.934915    1.041150
     14          6           0       -3.787142   -1.847909   -0.193039
     15          6           0       -2.429037   -2.343987   -0.718268
     16          6           0       -1.647762   -1.362014   -1.618035
     17          6           0       -1.895097    0.130691   -1.365550
     18          6           0       -0.809679   -0.157875    0.903833
     19          7           0       -0.092657   -0.744957    1.603144
     20          1           0        3.293524   -2.819662    1.066774
     21          1           0        2.033769   -1.805674    1.856793
     22          1           0        3.791160   -1.483492    2.150749
     23          1           0        1.806164    0.778637    1.363374
     24          1           0        3.539277    1.202617    1.252680
     25          1           0        2.493857    2.898354   -0.089290
     26          1           0        3.065171    1.727517   -1.264007
     27          1           0        0.883618    2.115437   -2.032659
     28          1           0        0.673109    0.668277   -1.055282
     29          1           0        0.067236    3.443396   -0.140048
     30          1           0       -3.100162    1.001687    1.789132
     31          1           0       -3.863888    1.070516    0.218589
     32          1           0       -4.675629   -0.837165    1.497102
     33          1           0       -3.055160   -1.438791    1.788726
     34          1           0       -4.355644   -1.350166   -0.991360
     35          1           0       -4.381839   -2.722868    0.096940
     36          1           0       -2.576977   -3.271884   -1.283342
     37          1           0       -1.811151   -2.617210    0.144858
     38          1           0       -1.909759   -1.541786   -2.668251
     39          1           0       -0.575230   -1.569837   -1.528922
     40          1           0       -2.903926    0.408433   -1.686117
     41          1           0       -1.215629    0.702105   -2.002215
 ---------------------------------------------------------------------

 SCF Done:  E(UB3LYP) =  -1242.28911731     A.U. after   33 cycles
 SCF Done:  E(UB3LYP) =  -1242.28911731     a.u. after    1 cycles

 The electronic state is 2-A.
 Alpha  occ. eigenvalues --  -88.95432 -19.02142 -19.02099 -19.00620 -14.25006
 Alpha  occ. eigenvalues --  -14.22852 -10.19337 -10.14554 -10.13029 -10.12105
 Alpha  occ. eigenvalues --  -10.11885 -10.11778 -10.09765 -10.09601 -10.09209
 Alpha  occ. eigenvalues --  -10.08495 -10.08159 -10.07893 -10.07723  -8.01926
 Alpha  occ. eigenvalues --   -5.98185  -5.98081  -5.98022  -1.01367  -0.95957
 Alpha  occ. eigenvalues --   -0.90927  -0.84029  -0.82889  -0.76062  -0.72663
 Alpha  occ. eigenvalues --   -0.70016  -0.68852  -0.68390  -0.63124  -0.59973
 Alpha  occ. eigenvalues --   -0.57380  -0.54952  -0.52170  -0.50852  -0.49843
 Alpha  occ. eigenvalues --   -0.47256  -0.43866  -0.41961  -0.40553  -0.40336
 Alpha  occ. eigenvalues --   -0.39903  -0.38774  -0.38254  -0.37739  -0.37451
 Alpha  occ. eigenvalues --   -0.35773  -0.34912  -0.34411  -0.33828  -0.33236
 Alpha  occ. eigenvalues --   -0.32649  -0.32416  -0.31379  -0.30680  -0.29895
 Alpha  occ. eigenvalues --   -0.29177  -0.28450  -0.27982  -0.27156  -0.26461
 Alpha  occ. eigenvalues --   -0.25848  -0.25471  -0.24376  -0.23785  -0.23510
 Alpha  occ. eigenvalues --   -0.23030  -0.22858  -0.22508  -0.20923  -0.19980
 Alpha  occ. eigenvalues --   -0.17874  -0.16850   0.03723
 Alpha virt. eigenvalues --    0.05376   0.06164   0.06956   0.07348   0.07807
 Alpha virt. eigenvalues --    0.07898   0.08960   0.09050   0.09329   0.09920
 Alpha virt. eigenvalues --    0.10329   0.10714   0.11295   0.11410   0.11869

  Beta  occ. eigenvalues --  -88.95430 -19.02132 -19.02092 -19.00580 -14.24986
  Beta  occ. eigenvalues --  -14.22825 -10.19288 -10.14553 -10.13015 -10.12085
  Beta  occ. eigenvalues --  -10.11872 -10.11753 -10.09729 -10.09572 -10.09205
  Beta  occ. eigenvalues --  -10.08487 -10.08142 -10.07882 -10.07717  -8.01923
  Beta  occ. eigenvalues --   -5.98184  -5.98080  -5.98020  -1.01345  -0.95878
  Beta  occ. eigenvalues --   -0.90903  -0.83974  -0.82842  -0.76027  -0.72616
  Beta  occ. eigenvalues --   -0.69981  -0.68821  -0.68365  -0.63070  -0.59928
  Beta  occ. eigenvalues --   -0.57340  -0.54884  -0.52128  -0.50754  -0.49794
  Beta  occ. eigenvalues --   -0.47212  -0.43815  -0.41916  -0.40493  -0.40302
  Beta  occ. eigenvalues --   -0.39862  -0.38741  -0.38222  -0.37708  -0.37425
  Beta  occ. eigenvalues --   -0.35744  -0.34872  -0.34386  -0.33770  -0.33179
  Beta  occ. eigenvalues --   -0.32616  -0.32380  -0.31309  -0.30654  -0.29850
  Beta  occ. eigenvalues --   -0.29124  -0.28381  -0.27905  -0.27110  -0.26376
  Beta  occ. eigenvalues --   -0.25797  -0.25447  -0.24348  -0.23764  -0.23484
  Beta  occ. eigenvalues --   -0.22995  -0.22841  -0.22482  -0.20907  -0.19959
  Beta  occ. eigenvalues --   -0.17801  -0.16784
  Beta virt. eigenvalues --    0.05736   0.06325   0.06836   0.07395   0.07814
  Beta virt. eigenvalues --    0.08267   0.08373   0.09179   0.09303   0.09531
  Beta virt. eigenvalues --    0.10284   0.10568   0.10978   0.11441   0.11508

 Mulliken charges and spin densities:
               1          2
     1  C   -0.496435  -0.094385
     2  S    0.544648  -0.500722
     3  O   -0.097517  -0.008681
     4  O   -0.157371   0.026163
     5  C   -1.066426   0.629097
     6  C    1.180304  -1.734669
     7  C    0.230647  -0.294230
     8  N   -0.422305   0.205965
     9  C    0.504652  -0.419818
    10  O   -0.275556   0.008475
    11  C    0.299438   0.847171
    12  C   -0.781841   0.272768
    13  C   -0.240106  -0.229986
    14  C    0.159548  -0.627919
    15  C   -0.140137  -0.040109
    16  C   -0.755927   0.354720
    17  C    0.221274  -0.751495
    18  C    0.686562  -1.279953
    19  N   -0.362421   0.130768
    20  H    0.162814   0.036484
    21  H    0.154066   0.077793
    22  H   -0.048312   0.241287
    23  H    0.146326   0.062928
    24  H   -0.423218   0.717960
    25  H   -0.590621   0.783645
    26  H    0.240102  -0.038071
    27  H   -0.486002   0.702382
    28  H    0.562428  -0.305513
    29  H    0.019379   0.314708
    30  H    0.139586   0.066133
    31  H    0.156685   0.060491
    32  H   -0.097257   0.273489
    33  H    0.210278  -0.042845
    34  H    0.030358   0.100784
    35  H   -0.138460   0.299935
    36  H   -0.057431   0.234093
    37  H    0.163476   0.001900
    38  H   -0.285540   0.452028
    39  H    0.182104   0.013606
    40  H   -0.149343   0.342281
    41  H    0.077551   0.111344
 Sum of Mulliken charges =  -1.00000   1.00000

 Dipole moment (field-independent basis, Debye):
    X=             -1.4329    Y=             -4.3836    Z=              2.0543  Tot=              5.0487
 Quadrupole moment (field-independent basis, Debye-Ang):
   XX=           -205.0133   YY=           -180.4674   ZZ=           -162.1307
   XY=             -8.6076   XZ=              0.6616   YZ=             -6.1361

 Summary of Natural Population Analysis:

                                       Natural Population
                Natural  -----------------------------------------------
    Atom  No    Charge         Core      Valence    Rydberg      Total
 -----------------------------------------------------------------------
      C    1   -0.39763      0.99961     2.39109    0.00693     3.39763
      S    2    1.01944      4.99931     1.88896    0.09230     6.98056
      O    3   -0.47262      0.99991     3.46734    0.00537     4.47262
      O    4   -0.47497      0.99991     3.46925    0.00581     4.47497
      C    5   -0.28945      0.99957     2.27739    0.01248     3.28945
      C    6   -0.20259      0.99961     2.19185    0.01113     3.20259
      C    7   -0.09927      0.99958     2.08780    0.01189     3.09927
      N    8   -0.31920      0.99966     2.80839    0.01115     3.81920
      C    9    0.36535      0.99963     1.61104    0.02398     2.63465
      O   10   -0.31111      0.99988     3.30576    0.00548     4.31111
      C   11   -0.12702      0.99943     2.11558    0.01201     3.12702
      C   12   -0.17721      0.99960     2.16722    0.01039     3.17721
      C   13   -0.19213      0.99962     2.18429    0.00823     3.19213
      C   14   -0.19343      0.99962     2.18574    0.00807     3.19343
      C   15   -0.19478      0.99963     2.18698    0.00817     3.19478
      C   16   -0.19705      0.99962     2.18895    0.00849     3.19705
      C   17   -0.18116      0.99960     2.17149    0.01007     3.18116
      C   18    0.18692      0.99962     1.79346    0.02001     2.81308
      N   19   -0.20129      0.99977     2.68952    0.01200     3.70129
      H   20    0.11610      0.00000     0.38309    0.00081     0.38390
      H   21    0.13028      0.00000     0.36839    0.00133     0.36972
      H   22    0.11331      0.00000     0.38560    0.00109     0.38669
      H   23    0.12143      0.00000     0.37613    0.00244     0.37857
      H   24    0.11749      0.00000     0.38069    0.00182     0.38251
      H   25    0.11075      0.00000     0.38609    0.00316     0.38925
      H   26    0.11008      0.00000     0.38857    0.00135     0.38992
      H   27    0.09772      0.00000     0.40048    0.00180     0.40228
      H   28    0.11493      0.00000     0.38169    0.00338     0.38507
      H   29    0.19668      0.00000     0.29961    0.00371     0.30332
      H   30    0.11006      0.00000     0.38901    0.00092     0.38994
      H   31    0.10704      0.00000     0.39189    0.00107     0.39296
      H   32    0.10095      0.00000     0.39823    0.00082     0.39905
      H   33    0.09674      0.00000     0.40184    0.00142     0.40326
      H   34    0.09457      0.00000     0.40431    0.00112     0.40543
      H   35    0.09974      0.00000     0.39931    0.00095     0.40026
      H   36    0.10019      0.00000     0.39890    0.00090     0.39981
      H   37    0.09822      0.00000     0.40026    0.00153     0.40178
      H   38    0.09995      0.00000     0.39903    0.00102     0.40005
      H   39    0.11126      0.00000     0.38701    0.00172     0.38874
      H   40    0.10341      0.00000     0.39518    0.00141     0.39659
      H   41    0.10833      0.00000     0.39026    0.00141     0.39167
 =======================================================================
   * Total *   -0.00000     22.99317    53.68769    0.31914    77.00000

 Normal termination of Gaussian 16 at Sat Dec 12 12:46:38 2020.
