 Gaussian 16, Revision A.03,

 -----------------------------------------------------------
 # opt freq B3LYP/6-31G(d) empiricaldispersion=gd3bj scf=xqc
 -----------------------------------------------------------

 ------------------------------
 CID_82547127_JID_6122_neutraal
 ------------------------------
 Symbolic Z-matrix:
 Charge =  0 Multiplicity = 1

 SCF Done:  E(RB3LYP) =  -761.393174720     A.U. after   15 cycles
 SCF Done:  E(RB3LYP) =  -761.400235802     A.U. after   13 cycles
 SCF Done:  E(RB3LYP) =  -761.402176061     A.U. after   12 cycles
 SCF Done:  E(RB3LYP) =  -761.402925249     A.U. after   12 cycles
 SCF Done:  E(RB3LYP) =  -761.403254591     A.U. after   12 cycles
 SCF Done:  E(RB3LYP) =  -761.403440449     A.U. after   12 cycles
 SCF Done:  E(RB3LYP) =  -761.403574723     A.U. after   12 cycles
 SCF Done:  E(RB3LYP) =  -761.403682203     A.U. after   12 cycles
 SCF Done:  E(RB3LYP) =  -761.403748539     A.U. after   12 cycles
 SCF Done:  E(RB3LYP) =  -761.403795449     A.U. after   11 cycles
 SCF Done:  E(RB3LYP) =  -761.404088859     A.U. after    8 cycles
 SCF Done:  E(RB3LYP) =  -761.404088722     A.U. after    9 cycles
 SCF Done:  E(RB3LYP) =  -761.404089031     A.U. after    9 cycles
 SCF Done:  E(RB3LYP) =  -761.404089138     A.U. after    8 cycles
 SCF Done:  E(RB3LYP) =  -761.404089140     A.U. after    7 cycles
 Optimization completed.
    -- Stationary point found.
 Normal termination of Gaussian 16 at Thu Dec 10 21:18:33 2020.

 --------------------------------------------------------------------
 #N Geom=AllCheck Guess=TCheck SCRF=Check GenChk RB3LYP/6-31G(d) Freq
 --------------------------------------------------------------------

 Structure from the checkpoint file:  "JID_6122.chk"
 ------------------------------
 CID_82547127_JID_6122_neutraal
 ------------------------------
 Charge =  0 Multiplicity = 1

 SCF Done:  E(RB3LYP) =  -761.404089140     A.U. after    1 cycles

  Exact polarizability: 183.156   5.807 134.038  18.695  -6.117  95.630
 Approx polarizability: 227.241   4.534 225.225  30.669 -14.933 146.015

                      1                      2                      3
                      A                      A                      A
 Frequencies --     11.4536                28.9247                46.5245
 Red. masses --      4.6465                 4.6433                 4.6001
 Frc consts  --      0.0004                 0.0023                 0.0059
 IR Inten    --      0.7543                 0.3200                 1.0450

                      4                      5                      6
                      A                      A                      A
 Frequencies --     62.2745                79.7101               101.8988
 Red. masses --      3.7061                 3.9922                 1.1490
 Frc consts  --      0.0085                 0.0149                 0.0070
 IR Inten    --      0.7527                 6.7997                 2.1115

                      7                      8                      9
                      A                      A                      A
 Frequencies --    111.8123               118.7237               160.9465
 Red. masses --      3.2634                 3.6402                 4.4936
 Frc consts  --      0.0240                 0.0302                 0.0686
 IR Inten    --      1.7504                 0.3480                 3.3114

                     10                     11                     12
                      A                      A                      A
 Frequencies --    211.5184               228.8642               242.4578
 Red. masses --      3.8459                 3.9265                 2.1367
 Frc consts  --      0.1014                 0.1212                 0.0740
 IR Inten    --      5.8696                 7.6406                11.3692

                     13                     14                     15
                      A                      A                      A
 Frequencies --    284.1092               289.3506               303.6130
 Red. masses --      2.8171                 3.5068                 3.7942
 Frc consts  --      0.1340                 0.1730                 0.2061
 IR Inten    --      3.6044                11.7517                 1.9868

                     16                     17                     18
                      A                      A                      A
 Frequencies --    320.9232               345.6592               383.0666
 Red. masses --      1.2460                 2.3941                 1.2327
 Frc consts  --      0.0756                 0.1685                 0.1066
 IR Inten    --     91.9431                 6.1046               100.7178

                     19                     20                     21
                      A                      A                      A
 Frequencies --    399.0750               429.1916               446.9059
 Red. masses --      1.8840                 3.4979                 3.4384
 Frc consts  --      0.1768                 0.3796                 0.4046
 IR Inten    --     23.7416                15.9877                 7.4303

                     22                     23                     24
                      A                      A                      A
 Frequencies --    492.9102               551.8477               564.9356
 Red. masses --      2.4880                 1.3960                 2.8593
 Frc consts  --      0.3561                 0.2505                 0.5377
 IR Inten    --      3.3823                63.6380                 1.5271

                     25                     26                     27
                      A                      A                      A
 Frequencies --    596.0939               636.4059               649.2928
 Red. masses --      2.9328                 5.6532                 3.5656
 Frc consts  --      0.6140                 1.3490                 0.8857
 IR Inten    --     26.5638                16.3353                 8.4028

                     28                     29                     30
                      A                      A                      A
 Frequencies --    678.3231               713.4814               736.3319
 Red. masses --      4.1443                 2.3324                 2.0247
 Frc consts  --      1.1235                 0.6996                 0.6468
 IR Inten    --     27.1385                 1.4915                55.9604

                     31                     32                     33
                      A                      A                      A
 Frequencies --    756.6052               786.9567               793.8903
 Red. masses --      3.1985                 2.4426                 3.4762
 Frc consts  --      1.0788                 0.8913                 1.2909
 IR Inten    --     40.5731                 5.5145                96.6326

                     34                     35                     36
                      A                      A                      A
 Frequencies --    816.5549               855.6879               863.1211
 Red. masses --      2.0261                 1.3864                 1.9983
 Frc consts  --      0.7960                 0.5981                 0.8771
 IR Inten    --    139.8020                 2.2658                23.6138

                     37                     38                     39
                      A                      A                      A
 Frequencies --    889.4296               969.0206               991.0026
 Red. masses --      2.1077                 2.3458                 2.3917
 Frc consts  --      0.9824                 1.2978                 1.3839
 IR Inten    --      2.7597                56.3853                19.8953

                     40                     41                     42
                      A                      A                      A
 Frequencies --    997.5218              1024.1075              1044.1771
 Red. masses --      1.7591                 1.6673                 2.0838
 Frc consts  --      1.0313                 1.0303                 1.3386
 IR Inten    --     13.2412                10.9972                 2.9451

                     43                     44                     45
                      A                      A                      A
 Frequencies --   1086.3390              1096.4417              1117.6109
 Red. masses --      2.0174                 2.1266                 2.6815
 Frc consts  --      1.4027                 1.5063                 1.9733
 IR Inten    --     22.2814                63.8182                 5.8946

                     46                     47                     48
                      A                      A                      A
 Frequencies --   1148.3625              1160.3232              1183.7383
 Red. masses --      1.9738                 1.3032                 1.4951
 Frc consts  --      1.5336                 1.0337                 1.2343
 IR Inten    --     12.7663                 5.4979                32.2277

                     49                     50                     51
                      A                      A                      A
 Frequencies --   1206.4031              1223.1073              1248.8140
 Red. masses --      1.7859                 1.4636                 1.6162
 Frc consts  --      1.5314                 1.2900                 1.4851
 IR Inten    --     14.8532                11.1546                14.1871

                     52                     53                     54
                      A                      A                      A
 Frequencies --   1265.0436              1275.6904              1304.5490
 Red. masses --      1.3976                 2.2765                 1.8278
 Frc consts  --      1.3178                 2.1828                 1.8327
 IR Inten    --     20.8280                 5.0648                12.0044

                     55                     56                     57
                      A                      A                      A
 Frequencies --   1312.2822              1344.7654              1365.3101
 Red. masses --      1.8884                 1.1291                 2.4906
 Frc consts  --      1.9160                 1.2030                 2.7353
 IR Inten    --      1.8723                 1.3055               174.1638

                     58                     59                     60
                      A                      A                      A
 Frequencies --   1389.3094              1393.0025              1409.0137
 Red. masses --      1.4942                 1.6049                 1.2439
 Frc consts  --      1.6992                 1.8348                 1.4550
 IR Inten    --      0.4790                 2.7790                43.2328

                     61                     62                     63
                      A                      A                      A
 Frequencies --   1417.7625              1423.9860              1442.6718
 Red. masses --      1.4460                 1.4848                 1.3188
 Frc consts  --      1.7125                 1.7739                 1.6172
 IR Inten    --      3.8419                 9.1710                48.6594

                     64                     65                     66
                      A                      A                      A
 Frequencies --   1455.9322              1463.5239              1490.1895
 Red. masses --      1.4463                 1.8268                 2.0991
 Frc consts  --      1.8063                 2.3054                 2.7464
 IR Inten    --     40.0983                11.5194               127.0832

                     67                     68                     69
                      A                      A                      A
 Frequencies --   1495.9709              1507.4670              1516.2003
 Red. masses --      2.9263                 1.1341                 1.1176
 Frc consts  --      3.8584                 1.5185                 1.5137
 IR Inten    --    108.6989                12.4914                10.1416

                     70                     71                     72
                      A                      A                      A
 Frequencies --   1517.2990              1531.6076              1531.8716
 Red. masses --      1.1156                 1.1190                 1.0992
 Frc consts  --      1.5132                 1.5466                 1.5197
 IR Inten    --      7.9088                15.7529                12.1679

                     73                     74                     75
                      A                      A                      A
 Frequencies --   1539.6915              1542.3026              1570.7060
 Red. masses --      1.1330                 1.1493                 1.9847
 Frc consts  --      1.5825                 1.6108                 2.8849
 IR Inten    --      9.8674                17.4926                41.4031

                     76                     77                     78
                      A                      A                      A
 Frequencies --   1595.9692              1671.9803              1715.9697
 Red. masses --      4.8373                 2.0649                 3.4774
 Frc consts  --      7.2595                 3.4010                 6.0329
 IR Inten    --    202.0002               367.3056               196.9381

                     79                     80                     81
                      A                      A                      A
 Frequencies --   2994.6117              3031.2694              3035.0707
 Red. masses --      1.0723                 1.0676                 1.0670
 Frc consts  --      5.6658                 5.7796                 5.7910
 IR Inten    --     52.9206                41.9422                11.8179

                     82                     83                     84
                      A                      A                      A
 Frequencies --   3046.1618              3046.4772              3079.0949
 Red. masses --      1.0454                 1.0617                 1.0704
 Frc consts  --      5.7155                 5.8057                 5.9790
 IR Inten    --     39.6163                39.5956                12.1518

                     85                     86                     87
                      A                      A                      A
 Frequencies --   3083.0297              3087.1315              3097.2026
 Red. masses --      1.0927                 1.0969                 1.0900
 Frc consts  --      6.1194                 6.1590                 6.1604
 IR Inten    --     27.2082                48.0169                67.7950

                     88                     89                     90
                      A                      A                      A
 Frequencies --   3104.3256              3113.2444              3120.7834
 Red. masses --      1.0932                 1.0985                 1.1035
 Frc consts  --      6.2072                 6.2731                 6.3320
 IR Inten    --     48.8275                17.3006                29.6907

                     91                     92                     93
                      A                      A                      A
 Frequencies --   3182.9854              3284.1815              3445.4265
 Red. masses --      1.1004                 1.0945                 1.0558
 Frc consts  --      6.5684                 6.9552                 7.3844
 IR Inten    --      1.8414                 7.8530               118.1492

                     94                     95                     96
                      A                      A                      A
 Frequencies --   3602.5417              3609.9763              3752.9250
 Red. masses --      1.0758                 1.0904                 1.0660
 Frc consts  --      8.2262                 8.3724                 8.8460
 IR Inten    --     30.1884                34.8966                 6.9972

 - Thermochemistry -
 -------------------
 Temperature   298.150 Kelvin.  Pressure   1.00000 Atm.
 Atom     1 has atomic number  6 and mass  12.00000

 Molecular mass:   226.14298 amu.
 Principal axes and moments of inertia in atomic units:
                           1         2         3
     Eigenvalues --  1532.895028381.201209275.47761
           X            0.99997   0.00471   0.00648
           Y           -0.00467   0.99997  -0.00655
           Z           -0.00651   0.00652   0.99996
 This molecule is an asymmetric top.
 Rotational symmetry number  1.
 Warning -- assumption of classical behavior for rotation
           may cause significant error
 Rotational temperatures (Kelvin)      0.05650     0.01033     0.00934
 Rotational constants (GHZ):           1.17734     0.21533     0.19457
 Zero-point vibrational energy     769751.2 (Joules/Mol)
                                  183.97495 (Kcal/Mol)
 Warning -- explicit consideration of  25 degrees of freedom as
           vibrations may cause significant error
 Vibrational temperatures:     16.48    41.62    66.94    89.60   114.69
          (Kelvin)            146.61   160.87   170.82   231.57   304.33
                              329.28   348.84   408.77   416.31   436.83
                              461.74   497.33   551.15   574.18   617.51
                              643.00   709.19   793.99   812.82   857.65
                              915.65   934.19   975.96  1026.54  1059.42
                             1088.59  1132.26  1142.23  1174.84  1231.14
                             1241.84  1279.69  1394.20  1425.83  1435.21
                             1473.46  1502.34  1563.00  1577.54  1607.99
                             1652.24  1669.45  1703.14  1735.74  1759.78
                             1796.76  1820.12  1835.43  1876.96  1888.08
                             1934.82  1964.38  1998.91  2004.22  2027.26
                             2039.84  2048.80  2075.68  2094.76  2105.68
                             2144.05  2152.37  2168.91  2181.47  2183.05
                             2203.64  2204.02  2215.27  2219.03  2259.90
                             2296.24  2405.61  2468.90  4308.58  4361.32
                             4366.79  4382.75  4383.20  4430.13  4435.79
                             4441.69  4456.18  4466.43  4479.26  4490.11
                             4579.61  4725.20  4957.20  5183.25  5193.95
                             5399.62

 Zero-point correction=                           0.293183 (Hartree/Particle)
 Thermal correction to Energy=                    0.310204
 Thermal correction to Enthalpy=                  0.311148
 Thermal correction to Gibbs Free Energy=         0.245945
 Sum of electronic and zero-point Energies=           -761.110906
 Sum of electronic and thermal Energies=              -761.093885
 Sum of electronic and thermal Enthalpies=            -761.092941
 Sum of electronic and thermal Free Energies=         -761.158144

                     E (Thermal)             CV                S
                      KCal/Mol        Cal/Mol-Kelvin    Cal/Mol-Kelvin
 Total                  194.656             62.590            137.231
 Electronic               0.000              0.000              0.000
 Translational            0.889              2.981             42.150
 Rotational               0.889              2.981             33.144
 Vibrational            192.878             56.628             61.937
 Vibration     1          0.593              1.987              7.741
 Vibration     2          0.593              1.984              5.902
 Vibration     3          0.595              1.979              4.960
 Vibration     4          0.597              1.972              4.384
 Vibration     5          0.600              1.963              3.898
 Vibration     6          0.604              1.948              3.418
 Vibration     7          0.607              1.940              3.237
 Vibration     8          0.609              1.934              3.121
 Vibration     9          0.622              1.890              2.539
 Vibration    10          0.643              1.823              2.031
 Vibration    11          0.652              1.797              1.888
 Vibration    12          0.659              1.775              1.785
 Vibration    13          0.683              1.703              1.509
 Vibration    14          0.686              1.694              1.478
 Vibration    15          0.695              1.667              1.397
 Vibration    16          0.706              1.633              1.305
 Vibration    17          0.724              1.584              1.186
 Vibration    18          0.752              1.506              1.027
 Vibration    19          0.765              1.472              0.966
 Vibration    20          0.791              1.407              0.861
 Vibration    21          0.806              1.368              0.805
 Vibration    22          0.849              1.266              0.676
 Vibration    23          0.907              1.136              0.540
 Vibration    24          0.921              1.107              0.514
 Vibration    25          0.954              1.040              0.456

 Optimization completed.
    -- Stationary point found.
 Normal termination of Gaussian 16 at Thu Dec 10 21:28:20 2020.

 ----------------------------------------------------------------------
 # B3LYP/6-311++G(d,p) empiricaldispersion=gd3bj scf=xqc pop=npa geom=c
 heck
 ----------------------------------------------------------------------

 --------------------------------------
 CID_82547127_JID_6122_Energie_neutraal
 --------------------------------------
 Structure from the checkpoint file:  "JID_6122.chk"
 Charge =  0 Multiplicity = 1

 SCF Done:  E(RB3LYP) =  -761.638849979     A.U. after   15 cycles
 Normal termination of Gaussian 16 at Thu Dec 10 21:32:31 2020.

 ----------------------------------------------------------------------
 # B3LYP/6-311++G(d,p) empiricaldispersion=gd3bj scf=xqc pop=npa geom=c
 heck
 ----------------------------------------------------------------------

 ------------------------------------
 CID_82547127_JID_6122_Energie_kation
 ------------------------------------
 Structure from the checkpoint file:  "JID_6122.chk"
 Charge =  1 Multiplicity = 2

 SCF Done:  E(UB3LYP) =  -761.344309848     A.U. after   31 cycles
 Normal termination of Gaussian 16 at Thu Dec 10 21:43:56 2020.
 Gaussian 16:  ES64L-G16RevA.03 25-Dec-2016

 ----------------------------------------------------------------------
 # B3LYP/6-311++G(d,p) empiricaldispersion=gd3bj scf=xqc pop=npa geom=c
 heck
 ----------------------------------------------------------------------

 -----------------------------------
 CID_82547127_JID_6122_Energie_anion
 -----------------------------------
 Structure from the checkpoint file:  "JID_6122.chk"
 Charge = -1 Multiplicity = 2

                         Standard orientation:
 ---------------------------------------------------------------------
 Center     Atomic      Atomic             Coordinates (Angstroms)
 Number     Number       Type             X           Y           Z
 ---------------------------------------------------------------------
      1          6           0       -4.846817   -1.297656   -0.498599
      2          7           0       -3.501221   -0.936969   -0.115688
      3          6           0       -2.934334    0.288986   -0.182658
      4          6           0       -1.619210    0.162410    0.309020
      5          6           0       -1.524822   -1.224435    0.635307
      6          7           0       -2.638135   -1.887699    0.377263
      7          6           0       -0.722736    1.320109    0.334208
      8          8           0       -1.109521    2.427966   -0.084642
      9          7           0        0.550355    1.229402    0.834070
     10          6           0        1.324274    0.057322    1.210156
     11          6           0        1.840230   -0.764889    0.018299
     12          6           0        2.673175    0.047940   -0.984428
     13          6           0        3.927992    0.724008   -0.409916
     14          6           0        4.918563   -0.243105    0.243455
     15          8           0        5.388218   -1.246477   -0.650139
     16          7           0       -3.610001    1.412752   -0.587906
     17          1           0       -5.547934   -0.539184   -0.136038
     18          1           0       -4.947613   -1.393213   -1.587197
     19          1           0       -5.072514   -2.258302   -0.035776
     20          1           0       -0.690150   -1.773231    1.043915
     21          1           0        1.048207    2.103328    0.722117
     22          1           0        2.167194    0.419379    1.806943
     23          1           0        0.730953   -0.568069    1.882452
     24          1           0        2.421612   -1.608365    0.417095
     25          1           0        0.986483   -1.202093   -0.511073
     26          1           0        2.972199   -0.609825   -1.810976
     27          1           0        2.031403    0.814037   -1.434960
     28          1           0        4.442420    1.253827   -1.220498
     29          1           0        3.648341    1.485851    0.331767
     30          1           0        5.810858    0.302511    0.565657
     31          1           0        4.476767   -0.696729    1.145595
     32          1           0        4.640014   -1.825256   -0.860531
     33          1           0       -2.955008    2.194267   -0.652613
     34          1           0       -4.217676    1.302632   -1.390866
 ---------------------------------------------------------------------

 SCF Done:  E(UB3LYP) =  -761.630699807     A.U. after   33 cycles
 SCF Done:  E(UB3LYP) =  -761.630699807     a.u. after    1 cycles

 The electronic state is 2-A.
 Alpha  occ. eigenvalues --  -19.03788 -18.99369 -14.29598 -14.24594 -14.23842
 Alpha  occ. eigenvalues --  -14.23234 -10.18809 -10.16129 -10.13068 -10.12645
 Alpha  occ. eigenvalues --  -10.11948 -10.10831 -10.08675 -10.08615 -10.08582
 Alpha  occ. eigenvalues --  -10.08315  -0.96294  -0.94348  -0.93861  -0.83756
 Alpha  occ. eigenvalues --   -0.82914  -0.75592  -0.72012  -0.68511  -0.66186
 Alpha  occ. eigenvalues --   -0.62414  -0.60657  -0.55791  -0.54547  -0.51028
 Alpha  occ. eigenvalues --   -0.48558  -0.47404  -0.44627  -0.43105  -0.42033
 Alpha  occ. eigenvalues --   -0.41384  -0.39374  -0.39226  -0.39127  -0.37273
 Alpha  occ. eigenvalues --   -0.35254  -0.34827  -0.34140  -0.33417  -0.32708
 Alpha  occ. eigenvalues --   -0.31668  -0.31585  -0.30913  -0.29612  -0.29367
 Alpha  occ. eigenvalues --   -0.26802  -0.25675  -0.25511  -0.24225  -0.23804
 Alpha  occ. eigenvalues --   -0.21195  -0.19281  -0.17442  -0.16708  -0.16470
 Alpha  occ. eigenvalues --   -0.12870   0.03717
 Alpha virt. eigenvalues --    0.04887   0.06000   0.06906   0.07675   0.07988
 Alpha virt. eigenvalues --    0.08150   0.08965   0.09204   0.10042   0.10188
 Alpha virt. eigenvalues --    0.10452   0.10772   0.11203   0.11869   0.12662

  Beta  occ. eigenvalues --  -19.03758 -18.99363 -14.29598 -14.24588 -14.23835
  Beta  occ. eigenvalues --  -14.23195 -10.18804 -10.16127 -10.13043 -10.12630
  Beta  occ. eigenvalues --  -10.11891 -10.10827 -10.08652 -10.08603 -10.08569
  Beta  occ. eigenvalues --  -10.08314  -0.96284  -0.94337  -0.93797  -0.83726
  Beta  occ. eigenvalues --   -0.82877  -0.75570  -0.71978  -0.68484  -0.66141
  Beta  occ. eigenvalues --   -0.62357  -0.60607  -0.55747  -0.54510  -0.50991
  Beta  occ. eigenvalues --   -0.48504  -0.47362  -0.44562  -0.43051  -0.41996
  Beta  occ. eigenvalues --   -0.41342  -0.39340  -0.39194  -0.39093  -0.37225
  Beta  occ. eigenvalues --   -0.35223  -0.34791  -0.34105  -0.33379  -0.32676
  Beta  occ. eigenvalues --   -0.31635  -0.31548  -0.30877  -0.29587  -0.29333
  Beta  occ. eigenvalues --   -0.26772  -0.25644  -0.25477  -0.24196  -0.23778
  Beta  occ. eigenvalues --   -0.21173  -0.19238  -0.17432  -0.16690  -0.16459
  Beta  occ. eigenvalues --   -0.12849
  Beta virt. eigenvalues --    0.05696   0.06426   0.06604   0.07196   0.07767
  Beta virt. eigenvalues --    0.08240   0.08691   0.09259   0.09851   0.10253
  Beta virt. eigenvalues --    0.10387   0.10655   0.11031   0.11478   0.12064

 Mulliken charges and spin densities:
               1          2
     1  C    1.117738  -1.476294
     2  N    0.092288   0.084088
     3  C   -0.251034   0.188311
     4  C    0.658078  -0.241242
     5  C    0.905488  -1.104045
     6  N   -0.416852   0.185969
     7  C   -0.993426   0.419888
     8  O   -0.390168   0.005550
     9  N   -0.284141   0.065937
    10  C    0.007849  -0.393643
    11  C    0.389903  -0.277661
    12  C   -0.488460  -0.130050
    13  C   -0.365268   0.251168
    14  C    0.820853  -1.348694
    15  O   -0.254986   0.025697
    16  N   -0.379169   0.010251
    17  H   -0.314699   0.489657
    18  H   -0.608151   0.803513
    19  H   -0.050153   0.226226
    20  H    0.092440   0.075205
    21  H    0.166842   0.170314
    22  H   -0.192827   0.399285
    23  H    0.122174   0.069981
    24  H   -0.187242   0.324843
    25  H    0.005108   0.189545
    26  H   -0.079055   0.255822
    27  H    0.090739   0.099501
    28  H    0.021826   0.155057
    29  H    0.028768   0.059319
    30  H   -0.111579   0.285321
    31  H   -0.213791   0.372494
    32  H    0.019662   0.227229
    33  H    0.298127   0.013146
    34  H   -0.256885   0.518311
 Sum of Mulliken charges =  -1.00000   1.00000

 Dipole moment (field-independent basis, Debye):
    X=              3.0345    Y=              1.4572    Z=              2.3906  Tot=              4.1287
 Quadrupole moment (field-independent basis, Debye-Ang):
   XX=           -222.1033   YY=           -139.0374   ZZ=           -130.6429
   XY=              7.9926   XZ=            -11.8223   YZ=             -1.1963

 Summary of Natural Population Analysis:

                                       Natural Population
                Natural  -----------------------------------------------
    Atom  No    Charge         Core      Valence    Rydberg      Total
 -----------------------------------------------------------------------
      C    1   -0.17842      0.99964     2.17044    0.00834     3.17842
      N    2   -0.12402      0.99961     2.61117    0.01324     3.62402
      C    3    0.21648      0.99951     1.77039    0.01362     2.78352
      C    4   -0.15497      0.99943     2.14676    0.00878     3.15497
      C    5    0.00652      0.99961     1.98090    0.01296     2.99348
      N    6   -0.15750      0.99973     2.64627    0.01150     3.65750
      C    7    0.33565      0.99961     1.64490    0.01984     2.66435
      O    8   -0.35169      0.99988     3.34613    0.00568     4.35169
      N    9   -0.31532      0.99968     2.80598    0.00966     3.81532
      C   10   -0.09343      0.99961     2.08171    0.01210     3.09343
      C   11   -0.20151      0.99962     2.19247    0.00942     3.20151
      C   12   -0.19761      0.99962     2.18978    0.00821     3.19761
      C   13   -0.20396      0.99963     2.19700    0.00733     3.20396
      C   14   -0.00989      0.99960     1.99831    0.01197     3.00989
      O   15   -0.36940      0.99990     3.36256    0.00694     4.36940
      N   16   -0.40004      0.99970     2.89148    0.00886     3.90004
      H   17    0.10335      0.00000     0.39497    0.00168     0.39665
      H   18    0.10157      0.00000     0.39520    0.00322     0.39843
      H   19    0.10956      0.00000     0.38883    0.00160     0.39044
      H   20    0.09838      0.00000     0.40031    0.00131     0.40162
      H   21    0.19342      0.00000     0.30402    0.00255     0.30658
      H   22    0.09914      0.00000     0.39959    0.00126     0.40086
      H   23    0.09866      0.00000     0.40000    0.00135     0.40134
      H   24    0.09742      0.00000     0.40080    0.00177     0.40258
      H   25    0.10435      0.00000     0.39402    0.00163     0.39565
      H   26    0.09871      0.00000     0.39993    0.00136     0.40129
      H   27    0.10326      0.00000     0.39539    0.00135     0.39674
      H   28    0.10024      0.00000     0.39861    0.00115     0.39976
      H   29    0.09473      0.00000     0.40392    0.00135     0.40527
      H   30    0.08585      0.00000     0.41274    0.00140     0.41415
      H   31    0.07577      0.00000     0.42234    0.00189     0.42423
      H   32    0.22867      0.00000     0.26782    0.00351     0.27133
      H   33    0.21296      0.00000     0.28512    0.00192     0.28704
      H   34    0.19306      0.00000     0.30331    0.00363     0.30694
 =======================================================================
   * Total *    0.00000     15.99438    44.80318    0.20244    61.00000

 Normal termination of Gaussian 16 at Thu Dec 10 21:56:22 2020.
