 Gaussian 16, Revision A.03,

 -----------------------------------------------------------
 # opt freq B3LYP/6-31G(d) empiricaldispersion=gd3bj scf=xqc
 -----------------------------------------------------------

 ------------------------------
 CID_129117345_JID_424_neutraal
 ------------------------------
 Symbolic Z-matrix:
 Charge =  0 Multiplicity = 1

 SCF Done:  E(RB3LYP) =  -522.730255207     A.U. after   15 cycles
 SCF Done:  E(RB3LYP) =  -522.742974940     A.U. after   13 cycles
 SCF Done:  E(RB3LYP) =  -522.747576796     A.U. after   13 cycles
 SCF Done:  E(RB3LYP) =  -522.749761479     A.U. after   13 cycles
 SCF Done:  E(RB3LYP) =  -522.751331363     A.U. after   13 cycles
 SCF Done:  E(RB3LYP) =  -522.752616706     A.U. after   12 cycles
 SCF Done:  E(RB3LYP) =  -522.753039414     A.U. after   12 cycles
 SCF Done:  E(RB3LYP) =  -522.753200432     A.U. after   12 cycles
 SCF Done:  E(RB3LYP) =  -522.753242653     A.U. after   10 cycles
 SCF Done:  E(RB3LYP) =  -522.753251950     A.U. after    9 cycles
 SCF Done:  E(RB3LYP) =  -522.753253855     A.U. after    8 cycles
 SCF Done:  E(RB3LYP) =  -522.753256198     A.U. after    8 cycles
 SCF Done:  E(RB3LYP) =  -522.753257011     A.U. after    8 cycles
 SCF Done:  E(RB3LYP) =  -522.753257281     A.U. after    8 cycles
 Optimization completed.
    -- Stationary point found.
 Normal termination of Gaussian 16 at Tue Dec  8 10:34:07 2020.

 --------------------------------------------------------------------
 #N Geom=AllCheck Guess=TCheck SCRF=Check GenChk RB3LYP/6-31G(d) Freq
 --------------------------------------------------------------------

 Structure from the checkpoint file:  "JID_424.chk"
 ------------------------------
 CID_129117345_JID_424_neutraal
 ------------------------------
 Charge =  0 Multiplicity = 1

 SCF Done:  E(RB3LYP) =  -522.753257281     A.U. after    1 cycles

  Exact polarizability:  86.023  -1.178  73.301   5.405   1.993  53.434
 Approx polarizability: 123.391  -3.897 122.099   9.625   3.329  80.089

                      1                      2                      3
                      A                      A                      A
 Frequencies --     47.5829                69.1492               124.4413
 Red. masses --      5.7180                 6.2681                 4.4152
 Frc consts  --      0.0076                 0.0177                 0.0403
 IR Inten    --      0.2189                 3.7470                 4.7067

                      4                      5                      6
                      A                      A                      A
 Frequencies --    147.5026               166.0835               296.1313
 Red. masses --      4.7856                 5.2802                 4.1449
 Frc consts  --      0.0613                 0.0858                 0.2142
 IR Inten    --      1.8968                 5.1763                20.0365

                      7                      8                      9
                      A                      A                      A
 Frequencies --    319.1544               354.4615               377.7975
 Red. masses --      2.6856                 1.2305                 3.4569
 Frc consts  --      0.1612                 0.0911                 0.2907
 IR Inten    --      2.9484                 7.0838                18.5014

                     10                     11                     12
                      A                      A                      A
 Frequencies --    490.4120               540.0161               576.3107
 Red. masses --      2.9088                 2.4815                 2.3852
 Frc consts  --      0.4122                 0.4264                 0.4668
 IR Inten    --     20.1783                58.4854                29.4643

                     13                     14                     15
                      A                      A                      A
 Frequencies --    632.3535               663.7829               783.9786
 Red. masses --      1.5405                 6.4728                 4.7047
 Frc consts  --      0.3629                 1.6803                 1.7037
 IR Inten    --     98.1142                21.8596                49.0304

                     16                     17                     18
                      A                      A                      A
 Frequencies --    823.4498               846.8448               863.7140
 Red. masses --      4.8002                 3.3332                 3.4937
 Frc consts  --      1.9177                 1.4084                 1.5356
 IR Inten    --     59.7318                61.3921                17.7569

                     19                     20                     21
                      A                      A                      A
 Frequencies --    875.9529               899.2008               918.9054
 Red. masses --      2.5436                 3.3614                 4.7728
 Frc consts  --      1.1499                 1.6014                 2.3745
 IR Inten    --     24.6759                16.7228                56.4996

                     22                     23                     24
                      A                      A                      A
 Frequencies --    978.1290              1013.6092              1036.4695
 Red. masses --      1.8273                 2.3854                 2.0289
 Frc consts  --      1.0300                 1.4440                 1.2842
 IR Inten    --    121.9787                 4.2534                 2.0114

                     25                     26                     27
                      A                      A                      A
 Frequencies --   1090.2181              1110.8215              1226.3531
 Red. masses --      2.1208                 2.7369                 2.4586
 Frc consts  --      1.4852                 1.9898                 2.1786
 IR Inten    --     41.2786                27.3484                 8.5521

                     28                     29                     30
                      A                      A                      A
 Frequencies --   1257.3549              1258.8688              1305.1443
 Red. masses --      1.5002                 1.4634                 1.3621
 Frc consts  --      1.3974                 1.3664                 1.3670
 IR Inten    --     48.5874                41.3386                 2.5518

                     31                     32                     33
                      A                      A                      A
 Frequencies --   1358.4838              1367.4429              1408.5102
 Red. masses --      1.4549                 1.1731                 2.1561
 Frc consts  --      1.5820                 1.2924                 2.5202
 IR Inten    --     43.0422                 7.0325                66.6585

                     34                     35                     36
                      A                      A                      A
 Frequencies --   1417.3073              1457.7941              1521.6896
 Red. masses --      1.2340                 1.6869                 1.0835
 Frc consts  --      1.4604                 2.1121                 1.4782
 IR Inten    --     26.5031                36.2634                 9.9191

                     37                     38                     39
                      A                      A                      A
 Frequencies --   1535.1824              1685.4059              1732.1099
 Red. masses --      1.0658                 7.5806                 1.0657
 Frc consts  --      1.4800                12.6871                 1.8838
 IR Inten    --      3.4741                31.9245                16.5756

                     40                     41                     42
                      A                      A                      A
 Frequencies --   1796.6031              3075.5483              3141.1552
 Red. masses --      8.7926                 1.0605                 1.1055
 Frc consts  --     16.7213                 5.9104                 6.4267
 IR Inten    --    274.6931                18.0201                 8.4251

                     43                     44                     45
                      A                      A                      A
 Frequencies --   3275.2513              3429.0830              3443.2204
 Red. masses --      1.0974                 1.0762                 1.0460
 Frc consts  --      6.9358                 7.4558                 7.3065
 IR Inten    --      0.6451                 2.0306                18.2264

                     46                     47                     48
                      A                      A                      A
 Frequencies --   3460.0391              3533.1104              3592.8893
 Red. masses --      1.0768                 1.0977                 1.0773
 Frc consts  --      7.5955                 8.0730                 8.1939
 IR Inten    --      1.4507                17.7892                32.5779

 - Thermochemistry -
 -------------------
 Temperature   298.150 Kelvin.  Pressure   1.00000 Atm.
 Atom     1 has atomic number  6 and mass  12.00000

 Molecular mass:   144.07596 amu.
 Principal axes and moments of inertia in atomic units:
                           1         2         3
     Eigenvalues --   687.564312045.398842405.64923
           X            0.99987  -0.01359   0.00836
           Y            0.01353   0.99988   0.00725
           Z           -0.00846  -0.00714   0.99994
 This molecule is an asymmetric top.
 Rotational symmetry number  1.
 Warning -- assumption of classical behavior for rotation
           may cause significant error
 Rotational temperatures (Kelvin)      0.12597     0.04235     0.03600
 Rotational constants (GHZ):           2.62483     0.88234     0.75021
 Zero-point vibrational energy     378767.7 (Joules/Mol)
                                   90.52766 (Kcal/Mol)
 Warning -- explicit consideration of  12 degrees of freedom as
           vibrations may cause significant error
 Vibrational temperatures:     68.46    99.49   179.04   212.22   238.96
          (Kelvin)            426.07   459.19   509.99   543.57   705.59
                              776.96   829.18   909.82   955.04  1127.97
                             1184.76  1218.42  1242.69  1260.30  1293.75
                             1322.10  1407.31  1458.36  1491.25  1568.58
                             1598.22  1764.45  1809.05  1811.23  1877.81
                             1954.56  1967.45  2026.53  2039.19  2097.44
                             2189.37  2208.79  2424.92  2492.12  2584.91
                             4425.03  4519.42  4712.36  4933.69  4954.03
                             4978.22  5083.36  5169.37

 Zero-point correction=                           0.144265 (Hartree/Particle)
 Thermal correction to Energy=                    0.153774
 Thermal correction to Enthalpy=                  0.154719
 Thermal correction to Gibbs Free Energy=         0.108645
 Sum of electronic and zero-point Energies=           -522.608992
 Sum of electronic and thermal Energies=              -522.599483
 Sum of electronic and thermal Enthalpies=            -522.598539
 Sum of electronic and thermal Free Energies=         -522.644612

                     E (Thermal)             CV                S
                      KCal/Mol        Cal/Mol-Kelvin    Cal/Mol-Kelvin
 Total                   96.495             34.434             96.970
 Electronic               0.000              0.000              0.000
 Translational            0.889              2.981             40.807
 Rotational               0.889              2.981             29.605
 Vibrational             94.717             28.473             26.559
 Vibration     1          0.595              1.978              4.915
 Vibration     2          0.598              1.969              4.177
 Vibration     3          0.610              1.929              3.030
 Vibration     4          0.617              1.905              2.704
 Vibration     5          0.624              1.884              2.479
 Vibration     6          0.690              1.681              1.439
 Vibration     7          0.705              1.637              1.314
 Vibration     8          0.730              1.566              1.146
 Vibration     9          0.748              1.517              1.048
 Vibration    10          0.846              1.271              0.683
 Vibration    11          0.895              1.162              0.565
 Vibration    12          0.933              1.082              0.492

 Optimization completed.
    -- Stationary point found.
 Normal termination of Gaussian 16 at Tue Dec  8 10:37:58 2020.

 ----------------------------------------------------------------------
 # B3LYP/6-311++G(d,p) empiricaldispersion=gd3bj scf=xqc pop=npa geom=c
 heck
 ----------------------------------------------------------------------

 --------------------------------------
 CID_129117345_JID_424_Energie_neutraal
 --------------------------------------
 Structure from the checkpoint file:  "JID_424.chk"
 Charge =  0 Multiplicity = 1

 SCF Done:  E(RB3LYP) =  -522.921225027     A.U. after   14 cycles
 Normal termination of Gaussian 16 at Tue Dec  8 10:38:57 2020.

 ----------------------------------------------------------------------
 # B3LYP/6-311++G(d,p) empiricaldispersion=gd3bj scf=xqc pop=npa geom=c
 heck
 ----------------------------------------------------------------------

 ------------------------------------
 CID_129117345_JID_424_Energie_kation
 ------------------------------------
 Structure from the checkpoint file:  "JID_424.chk"
 Charge =  1 Multiplicity = 2

 SCF Done:  E(UB3LYP) =  -522.596191800     A.U. after   31 cycles
 Normal termination of Gaussian 16 at Tue Dec  8 10:44:26 2020.
 Gaussian 16:  ES64L-G16RevA.03 25-Dec-2016

 ----------------------------------------------------------------------
 # B3LYP/6-311++G(d,p) empiricaldispersion=gd3bj scf=xqc pop=npa geom=c
 heck
 ----------------------------------------------------------------------

 -----------------------------------
 CID_129117345_JID_424_Energie_anion
 -----------------------------------
 Structure from the checkpoint file:  "JID_424.chk"
 Charge = -1 Multiplicity = 2

                         Standard orientation:
 ---------------------------------------------------------------------
 Center     Atomic      Atomic             Coordinates (Angstroms)
 Number     Number       Type             X           Y           Z
 ---------------------------------------------------------------------
      1          6           0        1.170006   -0.664489   -0.829182
      2          7           0        2.426213   -0.818577   -0.674676
      3          7           0        2.869519    0.213622    0.210579
      4          7           0        1.731119    1.089000    0.463413
      5          7           0        0.578064    0.399748   -0.086731
      6          6           0       -0.354643   -0.081982    0.963549
      7          6           0       -1.604222   -0.657141    0.293622
      8          8           0       -1.827868   -1.859190    0.256341
      9          7           0       -2.438557    0.258500   -0.286019
     10          7           0       -2.166943    1.625182   -0.488802
     11          1           0        0.556523   -1.318020   -1.435398
     12          1           0        3.125552   -0.258845    1.081516
     13          1           0        1.885481    1.858327   -0.188371
     14          1           0        0.082628   -0.869633    1.586118
     15          1           0       -0.596766    0.781425    1.587089
     16          1           0       -3.194397   -0.119476   -0.844358
     17          1           0       -2.312328    2.129812    0.384599
     18          1           0       -1.186494    1.719282   -0.754203
 ---------------------------------------------------------------------

 SCF Done:  E(UB3LYP) =  -522.911043780     A.U. after   31 cycles

 The electronic state is 2-A.
 Alpha  occ. eigenvalues --  -18.99195 -14.26432 -14.26316 -14.26184 -14.25668
 Alpha  occ. eigenvalues --  -14.23659 -14.22089 -10.17377 -10.13324 -10.10503
 Alpha  occ. eigenvalues --   -0.97087  -0.94486  -0.87371  -0.82497  -0.77117
 Alpha  occ. eigenvalues --   -0.69122  -0.65682  -0.57784  -0.51816  -0.49118
 Alpha  occ. eigenvalues --   -0.43771  -0.42627  -0.40623  -0.39848  -0.37691
 Alpha  occ. eigenvalues --   -0.36532  -0.33881  -0.33440  -0.30922  -0.28571
 Alpha  occ. eigenvalues --   -0.27655  -0.21916  -0.19747  -0.19214  -0.18730
 Alpha  occ. eigenvalues --   -0.15887  -0.14639  -0.12274   0.05045
 Alpha virt. eigenvalues --    0.08168   0.08489   0.08847   0.09524   0.10292
 Alpha virt. eigenvalues --    0.11059   0.11746   0.12673   0.13750   0.15416
 Alpha virt. eigenvalues --    0.15727   0.16656   0.17564   0.18972   0.19324

  Beta  occ. eigenvalues --  -18.99183 -14.26416 -14.26329 -14.26141 -14.25653
  Beta  occ. eigenvalues --  -14.23600 -14.21993 -10.17373 -10.13261 -10.10440
  Beta  occ. eigenvalues --   -0.97034  -0.94459  -0.87301  -0.82439  -0.77027
  Beta  occ. eigenvalues --   -0.68968  -0.65592  -0.57694  -0.51712  -0.49051
  Beta  occ. eigenvalues --   -0.43712  -0.42531  -0.40494  -0.39755  -0.37637
  Beta  occ. eigenvalues --   -0.36427  -0.33821  -0.33352  -0.30866  -0.28513
  Beta  occ. eigenvalues --   -0.27495  -0.21825  -0.19619  -0.19149  -0.18674
  Beta  occ. eigenvalues --   -0.15857  -0.14569  -0.12179
  Beta virt. eigenvalues --    0.07998   0.08745   0.09047   0.09616   0.10011
  Beta virt. eigenvalues --    0.11036   0.11509   0.12382   0.13279   0.14372
  Beta virt. eigenvalues --    0.15380   0.15870   0.16914   0.17718   0.19115

 Mulliken charges and spin densities:
               1          2
     1  C   -0.143639  -0.093596
     2  N   -0.281728   0.095894
     3  N   -0.038069  -0.070004
     4  N   -0.070650  -0.017502
     5  N   -0.426490   0.230820
     6  C    1.514302  -1.773880
     7  C    0.149963  -0.278720
     8  O   -0.343084   0.032888
     9  N   -0.283141   0.168996
    10  N   -0.040966  -0.399329
    11  H    0.151849   0.067118
    12  H    0.068425   0.177144
    13  H   -0.140415   0.424528
    14  H    0.071739   0.137026
    15  H   -0.973571   1.231122
    16  H    0.078412   0.212247
    17  H   -0.291598   0.571271
    18  H   -0.001340   0.283976
 Sum of Mulliken charges =  -1.00000   1.00000

 Dipole moment (field-independent basis, Debye):
    X=              1.7218    Y=             -4.1728    Z=             -2.6697  Tot=              5.2444
 Quadrupole moment (field-independent basis, Debye-Ang):
   XX=           -103.4097   YY=           -101.3407   ZZ=            -84.0142
   XY=              4.6683   XZ=              6.6386   YZ=             -3.7627

 Summary of Natural Population Analysis:

                                       Natural Population
                Natural  -----------------------------------------------
    Atom  No    Charge         Core      Valence    Rydberg      Total
 -----------------------------------------------------------------------
      C    1    0.12130      0.99962     1.86191    0.01717     2.87870
      N    2   -0.15106      0.99968     2.63829    0.01309     3.65106
      N    3   -0.16611      0.99978     2.65048    0.01585     3.66611
      N    4   -0.15604      0.99977     2.64087    0.01540     3.65604
      N    5   -0.20225      0.99972     2.68642    0.01611     3.70225
      C    6   -0.13226      0.99956     2.11919    0.01350     3.13226
      C    7    0.32805      0.99966     1.64838    0.02391     2.67195
      O    8   -0.32162      0.99988     3.31571    0.00603     4.32162
      N    9   -0.22900      0.99966     2.71458    0.01475     3.72900
      N   10   -0.32312      0.99977     2.81086    0.01249     3.82312
      H   11    0.10329      0.00000     0.39562    0.00109     0.39671
      H   12    0.17259      0.00000     0.32507    0.00234     0.32741
      H   13    0.17623      0.00000     0.31975    0.00402     0.32377
      H   14    0.10065      0.00000     0.39786    0.00149     0.39935
      H   15    0.12225      0.00000     0.36929    0.00846     0.37775
      H   16    0.18825      0.00000     0.30945    0.00230     0.31175
      H   17    0.18339      0.00000     0.30350    0.01312     0.31661
      H   18    0.18544      0.00000     0.30860    0.00595     0.31456
 =======================================================================
   * Total *    0.00000      9.99711    27.81581    0.18708    38.00000

 Normal termination of Gaussian 16 at Tue Dec  8 10:48:27 2020.
