 Gaussian 16, Revision A.03,

 -----------------------------------------------------------
 # opt freq B3LYP/6-31G(d) empiricaldispersion=gd3bj scf=xqc
 -----------------------------------------------------------

 -------------------------------
 CID_51073523_JID_10620_neutraal
 -------------------------------
 Symbolic Z-matrix:
 Charge =  0 Multiplicity = 1

 SCF Done:  E(RB3LYP) =  -1218.09248848     A.U. after   15 cycles
 SCF Done:  E(RB3LYP) =  -1218.06842660     A.U. after   14 cycles
 SCF Done:  E(RB3LYP) =  -1218.09966174     A.U. after   12 cycles
 SCF Done:  E(RB3LYP) =  -1218.10035676     A.U. after   13 cycles
 SCF Done:  E(RB3LYP) =  -1218.10142434     A.U. after   12 cycles
 SCF Done:  E(RB3LYP) =  -1218.10162342     A.U. after   11 cycles
 SCF Done:  E(RB3LYP) =  -1218.10173708     A.U. after   12 cycles
 SCF Done:  E(RB3LYP) =  -1218.10184953     A.U. after   11 cycles
 SCF Done:  E(RB3LYP) =  -1218.10197895     A.U. after   12 cycles
 SCF Done:  E(RB3LYP) =  -1218.10206419     A.U. after   12 cycles
 SCF Done:  E(RB3LYP) =  -1218.10233611     A.U. after    8 cycles
 SCF Done:  E(RB3LYP) =  -1218.10233698     A.U. after   10 cycles
 SCF Done:  E(RB3LYP) =  -1218.10233728     A.U. after    8 cycles
 SCF Done:  E(RB3LYP) =  -1218.10233731     A.U. after    7 cycles
 SCF Done:  E(RB3LYP) =  -1218.10233733     A.U. after    7 cycles
 Optimization completed.
    -- Stationary point found.
 Normal termination of Gaussian 16 at Sat Dec 12 16:33:22 2020.

 --------------------------------------------------------------------
 #N Geom=AllCheck Guess=TCheck SCRF=Check GenChk RB3LYP/6-31G(d) Freq
 --------------------------------------------------------------------

 Structure from the checkpoint file:  "JID_10620.chk"
 -------------------------------
 CID_51073523_JID_10620_neutraal
 -------------------------------
 Charge =  0 Multiplicity = 1

 SCF Done:  E(RB3LYP) =  -1218.10233733     A.U. after    1 cycles

  Exact polarizability: 204.517 -18.191 180.368  -7.769 -13.769 153.814
 Approx polarizability: 304.900 -29.919 277.188 -25.267 -38.477 265.125

                      1                      2                      3
                      A                      A                      A
 Frequencies --     14.4948                37.8585                44.8991
 Red. masses --      5.0694                 3.0462                 4.6955
 Frc consts  --      0.0006                 0.0026                 0.0056
 IR Inten    --      1.2821                 0.5541                 1.2748

                      4                      5                      6
                      A                      A                      A
 Frequencies --     58.8960                86.4055                88.5710
 Red. masses --      3.7274                 4.8559                 5.1240
 Frc consts  --      0.0076                 0.0214                 0.0237
 IR Inten    --      0.2500                 1.7533                 0.6741

                      7                      8                      9
                      A                      A                      A
 Frequencies --    116.5100               127.2255               143.0942
 Red. masses --      5.0673                 3.2247                 2.4067
 Frc consts  --      0.0405                 0.0308                 0.0290
 IR Inten    --      2.3646                 0.4979                 0.7659

                     10                     11                     12
                      A                      A                      A
 Frequencies --    150.1347               177.9648               201.4747
 Red. masses --      2.3300                 3.3451                 2.8684
 Frc consts  --      0.0309                 0.0624                 0.0686
 IR Inten    --      1.7955                 1.4458                 1.9466

                     13                     14                     15
                      A                      A                      A
 Frequencies --    206.8680               237.8789               248.4995
 Red. masses --      3.0743                 2.8619                 2.8620
 Frc consts  --      0.0775                 0.0954                 0.1041
 IR Inten    --      1.3346                 1.3611                 1.7206

                     16                     17                     18
                      A                      A                      A
 Frequencies --    287.6909               303.4841               320.0068
 Red. masses --      1.6984                 3.0461                 3.7301
 Frc consts  --      0.0828                 0.1653                 0.2251
 IR Inten    --      0.5160                 0.2275                 0.0669

                     19                     20                     21
                      A                      A                      A
 Frequencies --    348.7672               392.3472               429.6957
 Red. masses --      3.0971                 3.0093                 2.9832
 Frc consts  --      0.2220                 0.2729                 0.3245
 IR Inten    --      0.9049                 0.9203                 0.9387

                     22                     23                     24
                      A                      A                      A
 Frequencies --    446.5281               489.5705               531.7848
 Red. masses --      2.3316                 3.9635                 3.2504
 Frc consts  --      0.2739                 0.5597                 0.5416
 IR Inten    --      3.2239                 3.6145                 3.6294

                     25                     26                     27
                      A                      A                      A
 Frequencies --    574.9900               602.4937               639.0900
 Red. masses --      3.2494                 3.4113                 7.2349
 Frc consts  --      0.6330                 0.7296                 1.7410
 IR Inten    --      1.6104                 7.7071                 0.1104

                     28                     29                     30
                      A                      A                      A
 Frequencies --    645.7609               670.0307               681.4484
 Red. masses --      3.4158                 3.9322                 4.2827
 Frc consts  --      0.8392                 1.0401                 1.1717
 IR Inten    --      1.9465                 3.0050                 5.7170

                     31                     32                     33
                      A                      A                      A
 Frequencies --    712.2844               724.8473               747.0696
 Red. masses --      1.1927                 9.1916                 6.7408
 Frc consts  --      0.3565                 2.8453                 2.2166
 IR Inten    --     62.8213                 3.1007                 0.3923

                     34                     35                     36
                      A                      A                      A
 Frequencies --    769.4715               779.2369               781.6786
 Red. masses --      1.7799                 2.3333                 1.3008
 Frc consts  --      0.6209                 0.8348                 0.4683
 IR Inten    --     14.3496                 7.7329                10.3748

                     37                     38                     39
                      A                      A                      A
 Frequencies --    814.6924               830.6545               848.6939
 Red. masses --      4.4367                 2.6777                 1.6712
 Frc consts  --      1.7350                 1.0885                 0.7092
 IR Inten    --      9.7652                 1.4479                21.0590

                     40                     41                     42
                      A                      A                      A
 Frequencies --    855.6483               882.0776               895.9289
 Red. masses --      2.5216                 3.7311                 1.4381
 Frc consts  --      1.0877                 1.7104                 0.6801
 IR Inten    --      6.9377                 1.7393                 0.8972

                     43                     44                     45
                      A                      A                      A
 Frequencies --    907.0076               910.3968               923.9455
 Red. masses --      2.5119                 1.3707                 2.3829
 Frc consts  --      1.2175                 0.6693                 1.1985
 IR Inten    --      4.6950                 0.4372                 2.6170

                     46                     47                     48
                      A                      A                      A
 Frequencies --    954.6880               969.2110               993.0405
 Red. masses --      1.7908                 1.9525                 2.5919
 Frc consts  --      0.9617                 1.0806                 1.5059
 IR Inten    --      6.7822                 1.0908                 2.5496

                     49                     50                     51
                      A                      A                      A
 Frequencies --   1003.9835              1026.8527              1031.7967
 Red. masses --      1.5943                 2.8279                10.8497
 Frc consts  --      0.9468                 1.7568                 6.8055
 IR Inten    --      2.6322                 1.0274                 1.8655

                     52                     53                     54
                      A                      A                      A
 Frequencies --   1073.2112              1088.2412              1090.8611
 Red. masses --      1.6983                 2.2348                 2.1112
 Frc consts  --      1.1525                 1.5594                 1.4802
 IR Inten    --      3.4191                 5.2522                29.7246

                     55                     56                     57
                      A                      A                      A
 Frequencies --   1104.3614              1115.1504              1117.4075
 Red. masses --      3.5313                 1.6079                 1.7317
 Frc consts  --      2.5375                 1.1781                 1.2739
 IR Inten    --     28.6398                 7.0812                 9.9180

                     58                     59                     60
                      A                      A                      A
 Frequencies --   1130.0899              1144.8906              1145.6570
 Red. masses --      5.4341                 2.0482                 2.2310
 Frc consts  --      4.0889                 1.5818                 1.7253
 IR Inten    --     12.4264                 6.7361                22.3476

                     61                     62                     63
                      A                      A                      A
 Frequencies --   1178.7870              1188.9117              1231.0326
 Red. masses --      2.6890                 2.5804                 1.4775
 Frc consts  --      2.2015                 2.1490                 1.3192
 IR Inten    --      3.2203                 8.6551                 2.8463

                     64                     65                     66
                      A                      A                      A
 Frequencies --   1250.5568              1257.5446              1271.7283
 Red. masses --      2.2835                 1.4609                 1.3537
 Frc consts  --      2.1041                 1.3612                 1.2899
 IR Inten    --      6.6003                 5.6717                 8.3755

                     67                     68                     69
                      A                      A                      A
 Frequencies --   1275.4850              1293.7706              1303.3947
 Red. masses --      1.3860                 1.2336                 1.5408
 Frc consts  --      1.3285                 1.2166                 1.5422
 IR Inten    --      1.9595                14.6677                 2.9471

                     70                     71                     72
                      A                      A                      A
 Frequencies --   1308.7335              1329.9695              1339.4279
 Red. masses --      1.3049                 3.1884                 1.3743
 Frc consts  --      1.3168                 3.3228                 1.4527
 IR Inten    --      7.5674                 2.3131                 0.5567

                     73                     74                     75
                      A                      A                      A
 Frequencies --   1349.6879              1359.2993              1378.3485
 Red. masses --      1.2871                 1.3720                 1.3317
 Frc consts  --      1.3814                 1.4936                 1.4907
 IR Inten    --      2.9414                 3.7027                 8.9926

                     76                     77                     78
                      A                      A                      A
 Frequencies --   1381.9823              1393.5947              1396.3494
 Red. masses --      1.4354                 1.3976                 1.8949
 Frc consts  --      1.6152                 1.5992                 2.1768
 IR Inten    --     12.3856                 3.8309                 3.3884

                     79                     80                     81
                      A                      A                      A
 Frequencies --   1404.4503              1409.1271              1416.0047
 Red. masses --      1.4140                 1.6230                 1.4313
 Frc consts  --      1.6433                 1.8988                 1.6909
 IR Inten    --     15.3297                14.3616                 3.4411

                     82                     83                     84
                      A                      A                      A
 Frequencies --   1432.8052              1445.3303              1481.6918
 Red. masses --      1.3507                 1.2729                 2.8249
 Frc consts  --      1.6338                 1.5666                 3.6540
 IR Inten    --      6.1621                 2.3453                27.3624

                     85                     86                     87
                      A                      A                      A
 Frequencies --   1501.0903              1504.0762              1506.9536
 Red. masses --      1.1318                 1.1126                 5.9607
 Frc consts  --      1.5025                 1.4830                 7.9753
 IR Inten    --     11.6596                 2.8499                 8.3443

                     88                     89                     90
                      A                      A                      A
 Frequencies --   1514.6823              1523.3540              1526.5635
 Red. masses --      1.0946                 1.0553                 1.1716
 Frc consts  --      1.4796                 1.4429                 1.6086
 IR Inten    --      3.7037                 1.1320                 2.0921

                     91                     92                     93
                      A                      A                      A
 Frequencies --   1528.7711              1534.0273              1539.0779
 Red. masses --      1.1271                 1.3779                 1.6752
 Frc consts  --      1.5520                 1.9105                 2.3380
 IR Inten    --      2.4264                12.0266                11.7336

                     94                     95                     96
                      A                      A                      A
 Frequencies --   1543.0876              1548.3706              1604.1978
 Red. masses --      1.2304                 1.1554                 5.5068
 Frc consts  --      1.7261                 1.6321                 8.3495
 IR Inten    --      3.5834                 8.3386                 2.5872

                     97                     98                     99
                      A                      A                      A
 Frequencies --   2988.0845              3039.6926              3044.3125
 Red. masses --      1.0829                 1.0657                 1.0406
 Frc consts  --      5.6969                 5.8013                 5.6819
 IR Inten    --     25.8576                14.8155                24.4675

                    100                    101                    102
                      A                      A                      A
 Frequencies --   3045.8764              3052.3593              3075.2128
 Red. masses --      1.0715                 1.0702                 1.0596
 Frc consts  --      5.8569                 5.8750                 5.9041
 IR Inten    --     54.4868                43.8024                27.1039

                    103                    104                    105
                      A                      A                      A
 Frequencies --   3080.8933              3083.1998              3087.2315
 Red. masses --      1.0660                 1.0682                 1.0663
 Frc consts  --      5.9615                 5.9829                 5.9877
 IR Inten    --     15.5309                35.6462                17.5324

                    106                    107                    108
                      A                      A                      A
 Frequencies --   3094.3829              3104.2769              3119.1082
 Red. masses --      1.0964                 1.0967                 1.1043
 Frc consts  --      6.1851                 6.2269                 6.3298
 IR Inten    --     18.7619                13.9110                36.7783

                    109                    110                    111
                      A                      A                      A
 Frequencies --   3122.5267              3136.2472              3138.0988
 Red. masses --      1.0999                 1.0959                 1.0952
 Frc consts  --      6.3183                 6.3512                 6.3547
 IR Inten    --     53.0172                24.9340                 5.7045

                    112                    113                    114
                      A                      A                      A
 Frequencies --   3141.1485              3143.7300              3154.9346
 Red. masses --      1.0970                 1.0995                 1.1009
 Frc consts  --      6.3774                 6.4024                 6.4562
 IR Inten    --     10.8103                 3.3544                21.8374

                    115                    116                    117
                      A                      A                      A
 Frequencies --   3224.2133              3237.2291              3270.7658
 Red. masses --      1.0884                 1.0948                 1.0976
 Frc consts  --      6.6665                 6.7597                 6.9183
 IR Inten    --      4.5916                 3.5012                 0.9463

 - Thermochemistry -
 -------------------
 Temperature   298.150 Kelvin.  Pressure   1.00000 Atm.
 Atom     1 has atomic number  6 and mass  12.00000

 Molecular mass:   291.15177 amu.
 Principal axes and moments of inertia in atomic units:
                           1         2         3
     Eigenvalues --  4859.859355450.673298413.50368
           X            0.99358  -0.11310   0.00189
           Y            0.11309   0.99357   0.00607
           Z           -0.00256  -0.00582   0.99998
 This molecule is an asymmetric top.
 Rotational symmetry number  1.
 Warning -- assumption of classical behavior for rotation
           may cause significant error
 Rotational temperatures (Kelvin)      0.01782     0.01589     0.01029
 Rotational constants (GHZ):           0.37136     0.33110     0.21451
 Zero-point vibrational energy     918213.6 (Joules/Mol)
                                  219.45832 (Kcal/Mol)
 Warning -- explicit consideration of  26 degrees of freedom as
           vibrations may cause significant error
 Vibrational temperatures:     20.85    54.47    64.60    84.74   124.32
          (Kelvin)            127.43   167.63   183.05   205.88   216.01
                              256.05   289.88   297.64   342.25   357.54
                              413.92   436.65   460.42   501.80   564.50
                              618.24   642.45   704.38   765.12   827.28
                              866.85   919.51   929.11   964.02   980.45
                             1024.82  1042.89  1074.87  1107.10  1121.15
                             1124.66  1172.16  1195.13  1221.08  1231.09
                             1269.11  1289.04  1304.98  1309.86  1329.35
                             1373.58  1394.48  1428.76  1444.51  1477.41
                             1484.53  1544.11  1565.74  1569.51  1588.93
                             1604.45  1607.70  1625.95  1647.24  1648.34
                             1696.01  1710.58  1771.18  1799.27  1809.33
                             1829.73  1835.14  1861.45  1875.29  1882.98
                             1913.53  1927.14  1941.90  1955.73  1983.14
                             1988.36  2005.07  2009.04  2020.69  2027.42
                             2037.31  2061.49  2079.51  2131.82  2159.73
                             2164.03  2168.17  2179.29  2191.77  2196.38
                             2199.56  2207.12  2214.39  2220.16  2227.76
                             2308.08  4299.19  4373.44  4380.09  4382.34
                             4391.66  4424.55  4432.72  4436.04  4441.84
                             4452.13  4466.36  4487.70  4492.62  4512.36
                             4515.02  4519.41  4523.13  4539.25  4638.92
                             4657.65  4705.90

 Zero-point correction=                           0.349729 (Hartree/Particle)
 Thermal correction to Energy=                    0.368498
 Thermal correction to Enthalpy=                  0.369442
 Thermal correction to Gibbs Free Energy=         0.300855
 Sum of electronic and zero-point Energies=          -1217.752608
 Sum of electronic and thermal Energies=             -1217.733840
 Sum of electronic and thermal Enthalpies=           -1217.732896
 Sum of electronic and thermal Free Energies=        -1217.801482

                     E (Thermal)             CV                S
                      KCal/Mol        Cal/Mol-Kelvin    Cal/Mol-Kelvin
 Total                  231.236             71.627            144.353
 Electronic               0.000              0.000              0.000
 Translational            0.889              2.981             42.904
 Rotational               0.889              2.981             33.766
 Vibrational            229.458             65.665             67.684
 Vibration     1          0.593              1.986              7.274
 Vibration     2          0.594              1.982              5.368
 Vibration     3          0.595              1.979              5.030
 Vibration     4          0.596              1.974              4.494
 Vibration     5          0.601              1.959              3.740
 Vibration     6          0.601              1.957              3.691
 Vibration     7          0.608              1.936              3.157
 Vibration     8          0.611              1.926              2.988
 Vibration     9          0.616              1.910              2.762
 Vibration    10          0.618              1.903              2.671
 Vibration    11          0.628              1.869              2.350
 Vibration    12          0.638              1.838              2.120
 Vibration    13          0.641              1.830              2.071
 Vibration    14          0.656              1.783              1.819
 Vibration    15          0.662              1.765              1.741
 Vibration    16          0.685              1.697              1.488
 Vibration    17          0.695              1.667              1.398
 Vibration    18          0.706              1.635              1.310
 Vibration    19          0.726              1.578              1.172
 Vibration    20          0.760              1.487              0.991
 Vibration    21          0.791              1.406              0.860
 Vibration    22          0.806              1.369              0.806
 Vibration    23          0.845              1.273              0.685
 Vibration    24          0.887              1.180              0.583
 Vibration    25          0.931              1.085              0.495
 Vibration    26          0.961              1.027              0.445

 Optimization completed.
    -- Stationary point found.
 Normal termination of Gaussian 16 at Sat Dec 12 16:59:33 2020.

 ----------------------------------------------------------------------
 # B3LYP/6-311++G(d,p) empiricaldispersion=gd3bj scf=xqc pop=npa geom=c
 heck
 ----------------------------------------------------------------------

 ---------------------------------------
 CID_51073523_JID_10620_Energie_neutraal
 ---------------------------------------
 Structure from the checkpoint file:  "JID_10620.chk"
 Charge =  0 Multiplicity = 1

 SCF Done:  E(RB3LYP) =  -1218.34174705     A.U. after   16 cycles
 Normal termination of Gaussian 16 at Sat Dec 12 17:12:27 2020.

 ----------------------------------------------------------------------
 # B3LYP/6-311++G(d,p) empiricaldispersion=gd3bj scf=xqc pop=npa geom=c
 heck
 ----------------------------------------------------------------------

 -------------------------------------
 CID_51073523_JID_10620_Energie_kation
 -------------------------------------
 Structure from the checkpoint file:  "JID_10620.chk"
 Charge =  1 Multiplicity = 2

 SCF Done:  E(UB3LYP) =  -1218.04286294     A.U. after   28 cycles
 Normal termination of Gaussian 16 at Sat Dec 12 17:43:58 2020.
 Gaussian 16:  ES64L-G16RevA.03 25-Dec-2016

 ----------------------------------------------------------------------
 # B3LYP/6-311++G(d,p) empiricaldispersion=gd3bj scf=xqc pop=npa geom=c
 heck
 ----------------------------------------------------------------------

 ------------------------------------
 CID_51073523_JID_10620_Energie_anion
 ------------------------------------
 Structure from the checkpoint file:  "JID_10620.chk"
 Charge = -1 Multiplicity = 2

                         Standard orientation:
 ---------------------------------------------------------------------
 Center     Atomic      Atomic             Coordinates (Angstroms)
 Number     Number       Type             X           Y           Z
 ---------------------------------------------------------------------
      1          6           0       -3.668575    0.304147    1.353144
      2          6           0       -3.888701   -0.907721    0.444323
      3          6           0       -3.266626   -0.767841   -0.954123
      4          6           0       -1.781571   -0.403466   -1.016991
      5          7           0       -0.880323   -1.481335   -0.586157
      6          6           0        0.456217   -1.604837   -0.768571
      7          7           0        0.833064   -2.764632   -0.250839
      8          7           0       -0.284829   -3.337294    0.262569
      9          7           0       -1.321000   -2.585423    0.064787
     10          6           0        1.354248   -0.608047   -1.458260
     11          7           0        2.433869    0.008492   -0.688411
     12          6           0        3.448211   -0.935687   -0.178039
     13          6           0        3.114539   -1.232957    1.314589
     14          6           0        2.019450   -0.206856    1.683270
     15          6           0        2.074226    0.797401    0.510705
     16          6           0        0.881235    1.688245    0.364539
     17          6           0       -0.155577    1.871716    1.242398
     18          6           0       -1.086142    2.876276    0.826279
     19          6           0       -0.744918    3.446540   -0.367446
     20         16           0        0.730384    2.778536   -0.997292
     21          1           0       -2.614575    0.412113    1.629382
     22          1           0       -4.241151    0.202575    2.281315
     23          1           0       -3.980627    1.237095    0.866346
     24          1           0       -3.494732   -1.806185    0.925437
     25          1           0       -4.966044   -1.067287    0.307483
     26          1           0       -3.433400   -1.688160   -1.524951
     27          1           0       -3.783937    0.037460   -1.493278
     28          1           0       -1.514010   -0.166213   -2.050754
     29          1           0       -1.564687    0.480191   -0.412847
     30          1           0        1.829866   -1.123834   -2.298514
     31          1           0        0.739112    0.185754   -1.885234
     32          1           0        4.430723   -0.454113   -0.257830
     33          1           0        3.462076   -1.838644   -0.790678
     34          1           0        2.747073   -2.252883    1.434446
     35          1           0        4.004155   -1.111402    1.940462
     36          1           0        1.036791   -0.686290    1.726616
     37          1           0        2.194892    0.282982    2.645879
     38          1           0        2.948953    1.443626    0.685951
     39          1           0       -0.248441    1.311799    2.165546
     40          1           0       -1.970267    3.148787    1.390915
     41          1           0       -1.269482    4.215918   -0.917568
 ---------------------------------------------------------------------

 SCF Done:  E(UB3LYP) =  -1218.33451833     A.U. after   33 cycles
 SCF Done:  E(UB3LYP) =  -1218.33451833     a.u. after    1 cycles

 The electronic state is 2-A.
 Alpha  occ. eigenvalues --  -88.75793 -14.30966 -14.27722 -14.26713 -14.23253
 Alpha  occ. eigenvalues --  -14.21223 -10.14665 -10.11941 -10.11753 -10.10809
 Alpha  occ. eigenvalues --  -10.09613 -10.08243 -10.07809 -10.07690 -10.07029
 Alpha  occ. eigenvalues --  -10.06811 -10.06687 -10.06389 -10.06133 -10.06090
 Alpha  occ. eigenvalues --   -7.84406  -5.80694  -5.80328  -5.80020  -1.03325
 Alpha  occ. eigenvalues --   -0.84909  -0.84460  -0.78722  -0.76580  -0.70697
 Alpha  occ. eigenvalues --   -0.68979  -0.65454  -0.64679  -0.62227  -0.61475
 Alpha  occ. eigenvalues --   -0.59015  -0.58208  -0.54650  -0.51912  -0.49613
 Alpha  occ. eigenvalues --   -0.48998  -0.47667  -0.44931  -0.43222  -0.41821
 Alpha  occ. eigenvalues --   -0.41390  -0.40593  -0.38633  -0.36956  -0.36339
 Alpha  occ. eigenvalues --   -0.35815  -0.35275  -0.34194  -0.33627  -0.31294
 Alpha  occ. eigenvalues --   -0.31221  -0.30292  -0.29590  -0.29098  -0.28618
 Alpha  occ. eigenvalues --   -0.27821  -0.27386  -0.26240  -0.25819  -0.24864
 Alpha  occ. eigenvalues --   -0.24551  -0.24368  -0.23928  -0.23348  -0.23037
 Alpha  occ. eigenvalues --   -0.22395  -0.20448  -0.19772  -0.19249  -0.18766
 Alpha  occ. eigenvalues --   -0.14539  -0.13143  -0.12642   0.04437
 Alpha virt. eigenvalues --    0.06056   0.07091   0.07469   0.07808   0.08099
 Alpha virt. eigenvalues --    0.08749   0.08949   0.09561   0.09875   0.10191
 Alpha virt. eigenvalues --    0.10462   0.11155   0.11277   0.11893   0.12234

  Beta  occ. eigenvalues --  -88.75775 -14.30929 -14.27697 -14.26721 -14.23238
  Beta  occ. eigenvalues --  -14.21185 -10.14648 -10.11924 -10.11753 -10.10816
  Beta  occ. eigenvalues --  -10.09605 -10.08030 -10.07789 -10.07460 -10.07025
  Beta  occ. eigenvalues --  -10.06808 -10.06680 -10.06406 -10.06111 -10.06045
  Beta  occ. eigenvalues --   -7.84389  -5.80691  -5.80324  -5.79946  -1.03292
  Beta  occ. eigenvalues --   -0.84860  -0.84394  -0.78678  -0.76356  -0.70663
  Beta  occ. eigenvalues --   -0.68941  -0.65263  -0.64644  -0.62088  -0.61427
  Beta  occ. eigenvalues --   -0.58812  -0.58168  -0.54615  -0.51863  -0.49525
  Beta  occ. eigenvalues --   -0.48946  -0.47603  -0.44674  -0.43107  -0.41738
  Beta  occ. eigenvalues --   -0.41285  -0.40511  -0.38546  -0.36895  -0.36271
  Beta  occ. eigenvalues --   -0.35772  -0.35200  -0.34156  -0.33599  -0.31236
  Beta  occ. eigenvalues --   -0.31164  -0.30227  -0.29552  -0.28998  -0.28542
  Beta  occ. eigenvalues --   -0.27632  -0.27352  -0.26069  -0.25559  -0.24800
  Beta  occ. eigenvalues --   -0.24444  -0.24305  -0.23868  -0.23316  -0.22950
  Beta  occ. eigenvalues --   -0.22299  -0.20337  -0.19731  -0.19143  -0.18745
  Beta  occ. eigenvalues --   -0.14063  -0.12887  -0.11758
  Beta virt. eigenvalues --    0.06614   0.06885   0.07789   0.08010   0.08209
  Beta virt. eigenvalues --    0.08617   0.08888   0.09101   0.09738   0.10052
  Beta virt. eigenvalues --    0.10558   0.10601   0.11259   0.11472   0.11958

 Mulliken charges and spin densities:
               1          2
     1  C   -0.178817  -0.244171
     2  C   -0.273204  -0.123461
     3  C    0.219439  -0.770100
     4  C   -0.529040   0.347377
     5  N    0.144617   0.029100
     6  C   -0.419792   0.118410
     7  N   -0.023013  -0.016775
     8  N    0.267888   0.000234
     9  N   -0.082423  -0.023793
    10  C   -0.368027  -0.128290
    11  N    0.218298  -0.018247
    12  C    0.122059  -0.184646
    13  C   -0.879516   0.081920
    14  C    0.118949  -0.217732
    15  C    0.151224  -0.178302
    16  C   -0.004024   0.069064
    17  C   -0.286091   0.068781
    18  C   -0.136284  -0.004950
    19  C   -0.289280  -0.059468
    20  S   -0.106340   0.149472
    21  H    0.163729  -0.020200
    22  H   -0.020253   0.160202
    23  H   -0.019129   0.157584
    24  H    0.153621   0.014659
    25  H   -0.068487   0.215748
    26  H    0.018971   0.161198
    27  H   -0.393280   0.558863
    28  H   -0.643609   0.867859
    29  H    1.231061  -1.062836
    30  H    0.166747   0.044449
    31  H    0.063498   0.027923
    32  H    0.068573   0.091983
    33  H    0.149266   0.004043
    34  H    0.182601  -0.006785
    35  H    0.030681   0.109072
    36  H    0.177286  -0.016866
    37  H    0.073951   0.107088
    38  H   -0.126722   0.349783
    39  H    0.115895   0.004437
    40  H    0.116046   0.029948
    41  H   -0.107070   0.307425
 Sum of Mulliken charges =  -1.00000   1.00000

 Dipole moment (field-independent basis, Debye):
    X=              2.9225    Y=             -0.2150    Z=              1.7960  Tot=              3.4370
 Quadrupole moment (field-independent basis, Debye-Ang):
   XX=           -185.5043   YY=           -185.4945   ZZ=           -158.2232
   XY=             -4.3746   XZ=             -8.5000   YZ=              3.7827

 Summary of Natural Population Analysis:

                                       Natural Population
                Natural  -----------------------------------------------
    Atom  No    Charge         Core      Valence    Rydberg      Total
 -----------------------------------------------------------------------
      C    1   -0.28901      0.99966     2.28423    0.00511     3.28901
      C    2   -0.19475      0.99963     2.18738    0.00774     3.19475
      C    3   -0.19211      0.99963     2.18321    0.00927     3.19211
      C    4   -0.09403      0.99958     2.08240    0.01205     3.09403
      N    5   -0.10585      0.99959     2.59239    0.01386     3.60585
      C    6    0.18051      0.99959     1.80218    0.01772     2.81949
      N    7   -0.17293      0.99969     2.66187    0.01137     3.67293
      N    8   -0.04901      0.99981     2.53255    0.01666     3.54901
      N    9   -0.04584      0.99977     2.52974    0.01632     3.54584
      C   10   -0.11375      0.99956     2.10067    0.01352     3.11375
      N   11   -0.26613      0.99974     2.75421    0.01218     3.76613
      C   12   -0.08800      0.99964     2.07743    0.01094     3.08800
      C   13   -0.20580      0.99964     2.19839    0.00777     3.20580
      C   14   -0.19615      0.99963     2.18840    0.00812     3.19615
      C   15   -0.02365      0.99953     2.00910    0.01502     3.02365
      C   16   -0.07742      0.99946     2.06402    0.01395     3.07742
      C   17   -0.12939      0.99946     2.12021    0.00973     3.12939
      C   18   -0.14115      0.99953     2.13093    0.01069     3.14115
      C   19   -0.15958      0.99953     2.14847    0.01157     3.15958
      S   20    0.20683      4.99941     2.77467    0.01910     7.79317
      H   21    0.09942      0.00000     0.39953    0.00105     0.40058
      H   22    0.09647      0.00000     0.40283    0.00070     0.40353
      H   23    0.09666      0.00000     0.40239    0.00095     0.40334
      H   24    0.10550      0.00000     0.39270    0.00180     0.39450
      H   25    0.09312      0.00000     0.40591    0.00097     0.40688
      H   26    0.10296      0.00000     0.39569    0.00135     0.39704
      H   27    0.10342      0.00000     0.39492    0.00166     0.39658
      H   28    0.10709      0.00000     0.39026    0.00265     0.39291
      H   29    0.11615      0.00000     0.38091    0.00294     0.38385
      H   30    0.10752      0.00000     0.39156    0.00092     0.39248
      H   31    0.11508      0.00000     0.38339    0.00154     0.38492
      H   32    0.09097      0.00000     0.40814    0.00089     0.40903
      H   33    0.10019      0.00000     0.39888    0.00093     0.39981
      H   34    0.10982      0.00000     0.38924    0.00094     0.39018
      H   35    0.09387      0.00000     0.40504    0.00109     0.40613
      H   36    0.09975      0.00000     0.39876    0.00149     0.40025
      H   37    0.10156      0.00000     0.39750    0.00094     0.39844
      H   38    0.10430      0.00000     0.39386    0.00183     0.39570
      H   39    0.10552      0.00000     0.39366    0.00082     0.39448
      H   40    0.10415      0.00000     0.39504    0.00081     0.39585
      H   41    0.10370      0.00000     0.39539    0.00091     0.39630
 =======================================================================
   * Total *    0.00000     23.99207    53.73806    0.26987    78.00000

 Normal termination of Gaussian 16 at Sat Dec 12 18:21:05 2020.
