 Gaussian 16, Revision A.03,

 -----------------------------------------------------------
 # opt freq B3LYP/6-31G(d) empiricaldispersion=gd3bj scf=xqc
 -----------------------------------------------------------

 -----------------------------
 CID_65131179_JID_430_neutraal
 -----------------------------
 Symbolic Z-matrix:
 Charge =  0 Multiplicity = 1

 SCF Done:  E(RB3LYP) =  -764.369515245     A.U. after   14 cycles
 SCF Done:  E(RB3LYP) =  -764.375039201     A.U. after   12 cycles
 SCF Done:  E(RB3LYP) =  -764.375288600     A.U. after   12 cycles
 SCF Done:  E(RB3LYP) =  -764.375318382     A.U. after   10 cycles
 SCF Done:  E(RB3LYP) =  -764.375300667     A.U. after   12 cycles
 SCF Done:  E(RB3LYP) =  -764.375326569     A.U. after   11 cycles
 SCF Done:  E(RB3LYP) =  -764.375341561     A.U. after    9 cycles
 SCF Done:  E(RB3LYP) =  -764.375342724     A.U. after    8 cycles
 SCF Done:  E(RB3LYP) =  -764.375343511     A.U. after    8 cycles
 SCF Done:  E(RB3LYP) =  -764.375343777     A.U. after    8 cycles
 SCF Done:  E(RB3LYP) =  -764.375344128     A.U. after    8 cycles
 SCF Done:  E(RB3LYP) =  -764.375344322     A.U. after    8 cycles
 Optimization completed.
    -- Stationary point found.
 Normal termination of Gaussian 16 at Tue Dec  8 10:34:09 2020.

 --------------------------------------------------------------------
 #N Geom=AllCheck Guess=TCheck SCRF=Check GenChk RB3LYP/6-31G(d) Freq
 --------------------------------------------------------------------

 Structure from the checkpoint file:  "JID_430.chk"
 -----------------------------
 CID_65131179_JID_430_neutraal
 -----------------------------
 Charge =  0 Multiplicity = 1

 SCF Done:  E(RB3LYP) =  -764.375344321     A.U. after    1 cycles

  Exact polarizability: 113.208  -1.494  99.250  -3.802   1.342  81.102
 Approx polarizability: 148.964  -9.665 155.474  -7.569   5.768 124.280

                      1                      2                      3
                      A                      A                      A
 Frequencies --     44.7038                83.4796               139.1621
 Red. masses --      4.0881                 3.4169                 5.5077
 Frc consts  --      0.0048                 0.0140                 0.0628
 IR Inten    --      0.4745                 2.6737                 5.9434

                      4                      5                      6
                      A                      A                      A
 Frequencies --    148.2137               165.2638               195.3077
 Red. masses --      3.6888                 1.3261                 2.1167
 Frc consts  --      0.0477                 0.0213                 0.0476
 IR Inten    --      3.7523                 0.4099                 2.3387

                      7                      8                      9
                      A                      A                      A
 Frequencies --    256.9143               267.8193               319.9233
 Red. masses --      2.5827                 4.8157                 2.4371
 Frc consts  --      0.1004                 0.2035                 0.1470
 IR Inten    --      0.1414                 0.4093                 0.0175

                     10                     11                     12
                      A                      A                      A
 Frequencies --    357.7485               379.4530               451.3665
 Red. masses --      2.6746                 2.1995                 4.9134
 Frc consts  --      0.2017                 0.1866                 0.5898
 IR Inten    --      0.6273                 0.3838                 0.5067

                     13                     14                     15
                      A                      A                      A
 Frequencies --    519.9338               572.4945               635.6714
 Red. masses --      9.4035                 5.3674                 3.7876
 Frc consts  --      1.4977                 1.0365                 0.9017
 IR Inten    --      0.8533                 0.1489                 0.9532

                     16                     17                     18
                      A                      A                      A
 Frequencies --    715.2729               750.2514               780.7343
 Red. masses --      5.6921                 3.2840                 1.0340
 Frc consts  --      1.7158                 1.0891                 0.3713
 IR Inten    --      1.0710                 2.3811                 0.2455

                     19                     20                     21
                      A                      A                      A
 Frequencies --    850.8153               864.4650               898.0262
 Red. masses --      1.2941                 2.9646                 3.5521
 Frc consts  --      0.5519                 1.3053                 1.6877
 IR Inten    --      0.0630                 3.3643                 3.7245

                     22                     23                     24
                      A                      A                      A
 Frequencies --    919.5625               980.3709               989.0369
 Red. masses --      1.7577                 1.4259                 1.7457
 Frc consts  --      0.8757                 0.8075                 1.0061
 IR Inten    --      0.1159                 3.2141                 2.7151

                     25                     26                     27
                      A                      A                      A
 Frequencies --    994.3474              1001.7466              1034.9067
 Red. masses --      2.4799                 1.2000                 2.4899
 Frc consts  --      1.4446                 0.7095                 1.5712
 IR Inten    --      5.1752                 3.6234                 4.1071

                     28                     29                     30
                      A                      A                      A
 Frequencies --   1062.7355              1075.0490              1082.6156
 Red. masses --      1.4703                 3.4351                 1.4565
 Frc consts  --      0.9784                 2.3391                 1.0058
 IR Inten    --      3.7662                11.1072                 2.3616

                     31                     32                     33
                      A                      A                      A
 Frequencies --   1116.2560              1170.0449              1198.0096
 Red. masses --      1.0494                 3.1389                 1.3022
 Frc consts  --      0.7704                 2.5318                 1.1011
 IR Inten    --      0.6686                 7.1215                 0.0083

                     34                     35                     36
                      A                      A                      A
 Frequencies --   1227.2880              1256.4283              1277.3945
 Red. masses --      1.4254                 1.3309                 2.8770
 Frc consts  --      1.2649                 1.2378                 2.7659
 IR Inten    --      4.5626                 0.0338                 0.1008

                     37                     38                     39
                      A                      A                      A
 Frequencies --   1291.0251              1392.0152              1408.0062
 Red. masses --      1.5502                 1.1574                 2.4944
 Frc consts  --      1.5224                 1.3214                 2.9135
 IR Inten    --      4.3752                 0.4639                 0.4239

                     40                     41                     42
                      A                      A                      A
 Frequencies --   1489.3084              1496.4696              1497.8494
 Red. masses --      1.0887                 1.0684                 1.0678
 Frc consts  --      1.4228                 1.4097                 1.4114
 IR Inten    --      1.7800                 3.0229                10.0946

                     43                     44                     45
                      A                      A                      A
 Frequencies --   1514.9845              1517.1553              1534.5882
 Red. masses --      1.0636                 1.1116                 1.5365
 Frc consts  --      1.4383                 1.5075                 2.1319
 IR Inten    --      8.0943                 6.1738                 0.3494

                     46                     47                     48
                      A                      A                      A
 Frequencies --   2349.1624              3064.4693              3072.4571
 Red. masses --     12.6914                 1.0303                 1.0580
 Frc consts  --     41.2654                 5.7009                 5.8843
 IR Inten    --     13.7474                16.1149                30.1788

                     49                     50                     51
                      A                      A                      A
 Frequencies --   3078.0626              3130.2957              3131.6153
 Red. masses --      1.0587                 1.1100                 1.1078
 Frc consts  --      5.9099                 6.4084                 6.4011
 IR Inten    --      9.3699                13.7811                 9.3576

                     52                     53                     54
                      A                      A                      A
 Frequencies --   3138.4908              3142.8976              3148.6498
 Red. masses --      1.0512                 1.0576                 1.1068
 Frc consts  --      6.1009                 6.1550                 6.4652
 IR Inten    --     17.8877                 9.8496                 8.4553

                     55                     56                     57
                      A                      A                      A
 Frequencies --   3162.8974              3213.2380              3227.6100
 Red. masses --      1.1050                 1.1197                 1.1165
 Frc consts  --      6.5129                 6.8115                 6.8526
 IR Inten    --      3.0718                 0.3519                17.2730

 - Thermochemistry -
 -------------------
 Temperature   298.150 Kelvin.  Pressure   1.00000 Atm.
 Atom     1 has atomic number  6 and mass  12.00000

 Molecular mass:   153.06122 amu.
 Principal axes and moments of inertia in atomic units:
                           1         2         3
     Eigenvalues --   975.927252151.695102650.07892
           X            0.99951   0.02815  -0.01394
           Y           -0.02865   0.99892  -0.03660
           Z            0.01290   0.03698   0.99923
 This molecule is an asymmetric top.
 Rotational symmetry number  1.
 Warning -- assumption of classical behavior for rotation
           may cause significant error
 Rotational temperatures (Kelvin)      0.08875     0.04025     0.03268
 Rotational constants (GHZ):           1.84926     0.83875     0.68101
 Zero-point vibrational energy     453289.3 (Joules/Mol)
                                  108.33875 (Kcal/Mol)
 Warning -- explicit consideration of  14 degrees of freedom as
           vibrations may cause significant error
 Vibrational temperatures:     64.32   120.11   200.22   213.25   237.78
          (Kelvin)            281.00   369.64   385.33   460.30   514.72
                              545.95   649.42   748.07   823.69   914.59
                             1029.12  1079.44  1123.30  1224.13  1243.77
                             1292.06  1323.05  1410.54  1423.00  1430.64
                             1441.29  1489.00  1529.04  1546.76  1557.64
                             1606.04  1683.43  1723.67  1765.79  1807.72
                             1837.89  1857.50  2002.80  2025.81  2142.78
                             2153.09  2155.07  2179.72  2182.85  2207.93
                             3379.92  4409.09  4420.58  4428.65  4503.80
                             4505.70  4515.59  4521.93  4530.20  4550.70
                             4623.13  4643.81

 Zero-point correction=                           0.172649 (Hartree/Particle)
 Thermal correction to Energy=                    0.183334
 Thermal correction to Enthalpy=                  0.184278
 Thermal correction to Gibbs Free Energy=         0.136005
 Sum of electronic and zero-point Energies=           -764.202696
 Sum of electronic and thermal Energies=              -764.192011
 Sum of electronic and thermal Enthalpies=            -764.191066
 Sum of electronic and thermal Free Energies=         -764.239339

                     E (Thermal)             CV                S
                      KCal/Mol        Cal/Mol-Kelvin    Cal/Mol-Kelvin
 Total                  115.044             39.393            101.599
 Electronic               0.000              0.000              0.000
 Translational            0.889              2.981             40.987
 Rotational               0.889              2.981             30.099
 Vibrational            113.266             33.431             30.513
 Vibration     1          0.595              1.980              5.039
 Vibration     2          0.600              1.961              3.807
 Vibration     3          0.615              1.914              2.815
 Vibration     4          0.618              1.905              2.695
 Vibration     5          0.624              1.885              2.489
 Vibration     6          0.636              1.846              2.177
 Vibration     7          0.667              1.751              1.683
 Vibration     8          0.673              1.732              1.610
 Vibration     9          0.706              1.635              1.310
 Vibration    10          0.733              1.559              1.132
 Vibration    11          0.749              1.514              1.041
 Vibration    12          0.810              1.358              0.792
 Vibration    13          0.875              1.206              0.610
 Vibration    14          0.929              1.091              0.499

 Optimization completed.
    -- Stationary point found.
 Normal termination of Gaussian 16 at Tue Dec  8 10:38:55 2020.

 ----------------------------------------------------------------------
 # B3LYP/6-311++G(d,p) empiricaldispersion=gd3bj scf=xqc pop=npa geom=c
 heck
 ----------------------------------------------------------------------

 -------------------------------------
 CID_65131179_JID_430_Energie_neutraal
 -------------------------------------
 Structure from the checkpoint file:  "JID_430.chk"
 Charge =  0 Multiplicity = 1

 SCF Done:  E(RB3LYP) =  -764.501051591     A.U. after   15 cycles
 Normal termination of Gaussian 16 at Tue Dec  8 10:42:04 2020.

 ----------------------------------------------------------------------
 # B3LYP/6-311++G(d,p) empiricaldispersion=gd3bj scf=xqc pop=npa geom=c
 heck
 ----------------------------------------------------------------------

 -----------------------------------
 CID_65131179_JID_430_Energie_kation
 -----------------------------------
 Structure from the checkpoint file:  "JID_430.chk"
 Charge =  1 Multiplicity = 2

 SCF Done:  E(UB3LYP) =  -764.176314085     A.U. after   23 cycles
 Normal termination of Gaussian 16 at Tue Dec  8 10:46:39 2020.
 Gaussian 16:  ES64L-G16RevA.03 25-Dec-2016

 ----------------------------------------------------------------------
 # B3LYP/6-311++G(d,p) empiricaldispersion=gd3bj scf=xqc pop=npa geom=c
 heck
 ----------------------------------------------------------------------

 ----------------------------------
 CID_65131179_JID_430_Energie_anion
 ----------------------------------
 Structure from the checkpoint file:  "JID_430.chk"
 Charge = -1 Multiplicity = 2

                         Standard orientation:
 ---------------------------------------------------------------------
 Center     Atomic      Atomic             Coordinates (Angstroms)
 Number     Number       Type             X           Y           Z
 ---------------------------------------------------------------------
      1          6           0       -2.475533   -1.303299    0.731763
      2         16           0       -1.272874   -1.156401   -0.632588
      3          6           0       -0.418798    0.394305   -0.134807
      4          6           0        0.557359    0.231440    1.082399
      5          6           0        1.710813    0.122732    0.082050
      6          6           0        0.824371    0.626884   -1.059643
      7          6           0        2.680724   -1.017605   -0.010089
      8          6           0        3.168678    0.378633    0.309948
      9          6           0       -1.374418    1.487828   -0.035678
     10          7           0       -2.146446    2.349287    0.077072
     11          1           0       -3.052238   -2.212300    0.544238
     12          1           0       -3.151517   -0.444456    0.746322
     13          1           0       -1.969220   -1.397326    1.696809
     14          1           0        0.595595    1.141028    1.690922
     15          1           0        0.362433   -0.630254    1.726235
     16          1           0        0.824425    0.058460   -1.994430
     17          1           0        0.959912    1.689232   -1.283839
     18          1           0        2.673614   -1.756321    0.787296
     19          1           0        2.894874   -1.424947   -0.994941
     20          1           0        3.717094    0.919748   -0.457300
     21          1           0        3.496954    0.589032    1.324927
 ---------------------------------------------------------------------

 SCF Done:  E(UB3LYP) =  -764.486163224     A.U. after   33 cycles
 SCF Done:  E(UB3LYP) =  -764.486163224     a.u. after    1 cycles

 The electronic state is 2-A.
 Alpha  occ. eigenvalues --  -88.75401 -14.22001 -10.15346 -10.11845 -10.09784
 Alpha  occ. eigenvalues --  -10.09549 -10.09451 -10.08855 -10.07446 -10.07374
 Alpha  occ. eigenvalues --   -7.83987  -5.80407  -5.80034  -5.79312  -0.82148
 Alpha  occ. eigenvalues --   -0.79499  -0.73906  -0.67686  -0.59235  -0.58859
 Alpha  occ. eigenvalues --   -0.53175  -0.50707  -0.44318  -0.41916  -0.38877
 Alpha  occ. eigenvalues --   -0.38758  -0.34070  -0.33498  -0.32425  -0.31303
 Alpha  occ. eigenvalues --   -0.31094  -0.28227  -0.27345  -0.26817  -0.25370
 Alpha  occ. eigenvalues --   -0.23724  -0.23016  -0.21858  -0.19333  -0.18525
 Alpha  occ. eigenvalues --   -0.13875   0.04621
 Alpha virt. eigenvalues --    0.06349   0.07920   0.08238   0.08465   0.09145
 Alpha virt. eigenvalues --    0.09900   0.10480   0.10714   0.11014   0.11941
 Alpha virt. eigenvalues --    0.12294   0.12733   0.14090   0.14526   0.14710

  Beta  occ. eigenvalues --  -88.75392 -14.21993 -10.15333 -10.11844 -10.09775
  Beta  occ. eigenvalues --  -10.09549 -10.09386 -10.08822 -10.07422 -10.07337
  Beta  occ. eigenvalues --   -7.83978  -5.80387  -5.80023  -5.79306  -0.82137
  Beta  occ. eigenvalues --   -0.79481  -0.73878  -0.67631  -0.59181  -0.58816
  Beta  occ. eigenvalues --   -0.53098  -0.50615  -0.44249  -0.41845  -0.38833
  Beta  occ. eigenvalues --   -0.38732  -0.34014  -0.33449  -0.32380  -0.31255
  Beta  occ. eigenvalues --   -0.31064  -0.28190  -0.27310  -0.26779  -0.25316
  Beta  occ. eigenvalues --   -0.23697  -0.22980  -0.21822  -0.19300  -0.18496
  Beta  occ. eigenvalues --   -0.13844
  Beta virt. eigenvalues --    0.07129   0.07454   0.08671   0.08708   0.08841
  Beta virt. eigenvalues --    0.09732   0.10537   0.10840   0.11274   0.11357
  Beta virt. eigenvalues --    0.12178   0.12635   0.13203   0.14342   0.14775

 Mulliken charges and spin densities:
               1          2
     1  C    0.717340  -1.376810
     2  S   -0.275712   0.344329
     3  C   -0.536879   2.376683
     4  C    1.800301  -3.191710
     5  C   -2.801679   3.849770
     6  C    0.549512  -1.759298
     7  C    0.715443  -1.066574
     8  C    1.154721  -1.595291
     9  C    0.503702  -1.059112
    10  N   -0.304507   0.033050
    11  H   -0.589449   0.764003
    12  H   -0.035771   0.223348
    13  H   -0.403350   0.588727
    14  H   -0.232696   0.445082
    15  H   -0.256673   0.446475
    16  H    0.042864   0.133970
    17  H   -0.017041   0.220091
    18  H   -0.222074   0.372437
    19  H   -0.132703   0.276432
    20  H   -0.353091   0.499240
    21  H   -0.322258   0.475158
 Sum of Mulliken charges =  -1.00000   1.00000

 Dipole moment (field-independent basis, Debye):
    X=             -0.3483    Y=              0.9364    Z=             -3.7486  Tot=              3.8794
 Quadrupole moment (field-independent basis, Debye-Ang):
   XX=           -135.7735   YY=           -111.1329   ZZ=           -104.9583
   XY=             -2.3726   XZ=              1.4007   YZ=              4.6471

 Summary of Natural Population Analysis:

                                       Natural Population
                Natural  -----------------------------------------------
    Atom  No    Charge         Core      Valence    Rydberg      Total
 -----------------------------------------------------------------------
      C    1   -0.35368      0.99962     2.34714    0.00693     3.35368
      S    2    0.12413      4.99959     2.85780    0.01848     7.87587
      C    3   -0.15140      0.99945     2.13591    0.01604     3.15140
      C    4   -0.16773      0.99956     2.15587    0.01230     3.16773
      C    5   -0.05569      0.99957     2.04036    0.01576     3.05569
      C    6   -0.16497      0.99956     2.15592    0.00948     3.16497
      C    7   -0.18499      0.99958     2.17633    0.00908     3.18499
      C    8   -0.19189      0.99958     2.18294    0.00937     3.19189
      C    9    0.15735      0.99959     1.82427    0.01879     2.84265
      N   10   -0.18239      0.99979     2.67126    0.01134     3.68239
      H   11    0.11254      0.00000     0.38560    0.00186     0.38746
      H   12    0.10550      0.00000     0.39267    0.00183     0.39450
      H   13    0.10703      0.00000     0.38986    0.00311     0.39297
      H   14    0.10622      0.00000     0.39151    0.00226     0.39378
      H   15    0.11045      0.00000     0.38748    0.00206     0.38955
      H   16    0.10507      0.00000     0.39367    0.00126     0.39493
      H   17    0.10653      0.00000     0.39198    0.00149     0.39347
      H   18    0.10569      0.00000     0.39279    0.00152     0.39431
      H   19    0.10174      0.00000     0.39703    0.00123     0.39826
      H   20    0.10413      0.00000     0.39397    0.00190     0.39587
      H   21    0.10638      0.00000     0.39174    0.00188     0.39362
 =======================================================================
   * Total *   -0.00000     13.99590    26.85613    0.14798    41.00000

 Normal termination of Gaussian 16 at Tue Dec  8 10:56:05 2020.
