 Gaussian 16, Revision A.03,

 -----------------------------------------------------------
 # opt freq B3LYP/6-31G(d) empiricaldispersion=gd3bj scf=xqc
 -----------------------------------------------------------

 ------------------------------
 CID_62348386_JID_6638_neutraal
 ------------------------------
 Symbolic Z-matrix:
 Charge =  0 Multiplicity = 1

 SCF Done:  E(RB3LYP) =  -744.170571967     A.U. after   15 cycles
 SCF Done:  E(RB3LYP) =  -744.174036081     A.U. after   13 cycles
 SCF Done:  E(RB3LYP) =  -744.162714864     A.U. after   15 cycles
 SCF Done:  E(RB3LYP) =  -744.173368443     A.U. after   12 cycles
 SCF Done:  E(RB3LYP) =  -744.176120858     A.U. after   10 cycles
 SCF Done:  E(RB3LYP) =  -744.176903653     A.U. after   12 cycles
 SCF Done:  E(RB3LYP) =  -744.177392965     A.U. after   12 cycles
 SCF Done:  E(RB3LYP) =  -744.177657056     A.U. after   12 cycles
 SCF Done:  E(RB3LYP) =  -744.177810476     A.U. after   12 cycles
 SCF Done:  E(RB3LYP) =  -744.177889470     A.U. after   10 cycles
 SCF Done:  E(RB3LYP) =  -744.177968432     A.U. after   11 cycles
 SCF Done:  E(RB3LYP) =  -744.177968859     A.U. after   10 cycles
 SCF Done:  E(RB3LYP) =  -744.177969599     A.U. after    9 cycles
 SCF Done:  E(RB3LYP) =  -744.177969666     A.U. after    7 cycles
 SCF Done:  E(RB3LYP) =  -744.177969631     A.U. after    7 cycles
 Optimization completed.
    -- Stationary point found.
 Normal termination of Gaussian 16 at Fri Dec 11 00:07:34 2020.

 --------------------------------------------------------------------
 #N Geom=AllCheck Guess=TCheck SCRF=Check GenChk RB3LYP/6-31G(d) Freq
 --------------------------------------------------------------------

 Structure from the checkpoint file:  "JID_6638.chk"
 ------------------------------
 CID_62348386_JID_6638_neutraal
 ------------------------------
 Charge =  0 Multiplicity = 1

 SCF Done:  E(RB3LYP) =  -744.177969631     A.U. after    1 cycles

  Exact polarizability: 184.762 -24.882 111.946   7.974  10.308 124.074
 Approx polarizability: 255.839 -43.840 157.667   4.245  28.160 223.655

                      1                      2                      3
                      A                      A                      A
 Frequencies --     26.9194                32.0717                55.3248
 Red. masses --      4.0813                 5.2761                 2.5059
 Frc consts  --      0.0017                 0.0032                 0.0045
 IR Inten    --      3.6820                 0.4649                 1.6203

                      4                      5                      6
                      A                      A                      A
 Frequencies --     60.6979                86.4470               105.4180
 Red. masses --      4.3972                 4.3210                 5.9118
 Frc consts  --      0.0095                 0.0190                 0.0387
 IR Inten    --      5.5441                 0.4459                 0.9028

                      7                      8                      9
                      A                      A                      A
 Frequencies --    112.4968               160.9876               187.7100
 Red. masses --      2.6806                 2.5835                 3.6436
 Frc consts  --      0.0200                 0.0394                 0.0756
 IR Inten    --      0.3332                 3.5031                 6.3684

                     10                     11                     12
                      A                      A                      A
 Frequencies --    222.3317               243.0384               278.0316
 Red. masses --      1.6076                 3.5076                 4.2943
 Frc consts  --      0.0468                 0.1221                 0.1956
 IR Inten    --      3.0932                 3.1823                 3.2677

                     13                     14                     15
                      A                      A                      A
 Frequencies --    287.4452               314.5252               335.0056
 Red. masses --      2.4952                 1.9801                 4.7932
 Frc consts  --      0.1215                 0.1154                 0.3169
 IR Inten    --      4.7268                 0.6045                 0.5923

                     16                     17                     18
                      A                      A                      A
 Frequencies --    370.3543               426.2483               432.4809
 Red. masses --      2.3170                 2.4306                 1.5025
 Frc consts  --      0.1872                 0.2602                 0.1656
 IR Inten    --      0.4145                43.5690               127.6831

                     19                     20                     21
                      A                      A                      A
 Frequencies --    451.7363               480.5596               504.6645
 Red. masses --      2.9710                 2.7235                 2.7847
 Frc consts  --      0.3572                 0.3706                 0.4179
 IR Inten    --     11.3669                 4.1471                22.0678

                     22                     23                     24
                      A                      A                      A
 Frequencies --    532.6039               563.6880               574.8128
 Red. masses --      3.0393                 1.8059                 1.7046
 Frc consts  --      0.5080                 0.3381                 0.3318
 IR Inten    --      4.2583                26.2985                38.6044

                     25                     26                     27
                      A                      A                      A
 Frequencies --    614.2350               653.3493               732.3451
 Red. masses --      3.7513                 7.4389                 3.4579
 Frc consts  --      0.8339                 1.8709                 1.0927
 IR Inten    --     64.2440                 0.4946                 4.9152

                     28                     29                     30
                      A                      A                      A
 Frequencies --    736.7467               744.4615               780.2778
 Red. masses --      2.2004                 2.7105                 1.4930
 Frc consts  --      0.7037                 0.8851                 0.5356
 IR Inten    --     54.0299                46.7217                59.3221

                     31                     32                     33
                      A                      A                      A
 Frequencies --    790.0844               840.0666               850.5020
 Red. masses --      2.9996                 2.8101                 1.6372
 Frc consts  --      1.1032                 1.1684                 0.6978
 IR Inten    --     14.2312                 1.6727                19.2390

                     34                     35                     36
                      A                      A                      A
 Frequencies --    866.1912               888.6024               920.0393
 Red. masses --      2.2688                 2.6952                 2.0600
 Frc consts  --      1.0029                 1.2539                 1.0274
 IR Inten    --      2.6213                 2.8114                21.9003

                     37                     38                     39
                      A                      A                      A
 Frequencies --    931.1055               979.1358               985.7030
 Red. masses --      1.4905                 1.3801                 1.3515
 Frc consts  --      0.7614                 0.7796                 0.7737
 IR Inten    --     13.0075                 2.8003                 0.5545

                     40                     41                     42
                      A                      A                      A
 Frequencies --   1008.4313              1032.9381              1053.5363
 Red. masses --      1.7472                 3.2595                 3.3162
 Frc consts  --      1.0469                 2.0491                 2.1687
 IR Inten    --     28.9609                 4.4967                73.2630

                     43                     44                     45
                      A                      A                      A
 Frequencies --   1075.2513              1102.8185              1106.4843
 Red. masses --      2.7084                 1.8369                 1.8344
 Frc consts  --      1.8449                 1.3163                 1.3232
 IR Inten    --      3.1779                 3.1024                10.0396

                     46                     47                     48
                      A                      A                      A
 Frequencies --   1164.4559              1166.6138              1169.5423
 Red. masses --      1.6610                 2.0069                 1.7858
 Frc consts  --      1.3270                 1.6093                 1.4392
 IR Inten    --     21.1296                17.0203                13.0527

                     49                     50                     51
                      A                      A                      A
 Frequencies --   1182.2448              1189.5029              1264.8941
 Red. masses --      2.1581                 2.5040                 1.2473
 Frc consts  --      1.7772                 2.0874                 1.1758
 IR Inten    --      4.6611                14.9554                 5.4418

                     52                     53                     54
                      A                      A                      A
 Frequencies --   1281.6736              1307.6932              1319.6100
 Red. masses --      1.2688                 1.1956                 1.9156
 Frc consts  --      1.2280                 1.2047                 1.9654
 IR Inten    --     18.4901                 0.8415               190.7796

                     55                     56                     57
                      A                      A                      A
 Frequencies --   1337.5003              1347.9622              1354.4080
 Red. masses --      3.2045                 1.5866                 1.6155
 Frc consts  --      3.3776                 1.6985                 1.7460
 IR Inten    --      2.2292                88.4835                33.7165

                     58                     59                     60
                      A                      A                      A
 Frequencies --   1372.1108              1391.0233              1410.0914
 Red. masses --      2.8601                 1.3862                 1.5761
 Frc consts  --      3.1725                 1.5803                 1.8464
 IR Inten    --    348.9337                30.0006                48.3958

                     61                     62                     63
                      A                      A                      A
 Frequencies --   1414.9051              1430.2744              1443.9247
 Red. masses --      1.2885                 1.4086                 3.1412
 Frc consts  --      1.5198                 1.6977                 3.8587
 IR Inten    --      3.1281                 2.5433                 8.8875

                     64                     65                     66
                      A                      A                      A
 Frequencies --   1447.1914              1498.2294              1510.0218
 Red. masses --      1.2750                 1.1018                 1.0813
 Frc consts  --      1.5733                 1.4572                 1.4527
 IR Inten    --      4.1446                 3.6558                 0.4314

                     67                     68                     69
                      A                      A                      A
 Frequencies --   1515.6823              1516.9564              1533.2157
 Red. masses --      1.2151                 1.3407                 1.0776
 Frc consts  --      1.6447                 1.8178                 1.4924
 IR Inten    --      9.6353                39.9116                11.0109

                     70                     71                     72
                      A                      A                      A
 Frequencies --   1539.8782              1547.2232              1553.1975
 Red. masses --      1.2358                 1.2276                 1.2962
 Frc consts  --      1.7265                 1.7315                 1.8423
 IR Inten    --     15.7201                37.6348                63.7881

                     73                     74                     75
                      A                      A                      A
 Frequencies --   1614.5919              1649.9224              1661.0844
 Red. masses --      6.8077                 1.2450                 5.7141
 Frc consts  --     10.4562                 1.9968                 9.2892
 IR Inten    --     24.4749               141.3870               267.4777

                     76                     77                     78
                      A                      A                      A
 Frequencies --   1789.0757              2985.4002              3041.2153
 Red. masses --      8.2226                 1.0683                 1.0691
 Frc consts  --     15.5066                 5.6099                 5.8261
 IR Inten    --    268.4405                32.1371                 5.3881

                     79                     80                     81
                      A                      A                      A
 Frequencies --   3042.2885              3047.7097              3055.9795
 Red. masses --      1.0614                 1.0367                 1.0823
 Frc consts  --      5.7882                 5.6736                 5.9551
 IR Inten    --     51.6278                16.0382                82.0941

                     82                     83                     84
                      A                      A                      A
 Frequencies --   3082.5718              3084.4712              3092.6634
 Red. masses --      1.1025                 1.1025                 1.0680
 Frc consts  --      6.1723                 6.1801                 6.0185
 IR Inten    --     14.9829                26.3521                68.4384

                     85                     86                     87
                      A                      A                      A
 Frequencies --   3108.0295              3123.8459              3172.5603
 Red. masses --      1.1012                 1.1021                 1.1012
 Frc consts  --      6.2671                 6.3366                 6.5306
 IR Inten    --     48.1442                37.3535                 7.4460

                     88                     89                     90
                      A                      A                      A
 Frequencies --   3199.9479              3211.2391              3230.6282
 Red. masses --      1.0892                 1.0912                 1.0944
 Frc consts  --      6.5711                 6.6298                 6.7298
 IR Inten    --      8.5247                 2.6951                 3.6741

                     91                     92                     93
                      A                      A                      A
 Frequencies --   3514.3024              3574.4483              3691.5020
 Red. masses --      1.0727                 1.0462                 1.1019
 Frc consts  --      7.8059                 7.8758                 8.8473
 IR Inten    --      0.7624                35.1372                25.1016

 - Thermochemistry -
 -------------------
 Temperature   298.150 Kelvin.  Pressure   1.00000 Atm.
 Atom     1 has atomic number  6 and mass  12.00000

 Molecular mass:   223.13208 amu.
 Principal axes and moments of inertia in atomic units:
                           1         2         3
     Eigenvalues --  2141.950885597.578586611.89702
           X            0.99988   0.00327   0.01511
           Y           -0.00314   0.99995  -0.00907
           Z           -0.01513   0.00902   0.99984
 This molecule is an asymmetric top.
 Rotational symmetry number  1.
 Warning -- assumption of classical behavior for rotation
           may cause significant error
 Rotational temperatures (Kelvin)      0.04044     0.01547     0.01310
 Rotational constants (GHZ):           0.84257     0.32241     0.27295
 Zero-point vibrational energy     740018.4 (Joules/Mol)
                                  176.86863 (Kcal/Mol)
 Warning -- explicit consideration of  25 degrees of freedom as
           vibrations may cause significant error
 Vibrational temperatures:     38.73    46.14    79.60    87.33   124.38
          (Kelvin)            151.67   161.86   231.63   270.07   319.89
                              349.68   400.03   413.57   452.53   482.00
                              532.86   613.28   622.24   649.95   691.42
                              726.10   766.30   811.02   827.03   883.75
                              940.02  1053.68  1060.01  1071.11  1122.65
                             1136.76  1208.67  1223.68  1246.26  1278.50
                             1323.73  1339.65  1408.76  1418.21  1450.91
                             1486.17  1515.80  1547.05  1586.71  1591.98
                             1675.39  1678.50  1682.71  1700.99  1711.43
                             1819.90  1844.04  1881.48  1898.62  1924.36
                             1939.42  1948.69  1974.16  2001.37  2028.81
                             2035.73  2057.85  2077.49  2082.19  2155.62
                             2172.58  2180.73  2182.56  2205.96  2215.54
                             2226.11  2234.70  2323.04  2373.87  2389.93
                             2574.08  4295.33  4375.63  4377.17  4384.97
                             4396.87  4435.13  4437.87  4449.65  4471.76
                             4494.52  4564.61  4604.01  4620.26  4648.15
                             5056.30  5142.83  5311.25

 Zero-point correction=                           0.281858 (Hartree/Particle)
 Thermal correction to Energy=                    0.297963
 Thermal correction to Enthalpy=                  0.298907
 Thermal correction to Gibbs Free Energy=         0.236750
 Sum of electronic and zero-point Energies=           -743.896112
 Sum of electronic and thermal Energies=              -743.880007
 Sum of electronic and thermal Enthalpies=            -743.879063
 Sum of electronic and thermal Free Energies=         -743.941219

                     E (Thermal)             CV                S
                      KCal/Mol        Cal/Mol-Kelvin    Cal/Mol-Kelvin
 Total                  186.974             60.218            130.819
 Electronic               0.000              0.000              0.000
 Translational            0.889              2.981             42.110
 Rotational               0.889              2.981             32.739
 Vibrational            185.197             54.256             55.971
 Vibration     1          0.593              1.984              6.044
 Vibration     2          0.594              1.983              5.697
 Vibration     3          0.596              1.975              4.617
 Vibration     4          0.597              1.973              4.434
 Vibration     5          0.601              1.959              3.739
 Vibration     6          0.605              1.945              3.352
 Vibration     7          0.607              1.939              3.225
 Vibration     8          0.622              1.890              2.538
 Vibration     9          0.632              1.857              2.250
 Vibration    10          0.648              1.807              1.940
 Vibration    11          0.659              1.774              1.781
 Vibration    12          0.679              1.714              1.546
 Vibration    13          0.685              1.697              1.489
 Vibration    14          0.702              1.646              1.338
 Vibration    15          0.716              1.606              1.236
 Vibration    16          0.742              1.533              1.078
 Vibration    17          0.788              1.413              0.871
 Vibration    18          0.793              1.399              0.851
 Vibration    19          0.810              1.357              0.791
 Vibration    20          0.837              1.293              0.709
 Vibration    21          0.860              1.240              0.647
 Vibration    22          0.888              1.178              0.581
 Vibration    23          0.919              1.110              0.517
 Vibration    24          0.931              1.086              0.495
 Vibration    25          0.974              1.002              0.426

 Optimization completed.
    -- Stationary point found.
 Normal termination of Gaussian 16 at Fri Dec 11 00:19:55 2020.

 ----------------------------------------------------------------------
 # B3LYP/6-311++G(d,p) empiricaldispersion=gd3bj scf=xqc pop=npa geom=c
 heck
 ----------------------------------------------------------------------

 --------------------------------------
 CID_62348386_JID_6638_Energie_neutraal
 --------------------------------------
 Structure from the checkpoint file:  "JID_6638.chk"
 Charge =  0 Multiplicity = 1

 SCF Done:  E(RB3LYP) =  -744.395653081     A.U. after   16 cycles
 Normal termination of Gaussian 16 at Fri Dec 11 00:26:16 2020.

 ----------------------------------------------------------------------
 # B3LYP/6-311++G(d,p) empiricaldispersion=gd3bj scf=xqc pop=npa geom=c
 heck
 ----------------------------------------------------------------------

 ------------------------------------
 CID_62348386_JID_6638_Energie_kation
 ------------------------------------
 Structure from the checkpoint file:  "JID_6638.chk"
 Charge =  1 Multiplicity = 2

 SCF Done:  E(UB3LYP) =  -744.100421315     A.U. after   24 cycles
 Normal termination of Gaussian 16 at Fri Dec 11 00:39:50 2020.
 Gaussian 16:  ES64L-G16RevA.03 25-Dec-2016

 ----------------------------------------------------------------------
 # B3LYP/6-311++G(d,p) empiricaldispersion=gd3bj scf=xqc pop=npa geom=c
 heck
 ----------------------------------------------------------------------

 -----------------------------------
 CID_62348386_JID_6638_Energie_anion
 -----------------------------------
 Structure from the checkpoint file:  "JID_6638.chk"
 Charge = -1 Multiplicity = 2

                         Standard orientation:
 ---------------------------------------------------------------------
 Center     Atomic      Atomic             Coordinates (Angstroms)
 Number     Number       Type             X           Y           Z
 ---------------------------------------------------------------------
      1          6           0        0.530982    2.456022   -0.823054
      2          6           0        1.816568    2.760172   -0.044111
      3          6           0        2.472531    1.520777    0.569973
      4          7           0        2.992082    0.633458   -0.471628
      5          6           0        3.598871   -0.601116   -0.000084
      6          6           0        2.648009   -1.607301    0.662905
      7          8           0        1.613990   -1.948748   -0.286523
      8          6           0        0.379955   -1.428774   -0.135029
      9          7           0        0.028486   -0.848949    1.010978
     10          6           0       -1.211195   -0.357253    1.107701
     11          6           0       -2.150808   -0.399691    0.076603
     12          6           0       -1.763981   -1.032503   -1.118453
     13          6           0       -0.490930   -1.557832   -1.234473
     14          6           0       -3.490133    0.211929    0.319493
     15          8           0       -3.901094    0.455613    1.446967
     16          7           0       -4.252868    0.459990   -0.802156
     17          1           0        0.717257    1.809876   -1.689304
     18          1           0        0.076692    3.377731   -1.203263
     19          1           0       -0.206863    1.954494   -0.187145
     20          1           0        2.543140    3.254187   -0.700970
     21          1           0        1.584673    3.462983    0.766234
     22          1           0        3.325581    1.829398    1.189032
     23          1           0        1.747240    1.029434    1.240720
     24          1           0        2.251961    0.401536   -1.129814
     25          1           0        4.077812   -1.091273   -0.856538
     26          1           0        4.393484   -0.353911    0.716753
     27          1           0        3.169156   -2.542525    0.888038
     28          1           0        2.190285   -1.219077    1.572247
     29          1           0       -1.484053    0.105226    2.051934
     30          1           0       -2.464665   -1.136973   -1.941804
     31          1           0       -0.149424   -2.062135   -2.131111
     32          1           0       -3.797618    0.627844   -1.688241
     33          1           0       -5.090945    1.000215   -0.629497
 ---------------------------------------------------------------------

 SCF Done:  E(UB3LYP) =  -744.395300235     A.U. after   33 cycles
 SCF Done:  E(UB3LYP) =  -744.395300235     a.u. after    1 cycles

 The electronic state is 2-A.
 Alpha  occ. eigenvalues --  -19.03809 -18.94974 -14.20011 -14.19665 -14.17984
 Alpha  occ. eigenvalues --  -10.13238 -10.12916 -10.11528 -10.09790 -10.08605
 Alpha  occ. eigenvalues --  -10.08305 -10.06759 -10.05436 -10.05388 -10.05361
 Alpha  occ. eigenvalues --  -10.04309  -0.96248  -0.90298  -0.81587  -0.80593
 Alpha  occ. eigenvalues --   -0.77353  -0.68297  -0.67991  -0.65419  -0.61647
 Alpha  occ. eigenvalues --   -0.57408  -0.53359  -0.52524  -0.49126  -0.47838
 Alpha  occ. eigenvalues --   -0.45862  -0.42641  -0.41239  -0.39510  -0.39352
 Alpha  occ. eigenvalues --   -0.37584  -0.35762  -0.34500  -0.33477  -0.32384
 Alpha  occ. eigenvalues --   -0.31476  -0.30761  -0.30697  -0.29422  -0.29093
 Alpha  occ. eigenvalues --   -0.28195  -0.27724  -0.27254  -0.25665  -0.24398
 Alpha  occ. eigenvalues --   -0.24029  -0.23408  -0.22972  -0.21194  -0.16912
 Alpha  occ. eigenvalues --   -0.15409  -0.14855  -0.13101  -0.12585  -0.11209
 Alpha  occ. eigenvalues --    0.04570
 Alpha virt. eigenvalues --    0.06656   0.07350   0.07903   0.08682   0.09014
 Alpha virt. eigenvalues --    0.09502   0.09640   0.10422   0.11150   0.11600
 Alpha virt. eigenvalues --    0.12063   0.12329   0.13531   0.13576   0.14302

  Beta  occ. eigenvalues --  -19.03743 -18.94782 -14.19955 -14.19663 -14.17924
  Beta  occ. eigenvalues --  -10.13086 -10.12638 -10.11528 -10.09778 -10.08599
  Beta  occ. eigenvalues --  -10.08319 -10.06756 -10.05506 -10.05381 -10.05096
  Beta  occ. eigenvalues --  -10.04194  -0.96061  -0.89955  -0.81409  -0.80566
  Beta  occ. eigenvalues --   -0.77187  -0.68209  -0.67697  -0.65243  -0.61514
  Beta  occ. eigenvalues --   -0.57365  -0.53144  -0.52364  -0.48901  -0.47706
  Beta  occ. eigenvalues --   -0.45619  -0.42512  -0.41112  -0.39438  -0.39267
  Beta  occ. eigenvalues --   -0.37495  -0.35622  -0.34363  -0.33425  -0.32303
  Beta  occ. eigenvalues --   -0.31384  -0.30538  -0.30457  -0.29119  -0.28843
  Beta  occ. eigenvalues --   -0.28144  -0.27231  -0.26854  -0.25522  -0.24329
  Beta  occ. eigenvalues --   -0.23998  -0.23376  -0.22937  -0.20752  -0.16019
  Beta  occ. eigenvalues --   -0.14980  -0.14559  -0.12942  -0.12387  -0.10545
  Beta virt. eigenvalues --    0.06748   0.07705   0.07990   0.08763   0.09208
  Beta virt. eigenvalues --    0.09481   0.09561   0.09882   0.10569   0.11107
  Beta virt. eigenvalues --    0.11542   0.12312   0.12501   0.13460   0.13613

 Mulliken charges and spin densities:
               1          2
     1  C   -0.277719  -0.175046
     2  C   -0.443100  -0.023015
     3  C   -0.102986  -0.151683
     4  N   -0.055838   0.033937
     5  C    0.024075  -0.334692
     6  C   -0.244427   0.016558
     7  O   -0.053666   0.011377
     8  C   -0.294299  -0.024894
     9  N   -0.013791   0.028306
    10  C   -0.663514   0.261707
    11  C    0.516977   0.201330
    12  C   -0.091479   0.129494
    13  C    0.104233  -0.264166
    14  C   -0.057712  -0.275554
    15  O   -0.393980   0.064384
    16  N   -0.234408  -0.110690
    17  H   -0.034382   0.151124
    18  H   -0.023214   0.170228
    19  H    0.294093  -0.053848
    20  H    0.128471   0.014681
    21  H    0.077246   0.042122
    22  H    0.057406   0.093023
    23  H    0.111858   0.007553
    24  H    0.248818  -0.046076
    25  H    0.152899   0.023466
    26  H   -0.116202   0.227848
    27  H   -0.021854   0.168739
    28  H    0.240214  -0.035970
    29  H    0.196400   0.008802
    30  H    0.017143   0.126029
    31  H    0.058439   0.098655
    32  H   -0.237015   0.461545
    33  H    0.131314   0.154726
 Sum of Mulliken charges =  -1.00000   1.00000

 Dipole moment (field-independent basis, Debye):
    X=              5.7950    Y=             -0.6750    Z=             -0.0597  Tot=              5.8345
 Quadrupole moment (field-independent basis, Debye-Ang):
   XX=           -162.5666   YY=           -119.7688   ZZ=           -122.9446
   XY=              3.6127   XZ=              4.5928   YZ=              3.7217

 Summary of Natural Population Analysis:

                                       Natural Population
                Natural  -----------------------------------------------
    Atom  No    Charge         Core      Valence    Rydberg      Total
 -----------------------------------------------------------------------
      C    1   -0.29125      0.99966     2.28569    0.00590     3.29125
      C    2   -0.19131      0.99964     2.18455    0.00712     3.19131
      C    3   -0.09228      0.99962     2.08282    0.00984     3.09228
      N    4   -0.34393      0.99975     2.83257    0.01161     3.84393
      C    5   -0.09686      0.99963     2.08501    0.01222     3.09686
      C    6   -0.02830      0.99956     2.01673    0.01201     3.02830
      O    7   -0.27892      0.99985     3.27032    0.00874     4.27892
      C    8    0.30706      0.99946     1.67623    0.01725     2.69294
      N    9   -0.27630      0.99965     2.76669    0.00995     3.77630
      C   10    0.05125      0.99956     1.93484    0.01435     2.94875
      C   11   -0.09078      0.99945     2.08133    0.00999     3.09078
      C   12   -0.01865      0.99955     2.00940    0.00970     3.01865
      C   13   -0.16206      0.99952     2.15247    0.01007     3.16206
      C   14    0.34804      0.99966     1.62909    0.02321     2.65196
      O   15   -0.31360      0.99988     3.30832    0.00540     4.31360
      N   16   -0.41043      0.99972     2.90191    0.00880     3.91043
      H   17    0.09499      0.00000     0.40378    0.00123     0.40501
      H   18    0.09672      0.00000     0.40247    0.00081     0.40328
      H   19    0.10630      0.00000     0.39239    0.00131     0.39370
      H   20    0.09241      0.00000     0.40615    0.00144     0.40759
      H   21    0.09319      0.00000     0.40578    0.00102     0.40681
      H   22    0.08555      0.00000     0.41316    0.00129     0.41445
      H   23    0.09269      0.00000     0.40540    0.00192     0.40731
      H   24    0.17652      0.00000     0.32022    0.00326     0.32348
      H   25    0.09234      0.00000     0.40671    0.00095     0.40766
      H   26    0.09031      0.00000     0.40833    0.00136     0.40969
      H   27    0.08605      0.00000     0.41270    0.00125     0.41395
      H   28    0.10283      0.00000     0.39566    0.00150     0.39717
      H   29    0.09780      0.00000     0.40107    0.00113     0.40220
      H   30    0.09745      0.00000     0.40154    0.00101     0.40255
      H   31    0.10219      0.00000     0.39671    0.00110     0.39781
      H   32    0.19294      0.00000     0.30147    0.00559     0.30706
      H   33    0.18804      0.00000     0.30989    0.00207     0.31196
 =======================================================================
   * Total *   -0.00000     15.99416    43.80141    0.20442    60.00000

 Normal termination of Gaussian 16 at Fri Dec 11 00:58:25 2020.
