 Gaussian 16, Revision A.03,

 -----------------------------------------------------------
 # opt freq B3LYP/6-31G(d) empiricaldispersion=gd3bj scf=xqc
 -----------------------------------------------------------

 -----------------------------
 CID_13896240_JID_861_neutraal
 -----------------------------
 Symbolic Z-matrix:
 Charge =  0 Multiplicity = 1

 SCF Done:  E(RB3LYP) =  -498.459660666     A.U. after   15 cycles
 SCF Done:  E(RB3LYP) =  -498.463966460     A.U. after   12 cycles
 SCF Done:  E(RB3LYP) =  -498.464372649     A.U. after   12 cycles
 SCF Done:  E(RB3LYP) =  -498.464434775     A.U. after   12 cycles
 SCF Done:  E(RB3LYP) =  -498.464665704     A.U. after   11 cycles
 SCF Done:  E(RB3LYP) =  -498.464683923     A.U. after   10 cycles
 SCF Done:  E(RB3LYP) =  -498.464697878     A.U. after   10 cycles
 SCF Done:  E(RB3LYP) =  -498.464702856     A.U. after    9 cycles
 SCF Done:  E(RB3LYP) =  -498.464707011     A.U. after    9 cycles
 SCF Done:  E(RB3LYP) =  -498.464708463     A.U. after    8 cycles
 SCF Done:  E(RB3LYP) =  -498.464708681     A.U. after    7 cycles
 SCF Done:  E(RB3LYP) =  -498.464708775     A.U. after    7 cycles
 SCF Done:  E(RB3LYP) =  -498.464708821     A.U. after    7 cycles
 Optimization completed.
    -- Stationary point found.

 1\1\GINC-NODE101\FOpt\RB3LYP\6-31G(d)\C7H10O3\VSC10255\08-Dec-2020\0\\
 # opt freq B3LYP/6-31G(d) empiricaldispersion=gd3bj scf=xqc\\CID_13896
 240_JID_861_neutraal\\0,1\C,1.0167050991,0.0452321899,-0.0134105274\C,
 0.7668291966,1.4890385708,-0.2850282936\C,1.4037594435,2.5845877365,0.
 15055872\C,0.7171450714,3.775251683,-0.4203479313\O,0.9851598707,4.940
 6863618,-0.2718192117\O,-0.3336666308,3.3457255416,-1.1989080142\C,-0.
 3834651511,1.9112251222,-1.181971372\O,-1.6352960337,1.4393663623,-0.7
 899685809\C,-2.0618316984,1.860752555,0.504833695\C,2.5857165824,2.753

 Normal termination of Gaussian 16 at Tue Dec  8 12:41:28 2020.

 --------------------------------------------------------------------
 #N Geom=AllCheck Guess=TCheck SCRF=Check GenChk RB3LYP/6-31G(d) Freq
 --------------------------------------------------------------------

 Structure from the checkpoint file:  "JID_861.chk"
 -----------------------------
 CID_13896240_JID_861_neutraal
 -----------------------------
 Charge =  0 Multiplicity = 1

 SCF Done:  E(RB3LYP) =  -498.464708821     A.U. after    1 cycles

  Exact polarizability:  96.922   8.812  78.246  -6.258  -2.261  60.809
 Approx polarizability: 148.646  25.788 113.148 -17.479  -5.215  89.434

                      1                      2                      3
                      A                      A                      A
 Frequencies --     82.2423                91.4678                97.0320
 Red. masses --      1.0462                 3.1582                 2.3683
 Frc consts  --      0.0042                 0.0156                 0.0131
 IR Inten    --      0.7376                 0.3392                 3.0091

                      4                      5                      6
                      A                      A                      A
 Frequencies --    128.1161               136.3581               164.8429
 Red. masses --      1.1572                 2.0159                 1.5674
 Frc consts  --      0.0112                 0.0221                 0.0251
 IR Inten    --      0.1151                 1.2451                 0.2939

                      7                      8                      9
                      A                      A                      A
 Frequencies --    245.2439               256.6146               287.3319
 Red. masses --      3.1955                 2.6729                 3.4657
 Frc consts  --      0.1132                 0.1037                 0.1686
 IR Inten    --      5.0132                 0.9583                 1.8733

                     10                     11                     12
                      A                      A                      A
 Frequencies --    307.9709               373.8035               468.4989
 Red. masses --      3.6408                 6.1537                 3.8023
 Frc consts  --      0.2035                 0.5066                 0.4917
 IR Inten    --      2.2008                 9.0709                 1.0864

                     13                     14                     15
                      A                      A                      A
 Frequencies --    539.2428               600.6913               635.4129
 Red. masses --      5.0580                 5.8450                 4.2728
 Frc consts  --      0.8666                 1.2426                 1.0164
 IR Inten    --      9.0400                 2.2351                 3.7165

                     16                     17                     18
                      A                      A                      A
 Frequencies --    663.4886               751.2324               827.8330
 Red. masses --      6.2735                 7.4109                 4.4644
 Frc consts  --      1.6271                 2.4642                 1.8026
 IR Inten    --      0.4552                15.0348                 2.2949

                     19                     20                     21
                      A                      A                      A
 Frequencies --    903.1736               954.6521               986.8594
 Red. masses --      2.8414                 2.7405                 2.1327
 Frc consts  --      1.3656                 1.4716                 1.2238
 IR Inten    --      3.4824                 6.9824                 9.6912

                     22                     23                     24
                      A                      A                      A
 Frequencies --   1006.2604              1060.7168              1081.3311
 Red. masses --      7.3273                 1.5130                 1.5912
 Frc consts  --      4.3713                 1.0030                 1.0962
 IR Inten    --    206.8594                 3.7713                 1.3190

                     25                     26                     27
                      A                      A                      A
 Frequencies --   1114.1122              1144.1870              1168.7782
 Red. masses --      2.7795                 2.7286                 3.9119
 Frc consts  --      2.0327                 2.1047                 3.1485
 IR Inten    --     85.6896                46.1853                87.4504

                     28                     29                     30
                      A                      A                      A
 Frequencies --   1188.9365              1215.3833              1233.6514
 Red. masses --      1.3174                 2.3953                 1.7433
 Frc consts  --      1.0972                 2.0847                 1.5632
 IR Inten    --      5.4666                34.0709                42.1852

                     31                     32                     33
                      A                      A                      A
 Frequencies --   1346.1044              1359.6375              1409.6718
 Red. masses --      2.9966                 1.9985                 1.2168
 Frc consts  --      3.1992                 2.1768                 1.4247
 IR Inten    --     53.7074                34.9204                23.4059

                     34                     35                     36
                      A                      A                      A
 Frequencies --   1443.9641              1447.2569              1496.1808
 Red. masses --      1.4313                 1.2585                 1.1544
 Frc consts  --      1.7583                 1.5531                 1.5226
 IR Inten    --      6.4026                 5.6980                 0.8943

                     37                     38                     39
                      A                      A                      A
 Frequencies --   1503.3207              1504.5847              1512.5274
 Red. masses --      1.0428                 1.0448                 1.0474
 Frc consts  --      1.3886                 1.3936                 1.4118
 IR Inten    --      0.8658                12.3379                12.0322

                     40                     41                     42
                      A                      A                      A
 Frequencies --   1514.7216              1516.8825              1542.8529
 Red. masses --      1.0569                 1.0610                 1.0502
 Frc consts  --      1.4287                 1.4384                 1.4730
 IR Inten    --      7.3739                 3.8736                 8.1038

                     43                     44                     45
                      A                      A                      A
 Frequencies --   1765.1163              1872.6119              3039.3489
 Red. masses --      8.5235                12.8613                 1.0384
 Frc consts  --     15.6465                26.5725                 5.6514
 IR Inten    --     18.0644               381.9017                33.8616

                     46                     47                     48
                      A                      A                      A
 Frequencies --   3045.0230              3057.3360              3088.8865
 Red. masses --      1.0397                 1.0365                 1.0858
 Frc consts  --      5.6798                 5.7082                 6.1040
 IR Inten    --     12.9679                12.9566                24.8992

                     49                     50                     51
                      A                      A                      A
 Frequencies --   3096.0155              3111.3998              3111.5514
 Red. masses --      1.0973                 1.1003                 1.0991
 Frc consts  --      6.1973                 6.2757                 6.2695
 IR Inten    --     13.8551                 9.9018                30.9283

                     52                     53                     54
                      A                      A                      A
 Frequencies --   3141.4548              3145.2747              3164.1710
 Red. masses --      1.1023                 1.1007                 1.1031
 Frc consts  --      6.4092                 6.4153                 6.5069
 IR Inten    --      7.0275                22.3495                21.3200

 - Thermochemistry -
 -------------------
 Temperature   298.150 Kelvin.  Pressure   1.00000 Atm.
 Atom     1 has atomic number  6 and mass  12.00000

 Molecular mass:   142.06299 amu.
 Principal axes and moments of inertia in atomic units:
                           1         2         3
     Eigenvalues --  1008.436361423.425962021.81430
           X            0.99755  -0.06968   0.00630
           Y            0.06976   0.99746  -0.01407
           Z           -0.00530   0.01447   0.99988
 This molecule is an asymmetric top.
 Rotational symmetry number  1.
 Warning -- assumption of classical behavior for rotation
           may cause significant error
 Rotational temperatures (Kelvin)      0.08589     0.06085     0.04284
 Rotational constants (GHZ):           1.78964     1.26789     0.89263
 Zero-point vibrational energy     430364.7 (Joules/Mol)
                                  102.85963 (Kcal/Mol)
 Warning -- explicit consideration of  14 degrees of freedom as
           vibrations may cause significant error
 Vibrational temperatures:    118.33   131.60   139.61   184.33   196.19
          (Kelvin)            237.17   352.85   369.21   413.41   443.10
                              537.82   674.07   775.85   864.26   914.22
                              954.61  1080.86  1191.07  1299.47  1373.53
                             1419.87  1447.78  1526.13  1555.79  1602.96
                             1646.23  1681.61  1710.61  1748.67  1774.95
                             1936.74  1956.22  2028.20  2077.54  2082.28
                             2152.67  2162.94  2164.76  2176.19  2179.35
                             2182.46  2219.82  2539.61  2694.27  4372.95
                             4381.11  4398.82  4444.22  4454.48  4476.61
                             4476.83  4519.85  4525.35  4552.54

 Zero-point correction=                           0.163917 (Hartree/Particle)
 Thermal correction to Energy=                    0.174582
 Thermal correction to Enthalpy=                  0.175526
 Thermal correction to Gibbs Free Energy=         0.127602
 Sum of electronic and zero-point Energies=           -498.300792
 Sum of electronic and thermal Energies=              -498.290127
 Sum of electronic and thermal Enthalpies=            -498.289183
 Sum of electronic and thermal Free Energies=         -498.337107

                     E (Thermal)             CV                S
                      KCal/Mol        Cal/Mol-Kelvin    Cal/Mol-Kelvin
 Total                  109.552             37.385            100.863
 Electronic               0.000              0.000              0.000
 Translational            0.889              2.981             40.765
 Rotational               0.889              2.981             29.452
 Vibrational            107.774             31.424             30.647
 Vibration     1          0.600              1.961              3.837
 Vibration     2          0.602              1.955              3.628
 Vibration     3          0.603              1.951              3.513
 Vibration     4          0.611              1.925              2.974
 Vibration     5          0.614              1.917              2.854
 Vibration     6          0.623              1.886              2.493
 Vibration     7          0.660              1.771              1.765
 Vibration     8          0.666              1.752              1.685
 Vibration     9          0.685              1.697              1.490
 Vibration    10          0.698              1.659              1.373
 Vibration    11          0.745              1.526              1.064
 Vibration    12          0.826              1.320              0.742
 Vibration    13          0.894              1.163              0.567
 Vibration    14          0.959              1.030              0.448

                           ! Non-Optimized Parameters !

 1\1\GINC-NODE101\Freq\RB3LYP\6-31G(d)\C7H10O3\VSC10255\08-Dec-2020\0\\
 #N Geom=AllCheck Guess=TCheck SCRF=Check GenChk RB3LYP/6-31G(d) Freq\\
 CID_13896240_JID_861_neutraal\\0,1\C,1.0167050991,0.0452321899,-0.0134
 105274\C,0.7668291966,1.4890385708,-0.2850282936\C,1.4037594435,2.5845
 877365,0.15055872\C,0.7171450714,3.775251683,-0.4203479313\O,0.9851598
 707,4.9406863618,-0.2718192117\O,-0.3336666308,3.3457255416,-1.1989080
 142\C,-0.3834651511,1.9112251222,-1.181971372\O,-1.6352960337,1.439366
 3623,-0.7899685809\C,-2.0618316984,1.860752555,0.504833695\C,2.5857165

 Normal termination of Gaussian 16 at Tue Dec  8 12:48:46 2020.

 ----------------------------------------------------------------------
 # B3LYP/6-311++G(d,p) empiricaldispersion=gd3bj scf=xqc pop=npa geom=c
 heck
 ----------------------------------------------------------------------

 -------------------------------------
 CID_13896240_JID_861_Energie_neutraal
 -------------------------------------
 Structure from the checkpoint file:  "JID_861.chk"
 Charge =  0 Multiplicity = 1

 SCF Done:  E(RB3LYP) =  -498.610428708     A.U. after   14 cycles
 Normal termination of Gaussian 16 at Tue Dec  8 12:51:33 2020.

 ----------------------------------------------------------------------
 # B3LYP/6-311++G(d,p) empiricaldispersion=gd3bj scf=xqc pop=npa geom=c
 heck
 ----------------------------------------------------------------------

 -----------------------------------
 CID_13896240_JID_861_Energie_kation
 -----------------------------------
 Structure from the checkpoint file:  "JID_861.chk"
 Charge =  1 Multiplicity = 2

 SCF Done:  E(UB3LYP) =  -498.254638195     A.U. after   25 cycles
 Normal termination of Gaussian 16 at Tue Dec  8 13:04:07 2020.
 Gaussian 16:  ES64L-G16RevA.03 25-Dec-2016

 ----------------------------------
 CID_13896240_JID_861_Energie_anion
 ----------------------------------
 Structure from the checkpoint file:  "JID_861.chk"
 Charge = -1 Multiplicity = 2

                         Standard orientation:
 ---------------------------------------------------------------------
 Center     Atomic      Atomic             Coordinates (Angstroms)
 Number     Number       Type             X           Y           Z
 ---------------------------------------------------------------------
      1          6           0        0.690577    2.312380   -0.310316
      2          6           0        0.116713    0.937139   -0.323840
      3          6           0       -1.090386    0.488782    0.047014
      4          6           0       -1.119267   -0.984662   -0.160791
      5          8           0       -2.021522   -1.755725    0.047841
      6          8           0        0.099586   -1.382095   -0.662088
      7          6           0        0.951541   -0.235863   -0.806596
      8          8           0        2.165383   -0.403561   -0.141868
      9          6           0        2.058706   -0.637014    1.261746
     10          6           0       -2.285881    1.196770    0.590807
     11          1           0        0.922754    2.646682   -1.330051
     12          1           0        1.636189    2.325678    0.244774
     13          1           0        0.007047    3.036931    0.139373
     14          1           0        1.219581   -0.149219   -1.864839
     15          1           0        1.576994    0.202831    1.779440
     16          1           0        1.498608   -1.555088    1.466589
     17          1           0        3.082295   -0.745442    1.623873
     18          1           0       -2.113970    2.271933    0.687754
     19          1           0       -3.153272    1.037379   -0.059877
     20          1           0       -2.555818    0.794165    1.573738
 ---------------------------------------------------------------------

 SCF Done:  E(UB3LYP) =  -498.605907768     A.U. after   33 cycles
 SCF Done:  E(UB3LYP) =  -498.605907768     a.u. after    1 cycles

 The electronic state is 2-A.
 Alpha  occ. eigenvalues --  -19.01741 -19.01530 -18.95426 -10.14574 -10.13592
 Alpha  occ. eigenvalues --  -10.09931 -10.04664 -10.04399 -10.03695 -10.03615
 Alpha  occ. eigenvalues --   -0.97062  -0.92097  -0.87278  -0.69190  -0.62451
 Alpha  occ. eigenvalues --   -0.59993  -0.56044  -0.52433  -0.42872  -0.42623
 Alpha  occ. eigenvalues --   -0.39160  -0.38291  -0.33450  -0.32244  -0.31202
 Alpha  occ. eigenvalues --   -0.30285  -0.29132  -0.28555  -0.27792  -0.26710
 Alpha  occ. eigenvalues --   -0.26022  -0.25271  -0.22832  -0.20945  -0.17539
 Alpha  occ. eigenvalues --   -0.15463  -0.13282  -0.12882   0.05229
 Alpha virt. eigenvalues --    0.07894   0.08719   0.09301   0.10453   0.11799
 Alpha virt. eigenvalues --    0.12405   0.12666   0.13422   0.13639   0.14958
 Alpha virt. eigenvalues --    0.15962   0.17265   0.18022   0.18402   0.18536

  Beta  occ. eigenvalues --  -19.01733 -19.01485 -18.95202 -10.14586 -10.13416
  Beta  occ. eigenvalues --  -10.09914 -10.04659 -10.04388 -10.03565 -10.03306
  Beta  occ. eigenvalues --   -0.96932  -0.91910  -0.87008  -0.68739  -0.62257
  Beta  occ. eigenvalues --   -0.59860  -0.55877  -0.52247  -0.42733  -0.42118
  Beta  occ. eigenvalues --   -0.38935  -0.38171  -0.33350  -0.32033  -0.30826
  Beta  occ. eigenvalues --   -0.30032  -0.28990  -0.28209  -0.27645  -0.26371
  Beta  occ. eigenvalues --   -0.25766  -0.25077  -0.22744  -0.20854  -0.17022
  Beta  occ. eigenvalues --   -0.15247  -0.12883  -0.11645
  Beta virt. eigenvalues --    0.07884   0.08915   0.09802   0.10271   0.11411
  Beta virt. eigenvalues --    0.11820   0.12749   0.13023   0.13602   0.13816
  Beta virt. eigenvalues --    0.15023   0.16029   0.17184   0.18053   0.18402

 Mulliken charges and spin densities:
               1          2
     1  C    1.608354  -2.307018
     2  C   -0.676507   1.326453
     3  C    0.248103   0.303030
     4  C   -0.113354   0.124808
     5  O   -0.410777   0.080801
     6  O   -0.126829  -0.003876
     7  C   -0.632015   0.017005
     8  O   -0.030085  -0.004733
     9  C    0.046994  -0.346535
    10  C    0.072269  -0.713539
    11  H   -0.610361   0.790031
    12  H    0.003015   0.150009
    13  H   -0.241927   0.359140
    14  H   -0.352155   0.594729
    15  H    0.039460   0.087754
    16  H    0.127879   0.037608
    17  H    0.017467   0.107872
    18  H   -0.071020   0.187483
    19  H    0.124249   0.023381
    20  H   -0.022761   0.185596
 Sum of Mulliken charges =  -1.00000   1.00000

 Dipole moment (field-independent basis, Debye):
    X=              0.7466    Y=             -0.9180    Z=              3.1603  Tot=              3.3746
 Quadrupole moment (field-independent basis, Debye-Ang):
   XX=            -90.7396   YY=            -99.3264   ZZ=            -79.9079
   XY=             -8.6759   XZ=              8.2999   YZ=              4.2809

 Summary of Natural Population Analysis:

                                       Natural Population
                Natural  -----------------------------------------------
    Atom  No    Charge         Core      Valence    Rydberg      Total
 -----------------------------------------------------------------------
      C    1   -0.30595      0.99962     2.29979    0.00653     3.30595
      C    2    0.04874      0.99943     1.94066    0.01117     2.95126
      C    3   -0.06402      0.99935     2.05403    0.01064     3.06402
      C    4    0.41380      0.99962     1.55993    0.02665     2.58620
      O    5   -0.29171      0.99986     3.28577    0.00607     4.29171
      O    6   -0.29471      0.99987     3.28772    0.00713     4.29471
      C    7    0.21284      0.99951     1.76610    0.02155     2.78716
      O    8   -0.29364      0.99988     3.28361    0.01016     4.29364
      C    9   -0.10475      0.99959     2.09685    0.00830     3.10475
      C   10   -0.29358      0.99964     2.28850    0.00545     3.29358
      H   11    0.11485      0.00000     0.37792    0.00723     0.38515
      H   12    0.10431      0.00000     0.39422    0.00147     0.39569
      H   13    0.10119      0.00000     0.39770    0.00111     0.39881
      H   14    0.09086      0.00000     0.40606    0.00308     0.40914
      H   15    0.08342      0.00000     0.41520    0.00138     0.41658
      H   16    0.08672      0.00000     0.41164    0.00163     0.41328
      H   17    0.08470      0.00000     0.41419    0.00111     0.41530
      H   18    0.09863      0.00000     0.40037    0.00100     0.40137
      H   19    0.10359      0.00000     0.39507    0.00134     0.39641
      H   20    0.10470      0.00000     0.39370    0.00160     0.39530
 =======================================================================
   * Total *   -0.00000      9.99637    27.86903    0.13460    38.00000

 Normal termination of Gaussian 16 at Tue Dec  8 13:13:03 2020.
