 Gaussian 16, Revision A.03,

 -----------------------------------------------------------
 # opt freq B3LYP/6-31G(d) empiricaldispersion=gd3bj scf=xqc
 -----------------------------------------------------------

 ------------------------------
 CID_61920139_JID_9881_neutraal
 ------------------------------
 Symbolic Z-matrix:
 Charge =  0 Multiplicity = 1

 SCF Done:  E(RB3LYP) =  -844.870910377     A.U. after   15 cycles
 SCF Done:  E(RB3LYP) =  -844.877547691     A.U. after   13 cycles
 SCF Done:  E(RB3LYP) =  -844.876714691     A.U. after   14 cycles
 SCF Done:  E(RB3LYP) =  -844.878560945     A.U. after   12 cycles
 SCF Done:  E(RB3LYP) =  -844.879575145     A.U. after   12 cycles
 SCF Done:  E(RB3LYP) =  -844.880014616     A.U. after   11 cycles
 SCF Done:  E(RB3LYP) =  -844.880453257     A.U. after   12 cycles
 SCF Done:  E(RB3LYP) =  -844.881542133     A.U. after   14 cycles
 SCF Done:  E(RB3LYP) =  -844.882537376     A.U. after   12 cycles
 SCF Done:  E(RB3LYP) =  -844.884170237     A.U. after   13 cycles
 SCF Done:  E(RB3LYP) =  -844.891661868     A.U. after   10 cycles
 SCF Done:  E(RB3LYP) =  -844.891665090     A.U. after   10 cycles
 SCF Done:  E(RB3LYP) =  -844.891665783     A.U. after    8 cycles
 SCF Done:  E(RB3LYP) =  -844.891665847     A.U. after    7 cycles
 SCF Done:  E(RB3LYP) =  -844.891665855     A.U. after    7 cycles
 Optimization completed.
    -- Stationary point found.
 Normal termination of Gaussian 16 at Sat Dec 12 10:31:55 2020.

 --------------------------------------------------------------------
 #N Geom=AllCheck Guess=TCheck SCRF=Check GenChk RB3LYP/6-31G(d) Freq
 --------------------------------------------------------------------

 Structure from the checkpoint file:  "JID_9881.chk"
 ------------------------------
 CID_61920139_JID_9881_neutraal
 ------------------------------
 Charge =  0 Multiplicity = 1

 SCF Done:  E(RB3LYP) =  -844.891665855     A.U. after    1 cycles

  Exact polarizability: 208.169  -5.614 188.835 -13.044   8.869 121.415
 Approx polarizability: 280.838 -12.138 290.907 -26.150  21.494 188.552

                      1                      2                      3
                      A                      A                      A
 Frequencies --     14.9930                39.0234                49.5319
 Red. masses --      5.0726                 3.7412                 4.0399
 Frc consts  --      0.0007                 0.0034                 0.0058
 IR Inten    --      0.2941                 0.1820                 0.3790

                      4                      5                      6
                      A                      A                      A
 Frequencies --     54.2648                71.8941                83.8689
 Red. masses --      3.3027                 4.1662                 3.8890
 Frc consts  --      0.0057                 0.0127                 0.0161
 IR Inten    --      0.1276                 0.8222                 0.8043

                      7                      8                      9
                      A                      A                      A
 Frequencies --    106.7907               126.0250               155.6490
 Red. masses --      4.5817                 5.2220                 4.1610
 Frc consts  --      0.0308                 0.0489                 0.0594
 IR Inten    --      1.9273                 0.5051                 0.8301

                     10                     11                     12
                      A                      A                      A
 Frequencies --    194.0722               217.7032               239.5153
 Red. masses --      3.1196                 2.4804                 1.0688
 Frc consts  --      0.0692                 0.0693                 0.0361
 IR Inten    --      1.6265                 0.9984                 0.3380

                     13                     14                     15
                      A                      A                      A
 Frequencies --    253.7109               262.7014               282.2399
 Red. masses --      2.8101                 1.3396                 2.2188
 Frc consts  --      0.1066                 0.0545                 0.1041
 IR Inten    --      1.7574                 1.4836                 2.6434

                     16                     17                     18
                      A                      A                      A
 Frequencies --    288.7057               299.4848               318.3821
 Red. masses --      2.4183                 1.6254                 3.3743
 Frc consts  --      0.1188                 0.0859                 0.2015
 IR Inten    --      2.9534                 1.8975                 4.4446

                     19                     20                     21
                      A                      A                      A
 Frequencies --    325.3500               387.3781               425.6117
 Red. masses --      2.2799                 2.5438                 3.2486
 Frc consts  --      0.1422                 0.2249                 0.3467
 IR Inten    --      0.3558                 1.8589                 0.4637

                     22                     23                     24
                      A                      A                      A
 Frequencies --    430.9397               448.7174               472.1848
 Red. masses --      2.8302                 3.1241                 2.1437
 Frc consts  --      0.3097                 0.3706                 0.2816
 IR Inten    --      8.2725                 8.9784                 4.3148

                     25                     26                     27
                      A                      A                      A
 Frequencies --    497.3915               523.5230               538.0918
 Red. masses --      2.8388                 3.3344                 3.2897
 Frc consts  --      0.4138                 0.5385                 0.5612
 IR Inten    --      1.9684                 7.9223                 1.2912

                     28                     29                     30
                      A                      A                      A
 Frequencies --    580.4229               600.0380               634.8641
 Red. masses --      3.4566                 5.2819                 3.7378
 Frc consts  --      0.6861                 1.1205                 0.8876
 IR Inten    --      6.6733                 7.1738                 3.7639

                     31                     32                     33
                      A                      A                      A
 Frequencies --    641.9134               657.7162               731.6133
 Red. masses --      2.2977                 1.7680                 2.3298
 Frc consts  --      0.5578                 0.4506                 0.7347
 IR Inten    --     39.5510                83.0478                 9.5219

                     34                     35                     36
                      A                      A                      A
 Frequencies --    753.0486               760.3098               770.5515
 Red. masses --      3.0584                 1.6568                 2.8693
 Frc consts  --      1.0219                 0.5643                 1.0038
 IR Inten    --     21.3576                68.2082                44.6496

                     37                     38                     39
                      A                      A                      A
 Frequencies --    792.3686               816.1357               841.6167
 Red. masses --      2.6379                 3.3346                 3.5667
 Frc consts  --      0.9758                 1.3086                 1.4885
 IR Inten    --     46.3814                 0.4468                 1.6177

                     40                     41                     42
                      A                      A                      A
 Frequencies --    852.3740               869.9567               891.8182
 Red. masses --      1.3892                 2.1982                 2.4199
 Frc consts  --      0.5947                 0.9802                 1.1340
 IR Inten    --      3.1893                21.4406                13.3563

                     43                     44                     45
                      A                      A                      A
 Frequencies --    914.3384               939.6212               941.4283
 Red. masses --      1.4120                 1.4456                 1.2204
 Frc consts  --      0.6955                 0.7520                 0.6373
 IR Inten    --      3.1037                 6.5323                 2.8206

                     46                     47                     48
                      A                      A                      A
 Frequencies --    957.0750               960.9887               962.6248
 Red. masses --      1.8944                 1.2271                 1.4850
 Frc consts  --      1.0224                 0.6677                 0.8107
 IR Inten    --      3.6856                 0.0368                 0.7302

                     49                     50                     51
                      A                      A                      A
 Frequencies --    978.5856              1039.7419              1060.3576
 Red. masses --      1.8381                 2.2134                 2.3601
 Frc consts  --      1.0371                 1.4098                 1.5635
 IR Inten    --      0.1270                 1.8509                 9.2831

                     52                     53                     54
                      A                      A                      A
 Frequencies --   1064.4701              1095.6207              1116.9824
 Red. masses --      2.4331                 2.3667                 2.2808
 Frc consts  --      1.6244                 1.6738                 1.6766
 IR Inten    --      0.8862                 3.1498                 4.1419

                     55                     56                     57
                      A                      A                      A
 Frequencies --   1125.4166              1142.6452              1148.8735
 Red. masses --      1.9171                 2.1255                 3.1620
 Frc consts  --      1.4306                 1.6350                 2.4590
 IR Inten    --      3.6930                 7.4556                33.8332

                     58                     59                     60
                      A                      A                      A
 Frequencies --   1158.0754              1172.3499              1181.8554
 Red. masses --      2.0401                 2.5492                 1.6292
 Frc consts  --      1.6120                 2.0643                 1.3408
 IR Inten    --      7.3193               182.5918                29.0420

                     61                     62                     63
                      A                      A                      A
 Frequencies --   1193.6896              1208.6243              1217.4054
 Red. masses --      1.1726                 1.9505                 1.5766
 Frc consts  --      0.9844                 1.6787                 1.3767
 IR Inten    --      9.4234                47.7975                14.8815

                     64                     65                     66
                      A                      A                      A
 Frequencies --   1222.2338              1238.3248              1270.9138
 Red. masses --      2.4963                 2.1373                 1.4283
 Frc consts  --      2.1971                 1.9310                 1.3592
 IR Inten    --     15.2695                30.7081                21.9942

                     67                     68                     69
                      A                      A                      A
 Frequencies --   1298.2850              1312.3609              1320.1697
 Red. masses --      1.5779                 1.4499                 2.1590
 Frc consts  --      1.5670                 1.4713                 2.2170
 IR Inten    --      5.6011                28.5110                77.2394

                     70                     71                     72
                      A                      A                      A
 Frequencies --   1332.3009              1345.5855              1367.9402
 Red. masses --      1.2738                 1.4839                 1.7145
 Frc consts  --      1.3322                 1.5830                 1.8903
 IR Inten    --     10.4912                48.4997                 5.7147

                     73                     74                     75
                      A                      A                      A
 Frequencies --   1374.0140              1388.9798              1391.3072
 Red. masses --      1.4651                 1.5455                 1.5346
 Frc consts  --      1.6296                 1.7568                 1.7502
 IR Inten    --      5.4855                33.1816                18.6134

                     76                     77                     78
                      A                      A                      A
 Frequencies --   1400.6515              1426.7707              1429.4285
 Red. masses --      1.5244                 1.6319                 1.4687
 Frc consts  --      1.7621                 1.9573                 1.7681
 IR Inten    --     36.8990                35.3472                38.5168

                     79                     80                     81
                      A                      A                      A
 Frequencies --   1439.6181              1444.9979              1446.5581
 Red. masses --      1.5238                 1.4650                 1.2548
 Frc consts  --      1.8606                 1.8022                 1.5470
 IR Inten    --      8.6618                 8.3700                12.2743

                     82                     83                     84
                      A                      A                      A
 Frequencies --   1504.7083              1512.4653              1513.3114
 Red. masses --      1.3366                 1.1071                 1.1954
 Frc consts  --      1.7830                 1.4921                 1.6130
 IR Inten    --      9.5440                 1.2903                17.6524

                     85                     86                     87
                      A                      A                      A
 Frequencies --   1516.5617              1517.3385              1523.5630
 Red. masses --      1.4212                 1.0556                 1.0909
 Frc consts  --      1.9259                 1.4320                 1.4919
 IR Inten    --      0.8944                 1.3771                11.5826

                     88                     89                     90
                      A                      A                      A
 Frequencies --   1526.9250              1529.3845              1540.4987
 Red. masses --      1.1187                 1.1232                 2.2736
 Frc consts  --      1.5368                 1.5478                 3.1790
 IR Inten    --      5.6314                12.3893               123.6977

                     91                     92                     93
                      A                      A                      A
 Frequencies --   1541.8356              1546.5558              1652.3837
 Red. masses --      1.1561                 1.1033                 6.3955
 Frc consts  --      1.6193                 1.5548                10.2884
 IR Inten    --      3.9730                23.0021                 1.7533

                     94                     95                     96
                      A                      A                      A
 Frequencies --   1671.3019              1827.8954              2959.9351
 Red. masses --      6.4923                 9.2847                 1.0836
 Frc consts  --     10.6846                18.2776                 5.5936
 IR Inten    --     72.1232               187.1227                57.3566

                     97                     98                     99
                      A                      A                      A
 Frequencies --   3023.7539              3028.0780              3034.6201
 Red. masses --      1.0700                 1.0837                 1.0641
 Frc consts  --      5.7643                 5.8544                 5.7734
 IR Inten    --     32.4545                15.8189                32.1892

                    100                    101                    102
                      A                      A                      A
 Frequencies --   3043.4312              3048.7357              3054.8244
 Red. masses --      1.0379                 1.0378                 1.0363
 Frc consts  --      5.6643                 5.6834                 5.6977
 IR Inten    --     20.7812                25.9504                22.3792

                    103                    104                    105
                      A                      A                      A
 Frequencies --   3097.3349              3100.6526              3108.3510
 Red. masses --      1.0946                 1.0936                 1.0995
 Frc consts  --      6.1869                 6.1948                 6.2593
 IR Inten    --      2.4852                21.7849                 3.7422

                    106                    107                    108
                      A                      A                      A
 Frequencies --   3115.0306              3116.3828              3122.8758
 Red. masses --      1.0923                 1.0991                 1.1024
 Frc consts  --      6.2448                 6.2891                 6.3343
 IR Inten    --      7.5424                75.0841                34.2729

                    109                    110                    111
                      A                      A                      A
 Frequencies --   3123.6842              3135.7514              3138.3327
 Red. masses --      1.1013                 1.1015                 1.1030
 Frc consts  --      6.3311                 6.3816                 6.4005
 IR Inten    --     33.7431                19.7961                27.0753

                    112                    113                    114
                      A                      A                      A
 Frequencies --   3178.6876              3186.1657              3203.9960
 Red. masses --      1.0863                 1.0888                 1.0919
 Frc consts  --      6.4668                 6.5125                 6.6043
 IR Inten    --      7.9476                15.0105                41.6798

                    115                    116                    117
                      A                      A                      A
 Frequencies --   3212.0550              3471.0842              3663.1158
 Red. masses --      1.0959                 1.0727                 1.0638
 Frc consts  --      6.6620                 7.6147                 8.4102
 IR Inten    --     17.8514                 1.5616                34.9831

 - Thermochemistry -
 -------------------
 Temperature   298.150 Kelvin.  Pressure   1.00000 Atm.
 Atom     1 has atomic number  6 and mass  12.00000

 Molecular mass:   262.16813 amu.
 Principal axes and moments of inertia in atomic units:
                           1         2         3
     Eigenvalues --  2908.918157845.701579447.76828
           X            0.99970   0.02451  -0.00167
           Y           -0.02450   0.99966   0.00838
           Z            0.00188  -0.00833   0.99996
 This molecule is an asymmetric top.
 Rotational symmetry number  1.
 Warning -- assumption of classical behavior for rotation
           may cause significant error
 Rotational temperatures (Kelvin)      0.02978     0.01104     0.00917
 Rotational constants (GHZ):           0.62042     0.23003     0.19102
 Zero-point vibrational energy     935631.1 (Joules/Mol)
                                  223.62121 (Kcal/Mol)
 Warning -- explicit consideration of  29 degrees of freedom as
           vibrations may cause significant error
 Vibrational temperatures:     21.57    56.15    71.27    78.07   103.44
          (Kelvin)            120.67   153.65   181.32   223.94   279.23
                              313.23   344.61   365.03   377.97   406.08
                              415.38   430.89   458.08   468.11   557.35
                              612.36   620.03   645.60   679.37   715.64
                              753.23   774.19   835.10   863.32   913.43
                              923.57   946.31  1052.63  1083.47  1093.92
                             1108.65  1140.04  1174.24  1210.90  1226.38
                             1251.67  1283.13  1315.53  1351.91  1354.51
                             1377.02  1382.65  1385.00  1407.97  1495.96
                             1525.62  1531.54  1576.35  1607.09  1619.22
                             1644.01  1652.97  1666.21  1686.75  1700.43
                             1717.45  1738.94  1751.57  1758.52  1781.67
                             1828.56  1867.94  1888.19  1899.43  1916.88
                             1936.00  1968.16  1976.90  1998.43  2001.78
                             2015.23  2052.80  2056.63  2071.29  2079.03
                             2081.27  2164.94  2176.10  2177.32  2181.99
                             2183.11  2192.07  2196.90  2200.44  2216.43
                             2218.36  2225.15  2377.41  2404.63  2629.93
                             4258.69  4350.51  4356.73  4366.14  4378.82
                             4386.45  4395.21  4456.37  4461.15  4472.22
                             4481.83  4483.78  4493.12  4494.28  4511.65
                             4515.36  4573.42  4584.18  4609.84  4621.43
                             4994.12  5270.41

 Zero-point correction=                           0.356363 (Hartree/Particle)
 Thermal correction to Energy=                    0.375249
 Thermal correction to Enthalpy=                  0.376193
 Thermal correction to Gibbs Free Energy=         0.307853
 Sum of electronic and zero-point Energies=           -844.535303
 Sum of electronic and thermal Energies=              -844.516417
 Sum of electronic and thermal Enthalpies=            -844.515473
 Sum of electronic and thermal Free Energies=         -844.583813

                     E (Thermal)             CV                S
                      KCal/Mol        Cal/Mol-Kelvin    Cal/Mol-Kelvin
 Total                  235.472             72.495            143.834
 Electronic               0.000              0.000              0.000
 Translational            0.889              2.981             42.591
 Rotational               0.889              2.981             33.733
 Vibrational            233.695             66.533             67.511
 Vibration     1          0.593              1.986              7.206
 Vibration     2          0.594              1.981              5.308
 Vibration     3          0.595              1.978              4.836
 Vibration     4          0.596              1.976              4.656
 Vibration     5          0.598              1.967              4.101
 Vibration     6          0.601              1.960              3.798
 Vibration     7          0.606              1.944              3.326
 Vibration     8          0.611              1.927              3.006
 Vibration     9          0.620              1.896              2.602
 Vibration    10          0.635              1.848              2.189
 Vibration    11          0.646              1.814              1.978
 Vibration    12          0.657              1.780              1.806
 Vibration    13          0.665              1.757              1.705
 Vibration    14          0.670              1.741              1.644
 Vibration    15          0.681              1.707              1.520
 Vibration    16          0.685              1.695              1.482
 Vibration    17          0.692              1.675              1.420
 Vibration    18          0.705              1.638              1.318
 Vibration    19          0.709              1.625              1.283
 Vibration    20          0.756              1.497              1.010
 Vibration    21          0.787              1.415              0.873
 Vibration    22          0.792              1.403              0.856
 Vibration    23          0.808              1.364              0.800
 Vibration    24          0.829              1.312              0.731
 Vibration    25          0.853              1.256              0.665
 Vibration    26          0.878              1.198              0.602
 Vibration    27          0.893              1.166              0.569
 Vibration    28          0.937              1.074              0.485
 Vibration    29          0.958              1.032              0.450

 Optimization completed.
    -- Stationary point found.
 Normal termination of Gaussian 16 at Sat Dec 12 10:53:21 2020.

 ----------------------------------------------------------------------
 # B3LYP/6-311++G(d,p) empiricaldispersion=gd3bj scf=xqc pop=npa geom=c
 heck
 ----------------------------------------------------------------------

 --------------------------------------
 CID_61920139_JID_9881_Energie_neutraal
 --------------------------------------
 Structure from the checkpoint file:  "JID_9881.chk"
 Charge =  0 Multiplicity = 1

 SCF Done:  E(RB3LYP) =  -845.132675325     A.U. after   15 cycles
 Normal termination of Gaussian 16 at Sat Dec 12 11:02:15 2020.

 ----------------------------------------------------------------------
 # B3LYP/6-311++G(d,p) empiricaldispersion=gd3bj scf=xqc pop=npa geom=c
 heck
 ----------------------------------------------------------------------

 ------------------------------------
 CID_61920139_JID_9881_Energie_kation
 ------------------------------------
 Structure from the checkpoint file:  "JID_9881.chk"
 Charge =  1 Multiplicity = 2

 SCF Done:  E(UB3LYP) =  -844.874503744     A.U. after   24 cycles
 Normal termination of Gaussian 16 at Sat Dec 12 11:21:20 2020.
 Gaussian 16:  ES64L-G16RevA.03 25-Dec-2016

 ----------------------------------------------------------------------
 # B3LYP/6-311++G(d,p) empiricaldispersion=gd3bj scf=xqc pop=npa geom=c
 heck
 ----------------------------------------------------------------------

 -----------------------------------
 CID_61920139_JID_9881_Energie_anion
 -----------------------------------
 Structure from the checkpoint file:  "JID_9881.chk"
 Charge = -1 Multiplicity = 2

                         Standard orientation:
 ---------------------------------------------------------------------
 Center     Atomic      Atomic             Coordinates (Angstroms)
 Number     Number       Type             X           Y           Z
 ---------------------------------------------------------------------
      1          6           0       -1.063514   -2.999228   -0.458785
      2          6           0       -1.751731   -1.705270   -0.874366
      3          6           0       -3.145247   -1.506665   -0.225855
      4          6           0       -3.214843   -0.013802   -0.009803
      5          6           0       -4.278597    0.816062    0.299371
      6          6           0       -4.051989    2.190904    0.470555
      7          6           0       -2.763598    2.705126    0.330998
      8          6           0       -1.677827    1.875606    0.021917
      9          6           0       -1.916965    0.510681   -0.142227
     10          7           0       -1.003243   -0.499165   -0.451070
     11          6           0        0.248347   -0.164018   -1.097150
     12          6           0        1.394501    0.111652   -0.096215
     13          6           0        1.592422   -1.137532    0.755377
     14          8           0        2.162106   -2.134540    0.359526
     15          8           0        1.061691   -1.040714    1.992410
     16          7           0        2.587753    0.473320   -0.846419
     17          6           0        3.599496    1.260704   -0.124784
     18          6           0        4.177888    0.584777    1.129473
     19          6           0        4.706768    1.625819   -1.114750
     20          1           0       -0.062882   -3.092540   -0.891314
     21          1           0       -1.655474   -3.862227   -0.784104
     22          1           0       -0.963452   -3.034894    0.631334
     23          1           0       -1.861025   -1.687275   -1.973150
     24          1           0       -3.948949   -1.902964   -0.854058
     25          1           0       -3.187761   -2.040374    0.734847
     26          1           0       -5.282151    0.409136    0.398178
     27          1           0       -4.879971    2.852256    0.707162
     28          1           0       -2.592619    3.770718    0.458584
     29          1           0       -0.682652    2.293703   -0.090104
     30          1           0        0.553528   -0.997464   -1.738353
     31          1           0        0.151459    0.724047   -1.736315
     32          1           0        1.109599    0.942596    0.554489
     33          1           0        1.225274   -1.899334    2.428708
     34          1           0        3.012842   -0.385182   -1.198938
     35          1           0        3.096127    2.187181    0.185660
     36          1           0        4.648152   -0.371589    0.870854
     37          1           0        4.936896    1.222476    1.597300
     38          1           0        3.404021    0.390664    1.879544
     39          1           0        4.285971    2.118452   -1.996102
     40          1           0        5.442356    2.292071   -0.651907
     41          1           0        5.238096    0.724585   -1.447915
 ---------------------------------------------------------------------

 SCF Done:  E(UB3LYP) =  -845.119222324     A.U. after   33 cycles
 SCF Done:  E(UB3LYP) =  -845.119222323     a.u. after    1 cycles

 The electronic state is 2-A.
 Alpha  occ. eigenvalues --  -19.07939 -19.02719 -14.23757 -14.21464 -10.21478
 Alpha  occ. eigenvalues --  -10.12688 -10.12436 -10.12115 -10.11745 -10.11467
 Alpha  occ. eigenvalues --  -10.08850 -10.08641 -10.08608 -10.08548 -10.08168
 Alpha  occ. eigenvalues --  -10.07879 -10.07269 -10.06976 -10.06642  -1.02071
 Alpha  occ. eigenvalues --   -0.93211  -0.87519  -0.83110  -0.76018  -0.72022
 Alpha  occ. eigenvalues --   -0.69254  -0.66773  -0.65418  -0.62772  -0.60025
 Alpha  occ. eigenvalues --   -0.59331  -0.58023  -0.52107  -0.51059  -0.50424
 Alpha  occ. eigenvalues --   -0.49757  -0.48128  -0.43891  -0.42275  -0.41164
 Alpha  occ. eigenvalues --   -0.40284  -0.39089  -0.38598  -0.37805  -0.36590
 Alpha  occ. eigenvalues --   -0.36048  -0.35368  -0.34318  -0.33381  -0.32767
 Alpha  occ. eigenvalues --   -0.32272  -0.31805  -0.31394  -0.30934  -0.30040
 Alpha  occ. eigenvalues --   -0.29316  -0.28925  -0.28173  -0.27594  -0.27068
 Alpha  occ. eigenvalues --   -0.26535  -0.25705  -0.25241  -0.25086  -0.24584
 Alpha  occ. eigenvalues --   -0.23516  -0.20268  -0.19816  -0.16256  -0.14840
 Alpha  occ. eigenvalues --   -0.10969   0.04135
 Alpha virt. eigenvalues --    0.05661   0.06096   0.06427   0.07207   0.07381
 Alpha virt. eigenvalues --    0.07719   0.07838   0.08403   0.08808   0.09068
 Alpha virt. eigenvalues --    0.09478   0.09627   0.10273   0.10646   0.11284

  Beta  occ. eigenvalues --  -19.07888 -19.02707 -14.23755 -14.21458 -10.21477
  Beta  occ. eigenvalues --  -10.12677 -10.12430 -10.12111 -10.11738 -10.11456
  Beta  occ. eigenvalues --  -10.08832 -10.08639 -10.08602 -10.08544 -10.08159
  Beta  occ. eigenvalues --  -10.07871 -10.07248 -10.06949 -10.06615  -1.02010
  Beta  occ. eigenvalues --   -0.93160  -0.87510  -0.83095  -0.76005  -0.72003
  Beta  occ. eigenvalues --   -0.69229  -0.66751  -0.65397  -0.62735  -0.59979
  Beta  occ. eigenvalues --   -0.59295  -0.57969  -0.52057  -0.51015  -0.50393
  Beta  occ. eigenvalues --   -0.49709  -0.48097  -0.43855  -0.42251  -0.41139
  Beta  occ. eigenvalues --   -0.40254  -0.39069  -0.38568  -0.37778  -0.36565
  Beta  occ. eigenvalues --   -0.36021  -0.35336  -0.34298  -0.33355  -0.32741
  Beta  occ. eigenvalues --   -0.32240  -0.31779  -0.31361  -0.30897  -0.30014
  Beta  occ. eigenvalues --   -0.29291  -0.28896  -0.28146  -0.27560  -0.27040
  Beta  occ. eigenvalues --   -0.26515  -0.25679  -0.25213  -0.25051  -0.24566
  Beta  occ. eigenvalues --   -0.23484  -0.20237  -0.19783  -0.16231  -0.14824
  Beta  occ. eigenvalues --   -0.10949
  Beta virt. eigenvalues --    0.05965   0.06361   0.06629   0.07026   0.07469
  Beta virt. eigenvalues --    0.07732   0.07864   0.08174   0.08772   0.09006
  Beta virt. eigenvalues --    0.09191   0.09660   0.09885   0.10663   0.10878

 Mulliken charges and spin densities:
               1          2
     1  C    0.509861  -0.975030
     2  C   -1.022046   1.331832
     3  C    1.099221  -2.617634
     4  C   -0.849620   1.654700
     5  C    0.280130  -0.737238
     6  C    0.233999  -0.547772
     7  C   -0.172344  -0.062452
     8  C    0.145135   0.009835
     9  C   -0.783008   0.429734
    10  N    0.763633  -0.002716
    11  C   -0.298345  -0.168981
    12  C   -1.156333   0.338905
    13  C    0.949375  -1.360555
    14  O   -0.228142   0.068062
    15  O   -0.068456   0.079168
    16  N    0.287681  -0.005300
    17  C   -0.790496   0.784642
    18  C    0.641654  -1.095732
    19  C    0.189437  -0.700450
    20  H    0.133740   0.022734
    21  H   -0.332017   0.492555
    22  H   -0.000653   0.181382
    23  H    0.042275   0.119400
    24  H   -0.048230   0.220646
    25  H   -0.067299   0.252519
    26  H   -0.206732   0.361338
    27  H    0.013660   0.119140
    28  H   -0.058317   0.222274
    29  H   -0.087018   0.200328
    30  H   -0.006285   0.174728
    31  H    0.225786  -0.012836
    32  H    0.406214  -0.132192
    33  H   -0.397212   0.697824
    34  H    0.305928  -0.036493
    35  H   -0.059954   0.192833
    36  H    0.128141   0.024752
    37  H   -0.244742   0.414019
    38  H   -0.249479   0.408018
    39  H   -0.041789   0.197532
    40  H   -0.163432   0.304877
    41  H   -0.023923   0.151603
 Sum of Mulliken charges =  -1.00000   1.00000

 Dipole moment (field-independent basis, Debye):
    X=             -2.0816    Y=              1.6231    Z=             -3.7081  Tot=              4.5516
 Quadrupole moment (field-independent basis, Debye-Ang):
   XX=           -201.9502   YY=           -171.5782   ZZ=           -157.3527
   XY=             -9.1047   XZ=             -6.0811   YZ=              5.5259

 Summary of Natural Population Analysis:

                                       Natural Population
                Natural  -----------------------------------------------
    Atom  No    Charge         Core      Valence    Rydberg      Total
 -----------------------------------------------------------------------
      C    1   -0.29160      0.99964     2.28562    0.00635     3.29160
      C    2    0.00959      0.99961     1.98002    0.01078     2.99041
      C    3   -0.19594      0.99959     2.18772    0.00864     3.19594
      C    4   -0.02927      0.99948     2.01924    0.01055     3.02927
      C    5   -0.09492      0.99951     2.08655    0.00885     3.09492
      C    6   -0.12221      0.99957     2.11237    0.01027     3.12221
      C    7   -0.09544      0.99958     2.08629    0.00958     3.09544
      C    8   -0.13055      0.99952     2.12326    0.00777     3.13055
      C    9    0.10234      0.99944     1.88751    0.01071     2.89766
      N   10   -0.26127      0.99963     2.75010    0.01154     3.76127
      C   11   -0.07946      0.99960     2.06863    0.01123     3.07946
      C   12   -0.05830      0.99954     2.04503    0.01374     3.05830
      C   13    0.40507      0.99969     1.56792    0.02732     2.59493
      O   14   -0.31538      0.99987     3.30908    0.00643     4.31538
      O   15   -0.33572      0.99987     3.32845    0.00740     4.33572
      N   16   -0.34081      0.99973     2.82962    0.01145     3.84081
      C   17   -0.01058      0.99962     1.99923    0.01173     3.01058
      C   18   -0.29881      0.99964     2.29342    0.00574     3.29881
      C   19   -0.28415      0.99964     2.27944    0.00507     3.28415
      H   20    0.10568      0.00000     0.39324    0.00109     0.39432
      H   21    0.10129      0.00000     0.39768    0.00104     0.39871
      H   22    0.10352      0.00000     0.39461    0.00187     0.39648
      H   23    0.08186      0.00000     0.41654    0.00160     0.41814
      H   24    0.10659      0.00000     0.39232    0.00109     0.39341
      H   25    0.10508      0.00000     0.39352    0.00140     0.39492
      H   26    0.10007      0.00000     0.39901    0.00092     0.39993
      H   27    0.09834      0.00000     0.40090    0.00076     0.40166
      H   28    0.09894      0.00000     0.40026    0.00081     0.40106
      H   29    0.10317      0.00000     0.39534    0.00149     0.39683
      H   30    0.10215      0.00000     0.39649    0.00137     0.39785
      H   31    0.10015      0.00000     0.39824    0.00161     0.39985
      H   32    0.10670      0.00000     0.39047    0.00283     0.39330
      H   33    0.24373      0.00000     0.24546    0.01081     0.25627
      H   34    0.17811      0.00000     0.31918    0.00271     0.32189
      H   35    0.08855      0.00000     0.40947    0.00199     0.41145
      H   36    0.09962      0.00000     0.39945    0.00093     0.40038
      H   37    0.10215      0.00000     0.39681    0.00104     0.39785
      H   38    0.10305      0.00000     0.39544    0.00151     0.39695
      H   39    0.10306      0.00000     0.39576    0.00117     0.39694
      H   40    0.10108      0.00000     0.39795    0.00098     0.39892
      H   41    0.09458      0.00000     0.40446    0.00096     0.40542
 =======================================================================
   * Total *    0.00000     18.99277    51.77210    0.23513    71.00000

 Normal termination of Gaussian 16 at Sat Dec 12 11:46:11 2020.
