 Gaussian 16, Revision A.03,

 -----------------------------------------------------------
 # opt freq B3LYP/6-31G(d) empiricaldispersion=gd3bj scf=xqc
 -----------------------------------------------------------

 ------------------------------
 CID_86723696_JID_7976_neutraal
 ------------------------------
 Symbolic Z-matrix:
 Charge =  0 Multiplicity = 1

 SCF Done:  E(RB3LYP) =  -771.263348890     A.U. after   15 cycles
 SCF Done:  E(RB3LYP) =  -771.264228121     A.U. after   12 cycles
 SCF Done:  E(RB3LYP) =  -771.265175430     A.U. after   12 cycles
 SCF Done:  E(RB3LYP) =  -771.260353452     A.U. after   13 cycles
 SCF Done:  E(RB3LYP) =  -771.268681870     A.U. after   12 cycles
 SCF Done:  E(RB3LYP) =  -771.269314914     A.U. after   12 cycles
 SCF Done:  E(RB3LYP) =  -771.269858533     A.U. after   13 cycles
 SCF Done:  E(RB3LYP) =  -771.270845307     A.U. after   12 cycles
 SCF Done:  E(RB3LYP) =  -771.271612251     A.U. after   12 cycles
 SCF Done:  E(RB3LYP) =  -771.271808848     A.U. after   13 cycles
 SCF Done:  E(RB3LYP) =  -771.297656936     A.U. after    8 cycles
 SCF Done:  E(RB3LYP) =  -771.297658251     A.U. after    9 cycles
 SCF Done:  E(RB3LYP) =  -771.297657786     A.U. after    9 cycles
 SCF Done:  E(RB3LYP) =  -771.297658478     A.U. after    9 cycles
 SCF Done:  E(RB3LYP) =  -771.297658512     A.U. after    7 cycles
 Optimization completed.
    -- Stationary point found.
 Normal termination of Gaussian 16 at Fri Dec 11 14:34:35 2020.

 --------------------------------------------------------------------
 #N Geom=AllCheck Guess=TCheck SCRF=Check GenChk RB3LYP/6-31G(d) Freq
 --------------------------------------------------------------------

 Structure from the checkpoint file:  "JID_7976.chk"
 ------------------------------
 CID_86723696_JID_7976_neutraal
 ------------------------------
 Charge =  0 Multiplicity = 1

 SCF Done:  E(RB3LYP) =  -771.297658512     A.U. after    1 cycles

  Exact polarizability: 215.237   1.793 161.313  -3.930  -1.147 100.660
 Approx polarizability: 277.489  -4.287 262.891 -13.457   1.557 146.547

                      1                      2                      3
                      A                      A                      A
 Frequencies --     26.9783                27.4750                49.3586
 Red. masses --      3.3410                 3.4397                 4.1155
 Frc consts  --      0.0014                 0.0015                 0.0059
 IR Inten    --      1.2891                 0.4042                 0.5387

                      4                      5                      6
                      A                      A                      A
 Frequencies --     70.5261                88.7607               119.7643
 Red. masses --      3.3761                 3.0734                 3.2523
 Frc consts  --      0.0099                 0.0143                 0.0275
 IR Inten    --      0.4489                 0.2913                 0.9490

                      7                      8                      9
                      A                      A                      A
 Frequencies --    124.0988               137.0658               175.5604
 Red. masses --      1.9540                 2.1683                 2.1204
 Frc consts  --      0.0177                 0.0240                 0.0385
 IR Inten    --      1.1722                 0.1616                 1.2755

                     10                     11                     12
                      A                      A                      A
 Frequencies --    208.4383               213.7957               218.7153
 Red. masses --      3.0332                 2.0012                 1.4377
 Frc consts  --      0.0776                 0.0539                 0.0405
 IR Inten    --      1.6090                 0.9496                 0.0473

                     13                     14                     15
                      A                      A                      A
 Frequencies --    234.1189               245.9844               256.2814
 Red. masses --      1.1584                 1.0603                 1.1536
 Frc consts  --      0.0374                 0.0378                 0.0446
 IR Inten    --      0.1167                 0.0063                 0.1677

                     16                     17                     18
                      A                      A                      A
 Frequencies --    278.2705               293.8986               316.3503
 Red. masses --      3.6888                 3.1638                 4.4674
 Frc consts  --      0.1683                 0.1610                 0.2634
 IR Inten    --      1.4590                 1.8279                 4.0108

                     19                     20                     21
                      A                      A                      A
 Frequencies --    374.4626               378.2440               392.3021
 Red. masses --      2.8285                 2.8677                 4.0268
 Frc consts  --      0.2337                 0.2417                 0.3651
 IR Inten    --      1.6522                 0.3137                11.4992

                     22                     23                     24
                      A                      A                      A
 Frequencies --    423.3364               426.3774               472.5535
 Red. masses --      2.8456                 3.6393                 2.7553
 Frc consts  --      0.3005                 0.3898                 0.3625
 IR Inten    --      1.6005                 4.0682                 1.8151

                     25                     26                     27
                      A                      A                      A
 Frequencies --    492.6200               502.0526               545.4348
 Red. masses --      2.8361                 3.8065                 4.1204
 Frc consts  --      0.4055                 0.5653                 0.7222
 IR Inten    --      4.5044                 2.5900                 0.4680

                     28                     29                     30
                      A                      A                      A
 Frequencies --    560.2235               591.7918               670.7550
 Red. masses --      4.5787                 4.7954                 5.2330
 Frc consts  --      0.8467                 0.9895                 1.3872
 IR Inten    --      0.9455                 1.1149                 3.8566

                     31                     32                     33
                      A                      A                      A
 Frequencies --    715.5525               764.5917               797.2655
 Red. masses --      3.1431                 2.4034                 3.8883
 Frc consts  --      0.9482                 0.8278                 1.4562
 IR Inten    --      0.2020                45.3131                 6.1833

                     34                     35                     36
                      A                      A                      A
 Frequencies --    805.4154               819.5884               820.6217
 Red. masses --      3.9268                 2.8945                 3.6134
 Frc consts  --      1.5008                 1.1455                 1.4337
 IR Inten    --     16.1258                 5.8474                 4.3225

                     37                     38                     39
                      A                      A                      A
 Frequencies --    858.6951               904.5527               908.1141
 Red. masses --      3.6036                 2.1289                 1.6778
 Frc consts  --      1.5655                 1.0263                 0.8152
 IR Inten    --     16.3133                 1.5160                 2.3349

                     40                     41                     42
                      A                      A                      A
 Frequencies --    943.0013               947.9198               949.5639
 Red. masses --      2.7335                 1.2044                 1.2854
 Frc consts  --      1.4322                 0.6376                 0.6829
 IR Inten    --      7.5691                 1.7136                 0.7988

                     43                     44                     45
                      A                      A                      A
 Frequencies --    957.9381               964.7295               970.0618
 Red. masses --      1.4180                 1.3401                 1.2647
 Frc consts  --      0.7667                 0.7349                 0.7012
 IR Inten    --      0.1695                 0.0179                 0.5719

                     46                     47                     48
                      A                      A                      A
 Frequencies --   1001.2097              1072.4388              1080.7950
 Red. masses --      2.1751                 1.5033                 2.1382
 Frc consts  --      1.2846                 1.0187                 1.4716
 IR Inten    --     39.6201                 5.0611                98.0659

                     49                     50                     51
                      A                      A                      A
 Frequencies --   1123.2651              1158.7254              1170.4266
 Red. masses --      2.1404                 1.9116                 2.1133
 Frc consts  --      1.5912                 1.5122                 1.7057
 IR Inten    --     13.3614                82.5475                30.6944

                     52                     53                     54
                      A                      A                      A
 Frequencies --   1171.8316              1175.6481              1188.7914
 Red. masses --      2.1485                 1.9713                 2.1949
 Frc consts  --      1.7383                 1.6053                 1.8276
 IR Inten    --      7.0776               174.2233               159.1679

                     55                     56                     57
                      A                      A                      A
 Frequencies --   1212.2439              1218.6959              1223.7349
 Red. masses --      1.9065                 1.9390                 2.0179
 Frc consts  --      1.6507                 1.6968                 1.7804
 IR Inten    --     18.2096                 4.3781                 5.7533

                     58                     59                     60
                      A                      A                      A
 Frequencies --   1238.0499              1300.1946              1308.4325
 Red. masses --      1.9765                 2.9695                 3.5085
 Frc consts  --      1.7849                 2.9576                 3.5389
 IR Inten    --     47.7327               272.1766               376.8276

                     61                     62                     63
                      A                      A                      A
 Frequencies --   1359.8497              1387.3159              1391.7277
 Red. masses --      5.9220                 1.3017                 1.3013
 Frc consts  --      6.4521                 1.4761                 1.4850
 IR Inten    --    123.8744                 8.1314                 2.7365

                     64                     65                     66
                      A                      A                      A
 Frequencies --   1404.7619              1426.3719              1427.1853
 Red. masses --      1.2705                 1.3154                 1.3426
 Frc consts  --      1.4771                 1.5768                 1.6112
 IR Inten    --      7.2560                36.4309                23.5212

                     67                     68                     69
                      A                      A                      A
 Frequencies --   1432.7587              1440.9105              1442.7585
 Red. masses --      1.3545                 1.2467                 1.2299
 Frc consts  --      1.6383                 1.5250                 1.5084
 IR Inten    --     15.6858                20.2395                 5.1476

                     70                     71                     72
                      A                      A                      A
 Frequencies --   1446.9913              1501.9253              1502.1056
 Red. masses --      1.2584                 1.5878                 2.7801
 Frc consts  --      1.5524                 2.1102                 3.6959
 IR Inten    --     16.7899                14.9336                17.3466

                     73                     74                     75
                      A                      A                      A
 Frequencies --   1509.4930              1511.3178              1516.7334
 Red. masses --      1.0480                 1.0691                 1.2760
 Frc consts  --      1.4070                 1.4387                 1.7295
 IR Inten    --      0.1497                 2.3757                36.3925

                     76                     77                     78
                      A                      A                      A
 Frequencies --   1519.0549              1520.9077              1524.7523
 Red. masses --      1.0668                 1.0520                 1.0578
 Frc consts  --      1.4503                 1.4337                 1.4489
 IR Inten    --      1.2430                25.5712                 5.6715

                     79                     80                     81
                      A                      A                      A
 Frequencies --   1529.4558              1530.4149              1542.2108
 Red. masses --      1.2053                 1.0553                 1.0542
 Frc consts  --      1.6612                 1.4562                 1.4772
 IR Inten    --      7.8776                 0.7120                 3.5393

                     82                     83                     84
                      A                      A                      A
 Frequencies --   1549.9187              1638.1108              1653.4140
 Red. masses --      1.0556                 6.0774                 5.9205
 Frc consts  --      1.4941                 9.6085                 9.5361
 IR Inten    --      8.2482                71.6299                16.3426

                     85                     86                     87
                      A                      A                      A
 Frequencies --   1779.8958              3034.6762              3058.1036
 Red. masses --     11.3731                 1.0841                 1.0354
 Frc consts  --     21.2285                 5.8822                 5.7049
 IR Inten    --    212.6858                26.3034                12.8357

                     88                     89                     90
                      A                      A                      A
 Frequencies --   3059.9521              3062.8822              3063.6481
 Red. masses --      1.0385                 1.0356                 1.0416
 Frc consts  --      5.7291                 5.7243                 5.7601
 IR Inten    --     21.7549                20.8603                14.2552

                     91                     92                     93
                      A                      A                      A
 Frequencies --   3067.6803              3081.7142              3122.3895
 Red. masses --      1.0469                 1.0833                 1.1018
 Frc consts  --      5.8048                 6.0615                 6.3289
 IR Inten    --     18.2041                31.1524                18.5177

                     94                     95                     96
                      A                      A                      A
 Frequencies --   3125.8591              3126.4463              3135.1365
 Red. masses --      1.1018                 1.1031                 1.1025
 Frc consts  --      6.3429                 6.3528                 6.3845
 IR Inten    --     44.6157                 2.5699                48.1643

                     97                     98                     99
                      A                      A                      A
 Frequencies --   3138.0327              3140.5250              3141.6565
 Red. masses --      1.0874                 1.1029                 1.1021
 Frc consts  --      6.3089                 6.4091                 6.4090
 IR Inten    --     14.8437                17.2397                30.0591

                    100                    101                    102
                      A                      A                      A
 Frequencies --   3170.3974              3174.4441              3175.0845
 Red. masses --      1.1003                 1.0996                 1.1035
 Frc consts  --      6.5159                 6.5288                 6.5546
 IR Inten    --      1.2842                17.5185                12.0749

                    103                    104                    105
                      A                      A                      A
 Frequencies --   3196.9304              3231.3067              3237.4852
 Red. masses --      1.0885                 1.0905                 1.0933
 Frc consts  --      6.5547                 6.7089                 6.7516
 IR Inten    --     13.6081                13.0659                 6.2526

 - Thermochemistry -
 -------------------
 Temperature   298.150 Kelvin.  Pressure   1.00000 Atm.
 Atom     1 has atomic number  6 and mass  12.00000

 Molecular mass:   236.14124 amu.
 Principal axes and moments of inertia in atomic units:
                           1         2         3
     Eigenvalues --  1751.774318175.570109240.46123
           X            0.99999   0.00326   0.00298
           Y           -0.00324   0.99996  -0.00843
           Z           -0.00301   0.00842   0.99996
 This molecule is an asymmetric top.
 Rotational symmetry number  1.
 Warning -- assumption of classical behavior for rotation
           may cause significant error
 Rotational temperatures (Kelvin)      0.04944     0.01059     0.00937
 Rotational constants (GHZ):           1.03024     0.22075     0.19531
 Zero-point vibrational energy     835725.4 (Joules/Mol)
                                  199.74317 (Kcal/Mol)
 Warning -- explicit consideration of  29 degrees of freedom as
           vibrations may cause significant error
 Vibrational temperatures:     38.82    39.53    71.02   101.47   127.71
          (Kelvin)            172.31   178.55   197.21   252.59   299.90
                              307.60   314.68   336.84   353.92   368.73
                              400.37   422.85   455.16   538.77   544.21
                              564.44   609.09   613.46   679.90   708.77
                              722.34   784.76   806.04   851.46   965.07
                             1029.52  1100.08  1147.09  1158.81  1179.20
                             1180.69  1235.47  1301.45  1306.57  1356.77
                             1363.85  1366.21  1378.26  1388.03  1395.70
                             1440.52  1543.00  1555.02  1616.13  1667.15
                             1683.98  1686.00  1691.50  1710.41  1744.15
                             1753.43  1760.68  1781.28  1870.69  1882.54
                             1956.52  1996.04  2002.39  2021.14  2052.23
                             2053.40  2061.42  2073.15  2075.81  2081.90
                             2160.94  2161.19  2171.82  2174.45  2182.24
                             2185.58  2188.25  2193.78  2200.55  2201.93
                             2218.90  2229.99  2356.88  2378.89  2560.87
                             4366.22  4399.93  4402.59  4406.80  4407.91
                             4413.71  4433.90  4492.42  4497.41  4498.26
                             4510.76  4514.93  4518.52  4520.14  4561.49
                             4567.32  4568.24  4599.67  4649.13  4658.02

 Zero-point correction=                           0.318311 (Hartree/Particle)
 Thermal correction to Energy=                    0.336591
 Thermal correction to Enthalpy=                  0.337535
 Thermal correction to Gibbs Free Energy=         0.271246
 Sum of electronic and zero-point Energies=           -770.979348
 Sum of electronic and thermal Energies=              -770.961068
 Sum of electronic and thermal Enthalpies=            -770.960124
 Sum of electronic and thermal Free Energies=         -771.026412

                     E (Thermal)             CV                S
                      KCal/Mol        Cal/Mol-Kelvin    Cal/Mol-Kelvin
 Total                  211.214             68.205            139.516
 Electronic               0.000              0.000              0.000
 Translational            0.889              2.981             42.279
 Rotational               0.889              2.981             33.248
 Vibrational            209.436             62.243             63.989
 Vibration     1          0.593              1.984              6.040
 Vibration     2          0.593              1.984              6.004
 Vibration     3          0.595              1.978              4.843
 Vibration     4          0.598              1.968              4.139
 Vibration     5          0.602              1.957              3.687
 Vibration     6          0.609              1.933              3.104
 Vibration     7          0.610              1.929              3.036
 Vibration     8          0.614              1.916              2.844
 Vibration     9          0.628              1.872              2.375
 Vibration    10          0.642              1.828              2.057
 Vibration    11          0.644              1.820              2.011
 Vibration    12          0.646              1.813              1.970
 Vibration    13          0.654              1.789              1.847
 Vibration    14          0.660              1.769              1.759
 Vibration    15          0.666              1.752              1.687
 Vibration    16          0.679              1.714              1.544
 Vibration    17          0.689              1.685              1.451
 Vibration    18          0.703              1.642              1.329
 Vibration    19          0.746              1.524              1.061
 Vibration    20          0.749              1.517              1.046
 Vibration    21          0.760              1.487              0.991
 Vibration    22          0.785              1.419              0.881
 Vibration    23          0.788              1.413              0.871
 Vibration    24          0.829              1.311              0.730
 Vibration    25          0.848              1.266              0.677
 Vibration    26          0.857              1.245              0.653
 Vibration    27          0.901              1.150              0.554
 Vibration    28          0.916              1.117              0.523
 Vibration    29          0.949              1.049              0.464

 Optimization completed.
    -- Stationary point found.
 Normal termination of Gaussian 16 at Fri Dec 11 14:46:15 2020.

 ----------------------------------------------------------------------
 # B3LYP/6-311++G(d,p) empiricaldispersion=gd3bj scf=xqc pop=npa geom=c
 heck
 ----------------------------------------------------------------------

 --------------------------------------
 CID_86723696_JID_7976_Energie_neutraal
 --------------------------------------
 Structure from the checkpoint file:  "JID_7976.chk"
 Charge =  0 Multiplicity = 1

 SCF Done:  E(RB3LYP) =  -771.510257707     A.U. after   15 cycles
 Normal termination of Gaussian 16 at Fri Dec 11 14:52:27 2020.

 ----------------------------------------------------------------------
 # B3LYP/6-311++G(d,p) empiricaldispersion=gd3bj scf=xqc pop=npa geom=c
 heck
 ----------------------------------------------------------------------

 ------------------------------------
 CID_86723696_JID_7976_Energie_kation
 ------------------------------------
 Structure from the checkpoint file:  "JID_7976.chk"
 Charge =  1 Multiplicity = 2

 SCF Done:  E(UB3LYP) =  -771.219652384     A.U. after   24 cycles
 Normal termination of Gaussian 16 at Fri Dec 11 15:06:11 2020.
 Gaussian 16:  ES64L-G16RevA.03 25-Dec-2016

 ----------------------------------------------------------------------
 # B3LYP/6-311++G(d,p) empiricaldispersion=gd3bj scf=xqc pop=npa geom=c
 heck
 ----------------------------------------------------------------------

 -----------------------------------
 CID_86723696_JID_7976_Energie_anion
 -----------------------------------
 Structure from the checkpoint file:  "JID_7976.chk"
 Charge = -1 Multiplicity = 2

                         Standard orientation:
 ---------------------------------------------------------------------
 Center     Atomic      Atomic             Coordinates (Angstroms)
 Number     Number       Type             X           Y           Z
 ---------------------------------------------------------------------
      1          6           0        0.134654   -1.638875    0.174047
      2          6           0        0.389121   -0.160418   -0.001230
      3          6           0       -0.614088    0.827547    0.026357
      4          6           0       -0.291484    2.190809   -0.072226
      5          6           0        1.026376    2.584814   -0.235855
      6          6           0        2.039463    1.627789   -0.293253
      7          6           0        1.724943    0.270950   -0.177511
      8          8           0        2.656720   -0.728657   -0.244990
      9          6           0        4.061026   -0.429613   -0.200547
     10          6           0        4.478628   -0.007139    1.206223
     11          6           0        4.758031   -1.703154   -0.659260
     12          6           0       -2.080172    0.549760    0.157880
     13          8           0       -2.876013    1.373970    0.570950
     14          8           0       -2.422362   -0.678643   -0.277298
     15          6           0       -3.816645   -1.108568   -0.227648
     16          6           0       -4.332667   -1.181397    1.206117
     17          6           0       -4.691368   -0.280095   -1.163450
     18          1           0       -0.670409   -1.823328    0.886027
     19          1           0       -0.163648   -2.105025   -0.772097
     20          1           0        1.043246   -2.133833    0.518807
     21          1           0       -1.095576    2.914943   -0.019049
     22          1           0        1.277924    3.637849   -0.321270
     23          1           0        3.065769    1.947218   -0.425722
     24          1           0        4.279838    0.371371   -0.919327
     25          1           0        4.282525   -0.822046    1.911206
     26          1           0        5.548794    0.225336    1.232501
     27          1           0        3.927331    0.875372    1.542360
     28          1           0        4.422706   -1.983753   -1.661970
     29          1           0        5.843007   -1.557343   -0.678813
     30          1           0        4.529665   -2.527280    0.024888
     31          1           0       -3.737217   -2.124749   -0.626127
     32          1           0       -4.444086   -0.184625    1.635464
     33          1           0       -5.307220   -1.682463    1.214661
     34          1           0       -3.645901   -1.762837    1.830259
     35          1           0       -4.243740   -0.234914   -2.161569
     36          1           0       -5.675955   -0.753160   -1.251656
     37          1           0       -4.818716    0.735450   -0.785733
 ---------------------------------------------------------------------

 SCF Done:  E(UB3LYP) =  -771.503515698     A.U. after   33 cycles
 SCF Done:  E(UB3LYP) =  -771.503515698     a.u. after    1 cycles

 The electronic state is 2-A.
 Alpha  occ. eigenvalues --  -19.03594 -19.03342 -18.96575 -10.15599 -10.13421
 Alpha  occ. eigenvalues --  -10.12992 -10.10835 -10.06675 -10.06559 -10.06406
 Alpha  occ. eigenvalues --  -10.06025 -10.05476 -10.04940 -10.04803 -10.04307
 Alpha  occ. eigenvalues --  -10.04115 -10.03936  -0.97471  -0.95089  -0.88482
 Alpha  occ. eigenvalues --   -0.73581  -0.69492  -0.68861  -0.64931  -0.62138
 Alpha  occ. eigenvalues --   -0.59905  -0.59554  -0.56839  -0.54661  -0.51756
 Alpha  occ. eigenvalues --   -0.48185  -0.46151  -0.43175  -0.40529  -0.38503
 Alpha  occ. eigenvalues --   -0.37727  -0.36411  -0.35927  -0.35206  -0.34586
 Alpha  occ. eigenvalues --   -0.33618  -0.32741  -0.31099  -0.30868  -0.30057
 Alpha  occ. eigenvalues --   -0.29702  -0.29417  -0.29169  -0.28236  -0.27339
 Alpha  occ. eigenvalues --   -0.27256  -0.26754  -0.26019  -0.25808  -0.24605
 Alpha  occ. eigenvalues --   -0.24146  -0.23623  -0.21451  -0.20806  -0.20151
 Alpha  occ. eigenvalues --   -0.18324  -0.14638  -0.12923  -0.10363   0.04531
 Alpha virt. eigenvalues --    0.06014   0.06304   0.08151   0.08462   0.08854
 Alpha virt. eigenvalues --    0.08967   0.09298   0.10046   0.10468   0.11180
 Alpha virt. eigenvalues --    0.11897   0.11941   0.11971   0.12173   0.12681

  Beta  occ. eigenvalues --  -19.03529 -19.03348 -18.96382 -10.15411 -10.13420
  Beta  occ. eigenvalues --  -10.12989 -10.10868 -10.06669 -10.06534 -10.06385
  Beta  occ. eigenvalues --  -10.05987 -10.05330 -10.04949 -10.04689 -10.04123
  Beta  occ. eigenvalues --  -10.04110 -10.03878  -0.97250  -0.95096  -0.88178
  Beta  occ. eigenvalues --   -0.73363  -0.69424  -0.68804  -0.64694  -0.61874
  Beta  occ. eigenvalues --   -0.59877  -0.59484  -0.56714  -0.54484  -0.51646
  Beta  occ. eigenvalues --   -0.47918  -0.46075  -0.43089  -0.40437  -0.38452
  Beta  occ. eigenvalues --   -0.37591  -0.36327  -0.35762  -0.34957  -0.34417
  Beta  occ. eigenvalues --   -0.33528  -0.32652  -0.30945  -0.30630  -0.29941
  Beta  occ. eigenvalues --   -0.29634  -0.29358  -0.29109  -0.27967  -0.27290
  Beta  occ. eigenvalues --   -0.27181  -0.26704  -0.25948  -0.25548  -0.24458
  Beta  occ. eigenvalues --   -0.24072  -0.23467  -0.21326  -0.20663  -0.19968
  Beta  occ. eigenvalues --   -0.17649  -0.14390  -0.11956  -0.09796
  Beta virt. eigenvalues --    0.06298   0.06893   0.08222   0.08486   0.08632
  Beta virt. eigenvalues --    0.08927   0.09280   0.09469   0.10114   0.10658
  Beta virt. eigenvalues --    0.11193   0.11835   0.11990   0.12161   0.12197

 Mulliken charges and spin densities:
               1          2
     1  C   -0.238215  -0.353676
     2  C   -0.192440   0.412042
     3  C    1.080686  -0.002038
     4  C   -0.559060   0.093539
     5  C   -0.271258  -0.244035
     6  C    0.207012  -0.109946
     7  C   -0.111647  -0.043073
     8  O   -0.015310   0.002148
     9  C   -0.661896   0.732830
    10  C    0.466654  -0.910830
    11  C    0.114304  -0.647883
    12  C   -0.885545   0.160832
    13  O   -0.265727   0.064963
    14  O    0.087032   0.009282
    15  C   -0.380425   0.380314
    16  C   -0.213679  -0.166017
    17  C    0.100986  -0.543003
    18  H    0.069678   0.070744
    19  H    0.159632   0.004190
    20  H    0.180452  -0.022434
    21  H    0.147377   0.004681
    22  H    0.108347   0.025124
    23  H    0.041665   0.089009
    24  H    0.160587  -0.045432
    25  H    0.045022   0.107345
    26  H   -0.404871   0.547516
    27  H    0.043250   0.097397
    28  H    0.008282   0.135579
    29  H   -0.275010   0.425016
    30  H    0.012502   0.122886
    31  H    0.013265   0.143639
    32  H    0.191531  -0.003379
    33  H    0.045755   0.092661
    34  H    0.105223   0.011393
    35  H    0.093881   0.038568
    36  H   -0.078357   0.208344
    37  H    0.070316   0.111705
 Sum of Mulliken charges =  -1.00000   1.00000

 Dipole moment (field-independent basis, Debye):
    X=             -3.5236    Y=             -1.3988    Z=             -0.7488  Tot=              3.8643
 Quadrupole moment (field-independent basis, Debye-Ang):
   XX=           -201.5218   YY=           -128.6452   ZZ=           -122.6668
   XY=             10.1021   XZ=             -5.8989   YZ=             -3.1441

 Summary of Natural Population Analysis:

                                       Natural Population
                Natural  -----------------------------------------------
    Atom  No    Charge         Core      Valence    Rydberg      Total
 -----------------------------------------------------------------------
      C    1   -0.29472      0.99964     2.28999    0.00509     3.29472
      C    2    0.00837      0.99947     1.98456    0.00760     2.99163
      C    3   -0.05172      0.99943     2.04300    0.00928     3.05172
      C    4   -0.08462      0.99954     2.07542    0.00966     3.08462
      C    5   -0.10972      0.99957     2.09989    0.01025     3.10972
      C    6   -0.10462      0.99952     2.09779    0.00731     3.10462
      C    7    0.15222      0.99934     1.83625    0.01219     2.84778
      O    8   -0.29112      0.99985     3.28081    0.01046     4.29112
      C    9    0.06376      0.99957     1.92439    0.01229     2.93624
      C   10   -0.29966      0.99964     2.29436    0.00567     3.29966
      C   11   -0.28816      0.99964     2.28234    0.00618     3.28816
      C   12    0.42599      0.99963     1.54955    0.02483     2.57401
      O   13   -0.31029      0.99987     3.30561    0.00481     4.31029
      O   14   -0.28449      0.99986     3.27549    0.00914     4.28449
      C   15    0.06266      0.99956     1.92281    0.01497     2.93734
      C   16   -0.29992      0.99964     2.29569    0.00459     3.29992
      C   17   -0.29952      0.99964     2.29528    0.00461     3.29952
      H   18    0.10382      0.00000     0.39499    0.00119     0.39618
      H   19    0.10401      0.00000     0.39480    0.00119     0.39599
      H   20    0.10529      0.00000     0.39368    0.00103     0.39471
      H   21    0.10654      0.00000     0.39242    0.00104     0.39346
      H   22    0.09387      0.00000     0.40526    0.00087     0.40613
      H   23    0.09510      0.00000     0.40340    0.00150     0.40490
      H   24    0.08024      0.00000     0.41735    0.00241     0.41976
      H   25    0.09943      0.00000     0.39967    0.00090     0.40057
      H   26    0.10183      0.00000     0.39659    0.00159     0.39817
      H   27    0.10773      0.00000     0.39125    0.00101     0.39227
      H   28    0.10158      0.00000     0.39754    0.00088     0.39842
      H   29    0.10095      0.00000     0.39795    0.00111     0.39905
      H   30    0.09966      0.00000     0.39936    0.00098     0.40034
      H   31    0.08672      0.00000     0.41216    0.00112     0.41328
      H   32    0.11302      0.00000     0.38588    0.00110     0.38698
      H   33    0.09507      0.00000     0.40399    0.00093     0.40493
      H   34    0.10066      0.00000     0.39830    0.00103     0.39934
      H   35    0.10156      0.00000     0.39736    0.00108     0.39844
      H   36    0.09546      0.00000     0.40333    0.00122     0.40454
      H   37    0.11303      0.00000     0.38568    0.00128     0.38697
 =======================================================================
   * Total *   -0.00000     16.99342    46.82419    0.18239    64.00000

 Normal termination of Gaussian 16 at Fri Dec 11 15:25:35 2020.
