 Gaussian 16, Revision A.03,

 -----------------------------------------------------------
 # opt freq B3LYP/6-31G(d) empiricaldispersion=gd3bj scf=xqc
 -----------------------------------------------------------

 ------------------------------
 CID_81616826_JID_9275_neutraal
 ------------------------------
 Symbolic Z-matrix:
 Charge =  0 Multiplicity = 1

 SCF Done:  E(RB3LYP) =  -843.670769948     A.U. after   15 cycles
 SCF Done:  E(RB3LYP) =  -843.675156972     A.U. after   12 cycles
 SCF Done:  E(RB3LYP) =  -843.675772850     A.U. after   11 cycles
 SCF Done:  E(RB3LYP) =  -843.676677227     A.U. after   14 cycles
 SCF Done:  E(RB3LYP) =  -843.677280162     A.U. after   12 cycles
 SCF Done:  E(RB3LYP) =  -843.677492471     A.U. after   12 cycles
 SCF Done:  E(RB3LYP) =  -843.677808227     A.U. after   12 cycles
 SCF Done:  E(RB3LYP) =  -843.677939460     A.U. after   11 cycles
 SCF Done:  E(RB3LYP) =  -843.678022299     A.U. after   12 cycles
 SCF Done:  E(RB3LYP) =  -843.678044792     A.U. after   11 cycles
 SCF Done:  E(RB3LYP) =  -843.678077574     A.U. after    8 cycles
 SCF Done:  E(RB3LYP) =  -843.678077671     A.U. after    7 cycles
 SCF Done:  E(RB3LYP) =  -843.678077923     A.U. after    8 cycles
 SCF Done:  E(RB3LYP) =  -843.678077997     A.U. after    7 cycles
 SCF Done:  E(RB3LYP) =  -843.678078023     A.U. after    6 cycles
 Optimization completed.
    -- Stationary point found.
 Normal termination of Gaussian 16 at Sun Dec 13 20:25:31 2020.

 --------------------------------------------------------------------
 #N Geom=AllCheck Guess=TCheck SCRF=Check GenChk RB3LYP/6-31G(d) Freq
 --------------------------------------------------------------------

 Structure from the checkpoint file:  "JID_9275.chk"
 ------------------------------
 CID_81616826_JID_9275_neutraal
 ------------------------------
 Charge =  0 Multiplicity = 1

 SCF Done:  E(RB3LYP) =  -843.678078023     A.U. after    1 cycles

  Exact polarizability: 204.234  -7.809 178.935  19.541   7.475 130.052
 Approx polarizability: 263.981 -19.226 296.537  41.782  10.724 201.500

                      1                      2                      3
                      A                      A                      A
 Frequencies --     17.9122                31.5213                48.0086
 Red. masses --      3.6904                 4.7581                 4.0009
 Frc consts  --      0.0007                 0.0028                 0.0054
 IR Inten    --      0.5074                 0.0986                 1.9019

                      4                      5                      6
                      A                      A                      A
 Frequencies --     65.1854                85.1417               101.5908
 Red. masses --      2.4919                 4.0652                 3.3748
 Frc consts  --      0.0062                 0.0174                 0.0205
 IR Inten    --      0.2954                 0.8871                 1.0481

                      7                      8                      9
                      A                      A                      A
 Frequencies --    152.0083               163.1989               188.5879
 Red. masses --      4.6577                 2.3738                 4.8156
 Frc consts  --      0.0634                 0.0373                 0.1009
 IR Inten    --      0.2190                 0.4963                 0.1720

                     10                     11                     12
                      A                      A                      A
 Frequencies --    236.2920               265.7556               289.7143
 Red. masses --      2.8700                 3.6686                 5.6183
 Frc consts  --      0.0944                 0.1527                 0.2778
 IR Inten    --      5.0468                 1.1284                 1.1311

                     13                     14                     15
                      A                      A                      A
 Frequencies --    317.1122               320.3888               369.4649
 Red. masses --      3.1113                 3.4137                 4.0217
 Frc consts  --      0.1843                 0.2065                 0.3234
 IR Inten    --      5.2120                 0.2454                 0.6646

                     16                     17                     18
                      A                      A                      A
 Frequencies --    381.0011               391.8146               406.4203
 Red. masses --      1.1099                 3.3503                 4.1700
 Frc consts  --      0.0949                 0.3030                 0.4058
 IR Inten    --    118.6727                 3.6466                11.7006

                     19                     20                     21
                      A                      A                      A
 Frequencies --    427.5738               460.5059               502.7308
 Red. masses --      3.2059                 3.2041                 2.8351
 Frc consts  --      0.3453                 0.4003                 0.4222
 IR Inten    --      0.9911                 0.8981                 1.5609

                     22                     23                     24
                      A                      A                      A
 Frequencies --    509.7409               525.8493               576.2606
 Red. masses --      2.5810                 2.7582                 3.7138
 Frc consts  --      0.3951                 0.4494                 0.7266
 IR Inten    --      0.7558                 9.4983                39.3020

                     25                     26                     27
                      A                      A                      A
 Frequencies --    581.5221               627.9185               650.2046
 Red. masses --      3.1983                 2.9960                 3.4424
 Frc consts  --      0.6372                 0.6960                 0.8575
 IR Inten    --      9.5514                23.2687                 3.8739

                     28                     29                     30
                      A                      A                      A
 Frequencies --    654.0020               679.4957               737.6437
 Red. masses --      6.2013                 2.4336                 2.9708
 Frc consts  --      1.5627                 0.6620                 0.9524
 IR Inten    --      2.6681                 8.0351                17.6398

                     31                     32                     33
                      A                      A                      A
 Frequencies --    750.4206               767.5996               785.9179
 Red. masses --      3.2422                 1.6075                 3.2674
 Frc consts  --      1.0757                 0.5581                 1.1891
 IR Inten    --      6.2533                 2.5417                71.0075

                     34                     35                     36
                      A                      A                      A
 Frequencies --    816.8827               820.3107               854.6879
 Red. masses --      1.4302                 1.6361                 4.3108
 Frc consts  --      0.5623                 0.6487                 1.8554
 IR Inten    --      7.3270                 5.4267                18.4493

                     37                     38                     39
                      A                      A                      A
 Frequencies --    859.1174               869.7354               891.0996
 Red. masses --      1.8063                 1.8961                 2.1713
 Frc consts  --      0.7855                 0.8451                 1.0158
 IR Inten    --     17.3697                 6.0274                 0.8538

                     40                     41                     42
                      A                      A                      A
 Frequencies --    920.4447               930.9017               952.6473
 Red. masses --      1.6877                 2.5039                 1.3133
 Frc consts  --      0.8424                 1.2784                 0.7022
 IR Inten    --      7.9388                 1.4490                 4.8905

                     43                     44                     45
                      A                      A                      A
 Frequencies --    968.4143               976.4881               991.8119
 Red. masses --      1.6811                 1.3148                 2.2265
 Frc consts  --      0.9289                 0.7387                 1.2904
 IR Inten    --      0.2648                 0.7340                 0.7348

                     46                     47                     48
                      A                      A                      A
 Frequencies --   1031.9583              1033.5789              1042.3048
 Red. masses --      2.3175                 2.8723                 1.7850
 Frc consts  --      1.4541                 1.8079                 1.1426
 IR Inten    --      1.1492                 3.3384                 4.2871

                     49                     50                     51
                      A                      A                      A
 Frequencies --   1067.9315              1103.7217              1115.3183
 Red. masses --      1.8686                 2.3581                 2.9281
 Frc consts  --      1.2556                 1.6925                 2.1460
 IR Inten    --      6.5352                 3.5869                 3.6838

                     52                     53                     54
                      A                      A                      A
 Frequencies --   1134.8028              1139.6133              1149.7018
 Red. masses --      1.6203                 1.7439                 2.3777
 Frc consts  --      1.2294                 1.3344                 1.8518
 IR Inten    --     16.1547                 3.3709                25.1058

                     55                     56                     57
                      A                      A                      A
 Frequencies --   1171.0058              1184.1653              1198.7010
 Red. masses --      2.8476                 1.8387                 2.8457
 Frc consts  --      2.3006                 1.5191                 2.4092
 IR Inten    --     55.4928                 6.1575                18.4781

                     58                     59                     60
                      A                      A                      A
 Frequencies --   1204.8915              1212.7558              1213.5693
 Red. masses --      1.1634                 1.3764                 1.4525
 Frc consts  --      0.9951                 1.1927                 1.2603
 IR Inten    --     59.3187               158.6952                20.4366

                     61                     62                     63
                      A                      A                      A
 Frequencies --   1230.0713              1266.5888              1272.4459
 Red. masses --      1.4401                 1.6718                 1.2443
 Frc consts  --      1.2838                 1.5801                 1.1870
 IR Inten    --      5.8726                14.1965                16.4275

                     64                     65                     66
                      A                      A                      A
 Frequencies --   1287.7677              1299.4899              1316.8826
 Red. masses --      1.3398                 1.2749                 3.3276
 Frc consts  --      1.3091                 1.2684                 3.3999
 IR Inten    --     15.4646                 8.9283               124.4487

                     67                     68                     69
                      A                      A                      A
 Frequencies --   1318.6410              1329.6654              1339.1863
 Red. masses --      1.5289                 1.3133                 1.3911
 Frc consts  --      1.5664                 1.3681                 1.4699
 IR Inten    --     22.9909                 1.1692                 5.5866

                     70                     71                     72
                      A                      A                      A
 Frequencies --   1342.5971              1354.2465              1376.5453
 Red. masses --      1.5391                 1.3402                 1.7071
 Frc consts  --      1.6346                 1.4481                 1.9058
 IR Inten    --      3.4726                42.6056               198.6338

                     73                     74                     75
                      A                      A                      A
 Frequencies --   1381.5377              1388.0675              1392.7888
 Red. masses --      2.1896                 1.3773                 2.4097
 Frc consts  --      2.4623                 1.5635                 2.7542
 IR Inten    --    244.8570                13.4115                52.4223

                     76                     77                     78
                      A                      A                      A
 Frequencies --   1395.4982              1404.8987              1423.8629
 Red. masses --      1.6262                 1.4476                 1.5632
 Frc consts  --      1.8658                 1.6834                 1.8672
 IR Inten    --     10.6868                14.6164                 2.0263

                     79                     80                     81
                      A                      A                      A
 Frequencies --   1441.2519              1483.5271              1496.0338
 Red. masses --      1.6092                 2.7359                 1.4927
 Frc consts  --      1.9695                 3.5476                 1.9684
 IR Inten    --     20.1657                 5.5690                26.0202

                     82                     83                     84
                      A                      A                      A
 Frequencies --   1501.5417              1515.0384              1516.9675
 Red. masses --      1.1133                 1.0988                 1.0898
 Frc consts  --      1.4789                 1.4859                 1.4776
 IR Inten    --      4.5508                 3.5718                 5.1832

                     85                     86                     87
                      A                      A                      A
 Frequencies --   1530.0532              1535.7713              1553.5512
 Red. masses --      1.0945                 1.0953                 1.1036
 Frc consts  --      1.5097                 1.5221                 1.5694
 IR Inten    --      6.7968                 2.8961                 2.0913

                     88                     89                     90
                      A                      A                      A
 Frequencies --   1565.5500              1645.5102              1674.0817
 Red. masses --      2.7870                 5.9932                 5.8789
 Frc consts  --      4.0245                 9.5611                 9.7074
 IR Inten    --     33.8358                40.7799               122.6210

                     91                     92                     93
                      A                      A                      A
 Frequencies --   1762.0273              2859.7223              2899.8399
 Red. masses --      8.2041                 1.0799                 1.0736
 Frc consts  --     15.0075                 5.2032                 5.3189
 IR Inten    --    365.6670                44.6508                47.7633

                     94                     95                     96
                      A                      A                      A
 Frequencies --   2922.0559              3042.6176              3045.9861
 Red. masses --      1.0740                 1.0613                 1.0621
 Frc consts  --      5.4032                 5.7889                 5.8062
 IR Inten    --    112.2977                12.7489                26.2651

                     97                     98                     99
                      A                      A                      A
 Frequencies --   3069.3492              3076.7109              3079.6611
 Red. masses --      1.0613                 1.0865                 1.0770
 Frc consts  --      5.8910                 6.0597                 6.0183
 IR Inten    --     28.0839                15.3600                58.1511

                    100                    101                    102
                      A                      A                      A
 Frequencies --   3086.8948              3087.8738              3093.9828
 Red. masses --      1.0988                 1.0733                 1.0994
 Frc consts  --      6.1688                 6.0296                 6.2007
 IR Inten    --     29.2794                58.3117                16.4349

                    103                    104                    105
                      A                      A                      A
 Frequencies --   3109.3818              3112.8404              3129.7116
 Red. masses --      1.1044                 1.0906                 1.1065
 Frc consts  --      6.2909                 6.2262                 6.3858
 IR Inten    --      6.6993                32.0567                53.1964

                    106                    107                    108
                      A                      A                      A
 Frequencies --   3170.5280              3210.5120              3214.2068
 Red. masses --      1.0892                 1.0918                 1.0882
 Frc consts  --      6.4512                 6.6306                 6.6237
 IR Inten    --     19.4651                 9.3772                 2.0819

                    109                    110                    111
                      A                      A                      A
 Frequencies --   3228.3267              3548.4640              3749.1374
 Red. masses --      1.0946                 1.0744                 1.0659
 Frc consts  --      6.7215                 7.9706                 8.8273
 IR Inten    --      4.8770                12.9069                48.2727

 - Thermochemistry -
 -------------------
 Temperature   298.150 Kelvin.  Pressure   1.00000 Atm.
 Atom     1 has atomic number  6 and mass  12.00000

 Molecular mass:   260.15248 amu.
 Principal axes and moments of inertia in atomic units:
                           1         2         3
     Eigenvalues --  2764.220819842.42542**********
           X            0.99999   0.00512   0.00101
           Y           -0.00514   0.99962   0.02721
           Z           -0.00087  -0.02722   0.99963
 This molecule is an asymmetric top.
 Rotational symmetry number  1.
 Warning -- assumption of classical behavior for rotation
           may cause significant error
 Rotational temperatures (Kelvin)      0.03133     0.00880     0.00773
 Rotational constants (GHZ):           0.65289     0.18336     0.16099
 Zero-point vibrational energy     885263.8 (Joules/Mol)
                                  211.58314 (Kcal/Mol)
 Warning -- explicit consideration of  25 degrees of freedom as
           vibrations may cause significant error
 Vibrational temperatures:     25.77    45.35    69.07    93.79   122.50
          (Kelvin)            146.17   218.71   234.81   271.34   339.97
                              382.36   416.83   456.25   460.97   531.58
                              548.18   563.73   584.75   615.18   662.57
                              723.32   733.40   756.58   829.11   836.68
                              903.43   935.50   940.96   977.64  1061.30
                             1079.69  1104.40  1130.76  1175.31  1180.24
                             1229.71  1236.08  1251.36  1282.09  1324.31
                             1339.36  1370.65  1393.33  1404.95  1427.00
                             1484.76  1487.09  1499.64  1536.52  1588.01
                             1604.69  1632.73  1639.65  1654.16  1684.82
                             1703.75  1724.66  1733.57  1744.89  1746.06
                             1769.80  1822.34  1830.77  1852.81  1869.68
                             1894.70  1897.23  1913.09  1926.79  1931.70
                             1948.46  1980.54  1987.72  1997.12  2003.91
                             2007.81  2021.34  2048.62  2073.64  2134.46
                             2152.46  2160.38  2179.80  2182.58  2201.41
                             2209.63  2235.21  2252.48  2367.52  2408.63
                             2535.16  4114.50  4172.22  4204.19  4377.65
                             4382.49  4416.11  4426.70  4430.95  4441.35
                             4442.76  4451.55  4473.71  4478.68  4502.96
                             4561.68  4619.21  4624.53  4644.84  5105.45
                             5394.17

 Zero-point correction=                           0.337179 (Hartree/Particle)
 Thermal correction to Energy=                    0.353896
 Thermal correction to Enthalpy=                  0.354841
 Thermal correction to Gibbs Free Energy=         0.290867
 Sum of electronic and zero-point Energies=           -843.340899
 Sum of electronic and thermal Energies=              -843.324182
 Sum of electronic and thermal Enthalpies=            -843.323237
 Sum of electronic and thermal Free Energies=         -843.387211

                     E (Thermal)             CV                S
                      KCal/Mol        Cal/Mol-Kelvin    Cal/Mol-Kelvin
 Total                  222.073             66.079            134.645
 Electronic               0.000              0.000              0.000
 Translational            0.889              2.981             42.568
 Rotational               0.889              2.981             34.077
 Vibrational            220.296             60.118             57.999
 Vibration     1          0.593              1.986              6.853
 Vibration     2          0.594              1.983              5.731
 Vibration     3          0.595              1.978              4.898
 Vibration     4          0.597              1.971              4.294
 Vibration     5          0.601              1.959              3.769
 Vibration     6          0.604              1.948              3.424
 Vibration     7          0.619              1.900              2.647
 Vibration     8          0.623              1.888              2.512
 Vibration     9          0.633              1.856              2.242
 Vibration    10          0.655              1.785              1.831
 Vibration    11          0.672              1.736              1.624
 Vibration    12          0.686              1.693              1.476
 Vibration    13          0.704              1.641              1.325
 Vibration    14          0.706              1.635              1.308
 Vibration    15          0.742              1.535              1.082
 Vibration    16          0.751              1.511              1.035
 Vibration    17          0.759              1.488              0.993
 Vibration    18          0.771              1.456              0.939
 Vibration    19          0.789              1.410              0.867
 Vibration    20          0.818              1.338              0.765
 Vibration    21          0.858              1.244              0.651
 Vibration    22          0.865              1.228              0.634
 Vibration    23          0.881              1.193              0.597
 Vibration    24          0.933              1.083              0.492
 Vibration    25          0.938              1.071              0.483

 Optimization completed.
    -- Stationary point found.
 Normal termination of Gaussian 16 at Sun Dec 13 20:46:21 2020.

 ----------------------------------------------------------------------
 # B3LYP/6-311++G(d,p) empiricaldispersion=gd3bj scf=xqc pop=npa geom=c
 heck
 ----------------------------------------------------------------------

 --------------------------------------
 CID_81616826_JID_9275_Energie_neutraal
 --------------------------------------
 Structure from the checkpoint file:  "JID_9275.chk"
 Charge =  0 Multiplicity = 1

 SCF Done:  E(RB3LYP) =  -843.917551476     A.U. after   16 cycles
 Normal termination of Gaussian 16 at Sun Dec 13 20:56:40 2020.

 ----------------------------------------------------------------------
 # B3LYP/6-311++G(d,p) empiricaldispersion=gd3bj scf=xqc pop=npa geom=c
 heck
 ----------------------------------------------------------------------

 ------------------------------------
 CID_81616826_JID_9275_Energie_kation
 ------------------------------------
 Structure from the checkpoint file:  "JID_9275.chk"
 Charge =  1 Multiplicity = 2

 SCF Done:  E(UB3LYP) =  -843.629514431     A.U. after   29 cycles
 Normal termination of Gaussian 16 at Sun Dec 13 21:23:26 2020.
 Gaussian 16:  ES64L-G16RevA.03 25-Dec-2016

 ----------------------------------------------------------------------
 # B3LYP/6-311++G(d,p) empiricaldispersion=gd3bj scf=xqc pop=npa geom=c
 heck
 ----------------------------------------------------------------------

 -----------------------------------
 CID_81616826_JID_9275_Energie_anion
 -----------------------------------
 Structure from the checkpoint file:  "JID_9275.chk"
 Charge = -1 Multiplicity = 2

                         Standard orientation:
 ---------------------------------------------------------------------
 Center     Atomic      Atomic             Coordinates (Angstroms)
 Number     Number       Type             X           Y           Z
 ---------------------------------------------------------------------
      1          6           0       -4.975779   -1.411986   -0.269627
      2          6           0       -3.843624   -1.160567   -1.305760
      3          6           0       -2.674904   -0.638252   -0.459371
      4          6           0       -1.691994    0.305879   -1.142254
      5          6           0       -0.690860    0.853717   -0.115535
      6          6           0       -1.430260    1.475790    1.081634
      7          6           0       -2.448966    0.497580    1.675549
      8          7           0       -3.357484    0.048828    0.636903
      9          6           0       -4.410249   -0.865879    1.060729
     10          7           0        0.227003    1.814553   -0.731441
     11          6           0        1.580938    1.932394   -0.485313
     12          8           0        2.135645    3.027122   -0.522343
     13          6           0        2.358544    0.679816   -0.236679
     14          6           0        2.073815   -0.536563   -0.868230
     15          6           0        2.873286   -1.655882   -0.651675
     16          6           0        3.971097   -1.569201    0.210983
     17          6           0        4.275975   -0.354378    0.837495
     18          6           0        3.481739    0.757878    0.599617
     19          8           0        4.785425   -2.631646    0.473526
     20          1           0       -5.231438   -2.471921   -0.183563
     21          1           0       -5.886592   -0.878665   -0.555313
     22          1           0       -3.570841   -2.059062   -1.866975
     23          1           0       -4.145872   -0.395562   -2.028600
     24          1           0       -2.103424   -1.507978   -0.063747
     25          1           0       -2.249840    1.138087   -1.591410
     26          1           0       -1.156151   -0.206610   -1.950106
     27          1           0       -0.087337    0.022497    0.257793
     28          1           0       -0.703552    1.779843    1.843564
     29          1           0       -1.959730    2.377894    0.747680
     30          1           0       -1.916107   -0.357533    2.143307
     31          1           0       -3.025855    0.987566    2.468397
     32          1           0       -4.001298   -1.694871    1.672458
     33          1           0       -5.155386   -0.343103    1.670238
     34          1           0       -0.178557    2.730167   -0.902743
     35          1           0        1.239155   -0.604834   -1.558669
     36          1           0        2.651750   -2.592980   -1.158696
     37          1           0        5.139134   -0.305015    1.492914
     38          1           0        3.720451    1.713009    1.055266
     39          1           0        4.473750   -3.400473   -0.028867
 ---------------------------------------------------------------------

 SCF Done:  E(UB3LYP) =  -843.911740726     A.U. after   33 cycles
 SCF Done:  E(UB3LYP) =  -843.911740726     a.u. after    1 cycles

 The electronic state is 2-A.
 Alpha  occ. eigenvalues --  -19.05657 -18.98566 -14.23538 -14.22068 -10.16946
 Alpha  occ. eigenvalues --  -10.13967 -10.12498 -10.11378 -10.11367 -10.10962
 Alpha  occ. eigenvalues --  -10.08862 -10.08729 -10.08482 -10.08338 -10.08268
 Alpha  occ. eigenvalues --  -10.08261 -10.07827 -10.07713 -10.07614  -0.96800
 Alpha  occ. eigenvalues --   -0.93694  -0.86338  -0.82773  -0.76042  -0.72005
 Alpha  occ. eigenvalues --   -0.70126  -0.65997  -0.65551  -0.65188  -0.61664
 Alpha  occ. eigenvalues --   -0.55391  -0.54634  -0.52586  -0.52013  -0.50402
 Alpha  occ. eigenvalues --   -0.49056  -0.47288  -0.45167  -0.42048  -0.41276
 Alpha  occ. eigenvalues --   -0.39367  -0.39185  -0.38492  -0.37562  -0.36565
 Alpha  occ. eigenvalues --   -0.35044  -0.34041  -0.33596  -0.33145  -0.32400
 Alpha  occ. eigenvalues --   -0.32169  -0.31777  -0.31310  -0.30289  -0.28987
 Alpha  occ. eigenvalues --   -0.28246  -0.27646  -0.26859  -0.26580  -0.25934
 Alpha  occ. eigenvalues --   -0.25005  -0.24743  -0.24655  -0.23926  -0.23572
 Alpha  occ. eigenvalues --   -0.17110  -0.16536  -0.15297  -0.14218  -0.13300
 Alpha  occ. eigenvalues --    0.03818
 Alpha virt. eigenvalues --    0.05301   0.05854   0.06539   0.06970   0.07289
 Alpha virt. eigenvalues --    0.07833   0.08403   0.08785   0.09057   0.09451
 Alpha virt. eigenvalues --    0.09816   0.10468   0.11460   0.11475   0.12049

  Beta  occ. eigenvalues --  -19.05591 -18.98497 -14.23530 -14.22055 -10.16879
  Beta  occ. eigenvalues --  -10.13887 -10.12495 -10.11368 -10.11361 -10.10947
  Beta  occ. eigenvalues --  -10.08860 -10.08716 -10.08471 -10.08329 -10.08247
  Beta  occ. eigenvalues --  -10.08193 -10.07798 -10.07706 -10.07609  -0.96655
  Beta  occ. eigenvalues --   -0.93566  -0.86321  -0.82727  -0.75947  -0.71981
  Beta  occ. eigenvalues --   -0.70105  -0.65883  -0.65465  -0.65135  -0.61634
  Beta  occ. eigenvalues --   -0.55326  -0.54525  -0.52505  -0.51939  -0.50364
  Beta  occ. eigenvalues --   -0.48996  -0.47230  -0.45069  -0.41999  -0.41220
  Beta  occ. eigenvalues --   -0.39333  -0.39152  -0.38412  -0.37530  -0.36536
  Beta  occ. eigenvalues --   -0.34971  -0.33981  -0.33542  -0.33097  -0.32301
  Beta  occ. eigenvalues --   -0.32086  -0.31638  -0.31203  -0.30207  -0.28798
  Beta  occ. eigenvalues --   -0.28182  -0.27620  -0.26826  -0.26548  -0.25904
  Beta  occ. eigenvalues --   -0.24946  -0.24686  -0.24621  -0.23882  -0.23408
  Beta  occ. eigenvalues --   -0.16991  -0.16345  -0.15175  -0.14158  -0.13011
  Beta virt. eigenvalues --    0.05655   0.06578   0.06752   0.06948   0.07134
  Beta virt. eigenvalues --    0.07865   0.08018   0.08492   0.08833   0.09222
  Beta virt. eigenvalues --    0.09640   0.09950   0.10533   0.11489   0.11769

 Mulliken charges and spin densities:
               1          2
     1  C   -0.128534  -0.247921
     2  C    0.209444  -0.787313
     3  C   -0.617885   0.718643
     4  C    0.194740  -0.714308
     5  C   -0.689571   0.184721
     6  C   -0.551328   0.274248
     7  C   -0.072333  -0.257137
     8  N    0.150221   0.084351
     9  C    0.323796  -0.501879
    10  N    0.058207   0.053759
    11  C   -0.067830  -0.384796
    12  O   -0.336218   0.022058
    13  C    0.543377   0.191243
    14  C   -0.431951   0.380615
    15  C   -0.246821   0.206712
    16  C    1.413168  -1.881150
    17  C    0.171957  -0.339906
    18  C   -0.576103   0.508495
    19  O   -0.262376   0.028266
    20  H   -0.082741   0.232536
    21  H    0.001407   0.136167
    22  H   -0.030102   0.170361
    23  H    0.080593   0.059876
    24  H    0.041420   0.122117
    25  H    0.114093   0.030682
    26  H    0.030265   0.145551
    27  H    0.348178  -0.222580
    28  H    0.146454   0.050063
    29  H    0.116277   0.024532
    30  H   -0.015232   0.122098
    31  H    0.011426   0.175468
    32  H    0.048698   0.063320
    33  H   -0.183704   0.335101
    34  H    0.275308   0.013836
    35  H    0.223603  -0.050672
    36  H   -1.323264   1.511895
    37  H    0.136898   0.034300
    38  H    0.172579   0.026442
    39  H   -0.196117   0.480204
 Sum of Mulliken charges =  -1.00000   1.00000

 Dipole moment (field-independent basis, Debye):
    X=             -5.1527    Y=              4.9253    Z=              1.9962  Tot=              7.4022
 Quadrupole moment (field-independent basis, Debye-Ang):
   XX=           -207.8802   YY=           -180.0029   ZZ=           -141.5823
   XY=              9.4504   XZ=             10.6700   YZ=             -3.2424

 Summary of Natural Population Analysis:

                                       Natural Population
                Natural  -----------------------------------------------
    Atom  No    Charge         Core      Valence    Rydberg      Total
 -----------------------------------------------------------------------
      C    1   -0.19201      0.99964     2.18561    0.00677     3.19201
      C    2   -0.18977      0.99961     2.18159    0.00856     3.18977
      C    3   -0.00582      0.99959     1.99335    0.01288     3.00582
      C    4   -0.19248      0.99958     2.18235    0.01055     3.19248
      C    5   -0.01452      0.99956     2.00400    0.01095     3.01452
      C    6   -0.19338      0.99961     2.18633    0.00745     3.19338
      C    7   -0.08281      0.99962     2.07184    0.01135     3.08281
      N    8   -0.28336      0.99968     2.77207    0.01160     3.78336
      C    9   -0.08189      0.99964     2.07146    0.01079     3.08189
      N   10   -0.32197      0.99967     2.81247    0.00983     3.82197
      C   11    0.34823      0.99962     1.62966    0.02249     2.65177
      O   12   -0.31866      0.99988     3.31347    0.00531     4.31866
      C   13   -0.08595      0.99945     2.07570    0.01080     3.08595
      C   14   -0.07068      0.99954     2.06216    0.00898     3.07068
      C   15   -0.14338      0.99952     2.13289    0.01097     3.14338
      C   16    0.17885      0.99939     1.80821    0.01355     2.82115
      C   17   -0.13211      0.99952     2.12257    0.01002     3.13211
      C   18   -0.07004      0.99954     2.06259    0.00790     3.07004
      O   19   -0.33790      0.99988     3.33105    0.00698     4.33790
      H   20    0.09898      0.00000     0.39985    0.00117     0.40102
      H   21    0.09796      0.00000     0.40083    0.00121     0.40204
      H   22    0.10234      0.00000     0.39676    0.00090     0.39766
      H   23    0.09742      0.00000     0.40129    0.00129     0.40258
      H   24    0.08011      0.00000     0.41760    0.00228     0.41989
      H   25    0.09759      0.00000     0.40089    0.00152     0.40241
      H   26    0.10543      0.00000     0.39344    0.00113     0.39457
      H   27    0.10703      0.00000     0.39079    0.00218     0.39297
      H   28    0.10360      0.00000     0.39551    0.00089     0.39640
      H   29    0.09614      0.00000     0.40250    0.00136     0.40386
      H   30    0.08115      0.00000     0.41748    0.00137     0.41885
      H   31    0.09773      0.00000     0.40125    0.00103     0.40227
      H   32    0.07972      0.00000     0.41881    0.00146     0.42028
      H   33    0.09611      0.00000     0.40256    0.00132     0.40389
      H   34    0.18685      0.00000     0.31065    0.00249     0.31315
      H   35    0.10257      0.00000     0.39548    0.00194     0.39743
      H   36    0.10686      0.00000     0.38917    0.00397     0.39314
      H   37    0.10397      0.00000     0.39523    0.00080     0.39603
      H   38    0.10748      0.00000     0.39153    0.00098     0.39252
      H   39    0.24058      0.00000     0.24993    0.00949     0.25942
 =======================================================================
   * Total *   -0.00000     18.99253    50.77093    0.23654    70.00000

 Normal termination of Gaussian 16 at Sun Dec 13 21:53:23 2020.
