 Gaussian 16, Revision A.03,

 -----------------------------------------------------------
 # opt freq B3LYP/6-31G(d) empiricaldispersion=gd3bj scf=xqc
 -----------------------------------------------------------

 -------------------------------
 CID_130144340_JID_6722_neutraal
 -------------------------------
 Symbolic Z-matrix:
 Charge =  0 Multiplicity = 1

 SCF Done:  E(RB3LYP) =  -676.186472787     A.U. after   14 cycles
 SCF Done:  E(RB3LYP) =  -676.189408306     A.U. after   11 cycles
 SCF Done:  E(RB3LYP) =  -676.189982468     A.U. after   11 cycles
 SCF Done:  E(RB3LYP) =  -676.190384158     A.U. after   12 cycles
 SCF Done:  E(RB3LYP) =  -676.190588565     A.U. after   10 cycles
 SCF Done:  E(RB3LYP) =  -676.190663844     A.U. after   11 cycles
 SCF Done:  E(RB3LYP) =  -676.190671382     A.U. after   10 cycles
 SCF Done:  E(RB3LYP) =  -676.190676277     A.U. after    9 cycles
 SCF Done:  E(RB3LYP) =  -676.190677981     A.U. after    9 cycles
 SCF Done:  E(RB3LYP) =  -676.190678366     A.U. after    8 cycles
 SCF Done:  E(RB3LYP) =  -676.190678535     A.U. after    7 cycles
 Optimization completed.
    -- Stationary point found.
 Normal termination of Gaussian 16 at Fri Dec 11 00:22:14 2020.

 --------------------------------------------------------------------
 #N Geom=AllCheck Guess=TCheck SCRF=Check GenChk RB3LYP/6-31G(d) Freq
 --------------------------------------------------------------------

 Structure from the checkpoint file:  "JID_6722.chk"
 -------------------------------
 CID_130144340_JID_6722_neutraal
 -------------------------------
 Charge =  0 Multiplicity = 1

 SCF Done:  E(RB3LYP) =  -676.190678535     A.U. after    1 cycles

  Exact polarizability: 202.143  -1.604 159.461   9.456   3.693 106.212
 Approx polarizability: 265.562  -0.717 250.435  19.167   8.393 160.160

                      1                      2                      3
                      A                      A                      A
 Frequencies --     24.5395                52.8215                75.8249
 Red. masses --      3.3314                 3.1085                 2.6133
 Frc consts  --      0.0012                 0.0051                 0.0089
 IR Inten    --      0.0357                 0.3234                 0.6242

                      4                      5                      6
                      A                      A                      A
 Frequencies --    110.8090               119.7309               138.0529
 Red. masses --      2.6761                 2.5935                 1.2508
 Frc consts  --      0.0194                 0.0219                 0.0140
 IR Inten    --      1.7385                 1.2496                 1.1487

                      7                      8                      9
                      A                      A                      A
 Frequencies --    164.3409               222.6983               228.0028
 Red. masses --      2.9662                 1.4170                 2.8508
 Frc consts  --      0.0472                 0.0414                 0.0873
 IR Inten    --      0.8126                 3.2413                 0.5254

                     10                     11                     12
                      A                      A                      A
 Frequencies --    238.5602               250.1557               253.0138
 Red. masses --      1.9608                 1.2404                 2.1458
 Frc consts  --      0.0657                 0.0457                 0.0809
 IR Inten    --      0.5470                 1.4141                 1.0444

                     13                     14                     15
                      A                      A                      A
 Frequencies --    288.7229               297.3825               309.0117
 Red. masses --      2.5997                 1.6457                 2.3900
 Frc consts  --      0.1277                 0.0857                 0.1345
 IR Inten    --      5.3108                23.7721                 5.8786

                     16                     17                     18
                      A                      A                      A
 Frequencies --    319.5735               366.0568               370.6069
 Red. masses --      1.8691                 2.5750                 3.9109
 Frc consts  --      0.1125                 0.2033                 0.3165
 IR Inten    --      9.9053                18.5763                 1.6960

                     19                     20                     21
                      A                      A                      A
 Frequencies --    420.9982               456.8236               493.0134
 Red. masses --      2.7921                 3.4249                 3.4290
 Frc consts  --      0.2916                 0.4211                 0.4911
 IR Inten    --      6.5226                 0.6000                 1.5392

                     22                     23                     24
                      A                      A                      A
 Frequencies --    507.9029               524.9669               539.8693
 Red. masses --      3.5386                 3.8955                 4.7765
 Frc consts  --      0.5378                 0.6325                 0.8202
 IR Inten    --      4.4520                 0.0351                 2.9698

                     25                     26                     27
                      A                      A                      A
 Frequencies --    579.8262               599.2191               640.6232
 Red. masses --      3.0168                 2.5457                 2.4794
 Frc consts  --      0.5976                 0.5386                 0.5995
 IR Inten    --      4.5481                10.2354                 0.2343

                     28                     29                     30
                      A                      A                      A
 Frequencies --    690.7337               737.1663               765.4834
 Red. masses --      3.7032                 4.9921                 3.5922
 Frc consts  --      1.0410                 1.5983                 1.2402
 IR Inten    --      9.6194                 3.4715                 5.8809

                     31                     32                     33
                      A                      A                      A
 Frequencies --    792.6728               871.9408               890.4352
 Red. masses --      2.9239                 1.6031                 1.9736
 Frc consts  --      1.0824                 0.7181                 0.9219
 IR Inten    --     14.8309                 1.8779                11.0632

                     34                     35                     36
                      A                      A                      A
 Frequencies --    904.9351               909.2736               916.6258
 Red. masses --      1.6472                 1.7740                 1.5053
 Frc consts  --      0.7947                 0.8641                 0.7452
 IR Inten    --     72.9562                37.5501                 3.6716

                     37                     38                     39
                      A                      A                      A
 Frequencies --    934.2802               941.2966               945.7045
 Red. masses --      1.6929                 1.6714                 1.8210
 Frc consts  --      0.8706                 0.8725                 0.9596
 IR Inten    --     18.2052                 1.3183                 6.1448

                     40                     41                     42
                      A                      A                      A
 Frequencies --    978.0320               981.0403              1015.8651
 Red. masses --      1.4900                 2.0941                 2.7395
 Frc consts  --      0.8397                 1.1874                 1.6657
 IR Inten    --      1.0853                60.7650                11.0385

                     43                     44                     45
                      A                      A                      A
 Frequencies --   1032.2240              1049.4522              1075.0099
 Red. masses --      1.7093                 1.7095                 1.4887
 Frc consts  --      1.0730                 1.1093                 1.0137
 IR Inten    --     12.1180                 1.5571                 1.4030

                     46                     47                     48
                      A                      A                      A
 Frequencies --   1081.6575              1095.3678              1115.2334
 Red. masses --      2.4815                 2.8613                 1.6909
 Frc consts  --      1.7106                 2.0227                 1.2391
 IR Inten    --     14.5688                27.7107                 2.0610

                     49                     50                     51
                      A                      A                      A
 Frequencies --   1121.9545              1152.1114              1192.7218
 Red. masses --      1.8930                 1.8049                 1.6910
 Frc consts  --      1.4039                 1.4115                 1.4173
 IR Inten    --     10.0375                14.5409                67.4102

                     52                     53                     54
                      A                      A                      A
 Frequencies --   1213.2350              1216.6082              1224.4792
 Red. masses --      1.8320                 1.9757                 1.2987
 Frc consts  --      1.5888                 1.7230                 1.1472
 IR Inten    --     39.6320                 4.6267                 1.8589

                     55                     56                     57
                      A                      A                      A
 Frequencies --   1241.4079              1265.9076              1290.3000
 Red. masses --      1.5160                 2.3662                 1.4539
 Frc consts  --      1.3765                 2.2341                 1.4261
 IR Inten    --      8.8513               103.8346                 7.1156

                     58                     59                     60
                      A                      A                      A
 Frequencies --   1307.7339              1317.2426              1333.4838
 Red. masses --      1.3080                 1.2148                 2.6370
 Frc consts  --      1.3179                 1.2419                 2.7627
 IR Inten    --      3.1692                23.4530                31.5395

                     61                     62                     63
                      A                      A                      A
 Frequencies --   1360.1160              1369.5418              1377.4196
 Red. masses --      3.0511                 1.5735                 1.8124
 Frc consts  --      3.3255                 1.7389                 2.0260
 IR Inten    --     20.6617                 5.3714                 7.0105

                     64                     65                     66
                      A                      A                      A
 Frequencies --   1383.7564              1392.2507              1426.7727
 Red. masses --      1.4705                 1.4465                 1.2902
 Frc consts  --      1.6589                 1.6520                 1.5475
 IR Inten    --      6.7710                 4.3107                 8.3760

                     67                     68                     69
                      A                      A                      A
 Frequencies --   1430.8362              1436.9245              1443.6066
 Red. masses --      1.3718                 1.3725                 1.2775
 Frc consts  --      1.6547                 1.6697                 1.5686
 IR Inten    --     23.8111                19.2170                 0.5238

                     70                     71                     72
                      A                      A                      A
 Frequencies --   1449.1677              1474.1248              1500.7610
 Red. masses --      1.3051                 3.1786                 1.5339
 Frc consts  --      1.6149                 4.0697                 2.0356
 IR Inten    --      4.3759                 2.6482                32.9335

                     73                     74                     75
                      A                      A                      A
 Frequencies --   1508.2037              1509.8223              1518.3265
 Red. masses --      1.0476                 1.1711                 1.0489
 Frc consts  --      1.4040                 1.5729                 1.4247
 IR Inten    --      3.5492                16.7359                 0.6428

                     76                     77                     78
                      A                      A                      A
 Frequencies --   1519.6533              1528.8105              1535.0364
 Red. masses --      1.1472                 1.0529                 1.1424
 Frc consts  --      1.5610                 1.4499                 1.5861
 IR Inten    --      8.0723                 0.4294                15.4331

                     79                     80                     81
                      A                      A                      A
 Frequencies --   1536.9068              1541.9460              1546.0901
 Red. masses --      1.0427                 1.0529                 1.5511
 Frc consts  --      1.4511                 1.4749                 2.1845
 IR Inten    --      9.2371                 3.1002                75.7643

                     82                     83                     84
                      A                      A                      A
 Frequencies --   1651.2159              1669.7068              1695.0952
 Red. masses --      7.6803                 5.7640                 1.0923
 Frc consts  --     12.3377                 9.4679                 1.8492
 IR Inten    --      1.3751                 5.6340                24.7147

                     85                     86                     87
                      A                      A                      A
 Frequencies --   3012.0948              3017.0790              3021.7115
 Red. masses --      1.0711                 1.0835                 1.0694
 Frc consts  --      5.7257                 5.8112                 5.7532
 IR Inten    --     46.9953                30.7911                42.0310

                     88                     89                     90
                      A                      A                      A
 Frequencies --   3037.2033              3041.1615              3044.9301
 Red. masses --      1.0378                 1.0764                 1.0440
 Frc consts  --      5.6405                 5.8654                 5.7031
 IR Inten    --     34.8710                 6.2738                38.8667

                     91                     92                     93
                      A                      A                      A
 Frequencies --   3047.8523              3056.0685              3076.4024
 Red. masses --      1.0363                 1.0623                 1.0911
 Frc consts  --      5.6719                 5.8457                 6.0843
 IR Inten    --     34.0878                20.4852                33.3044

                     94                     95                     96
                      A                      A                      A
 Frequencies --   3098.5973              3099.0630              3102.3061
 Red. masses --      1.1002                 1.1003                 1.1047
 Frc consts  --      6.2238                 6.2261                 6.2640
 IR Inten    --     17.2160                18.9717                46.8607

                     97                     98                     99
                      A                      A                      A
 Frequencies --   3103.7868              3111.7436              3119.9830
 Red. masses --      1.0996                 1.1006                 1.0954
 Frc consts  --      6.2413                 6.2788                 6.2825
 IR Inten    --     40.9319                46.8183                49.1452

                    100                    101                    102
                      A                      A                      A
 Frequencies --   3129.8523              3130.9303              3164.1795
 Red. masses --      1.1016                 1.1025                 1.0887
 Frc consts  --      6.3581                 6.3674                 6.4224
 IR Inten    --     29.8727                19.7433                19.9335

                    103                    104                    105
                      A                      A                      A
 Frequencies --   3215.9564              3473.3817              3564.3297
 Red. masses --      1.0890                 1.0500                 1.0913
 Frc consts  --      6.6361                 7.4638                 8.1683
 IR Inten    --      5.1954                 0.9951                 0.7545

 - Thermochemistry -
 -------------------
 Temperature   298.150 Kelvin.  Pressure   1.00000 Atm.
 Atom     1 has atomic number  6 and mass  12.00000

 Molecular mass:   219.16231 amu.
 Principal axes and moments of inertia in atomic units:
                           1         2         3
     Eigenvalues --  1820.979885974.469797109.64429
           X            0.99999   0.00127  -0.00359
           Y           -0.00125   0.99997   0.00730
           Z            0.00359  -0.00729   0.99997
 This molecule is an asymmetric top.
 Rotational symmetry number  1.
 Warning -- assumption of classical behavior for rotation
           may cause significant error
 Rotational temperatures (Kelvin)      0.04756     0.01450     0.01218
 Rotational constants (GHZ):           0.99108     0.30208     0.25384
 Zero-point vibrational energy     865315.6 (Joules/Mol)
                                  206.81539 (Kcal/Mol)
 Warning -- explicit consideration of  26 degrees of freedom as
           vibrations may cause significant error
 Vibrational temperatures:     35.31    76.00   109.10   159.43   172.27
          (Kelvin)            198.63   236.45   320.41   328.05   343.23
                              359.92   364.03   415.41   427.87   444.60
                              459.79   526.67   533.22   605.72   657.27
                              709.34   730.76   755.31   776.75   834.24
                              862.14   921.71   993.81  1060.62  1101.36
                             1140.48  1254.53  1281.14  1302.00  1308.24
                             1318.82  1344.22  1354.32  1360.66  1407.17
                             1411.50  1461.60  1485.14  1509.93  1546.70
                             1556.26  1575.99  1604.57  1614.24  1657.63
                             1716.06  1745.57  1750.43  1761.75  1786.11
                             1821.36  1856.45  1881.54  1895.22  1918.59
                             1956.90  1970.47  1981.80  1990.92  2003.14
                             2052.81  2058.65  2067.41  2077.03  2085.03
                             2120.94  2159.26  2169.97  2172.30  2184.53
                             2186.44  2199.62  2208.57  2211.27  2218.52
                             2224.48  2375.73  2402.34  2438.86  4333.73
                             4340.90  4347.57  4369.86  4375.55  4380.98
                             4385.18  4397.00  4426.26  4458.19  4458.86
                             4463.53  4465.66  4477.10  4488.96  4503.16
                             4504.71  4552.55  4627.04  4997.42  5128.28

 Zero-point correction=                           0.329581 (Hartree/Particle)
 Thermal correction to Energy=                    0.345722
 Thermal correction to Enthalpy=                  0.346666
 Thermal correction to Gibbs Free Energy=         0.286202
 Sum of electronic and zero-point Energies=           -675.861097
 Sum of electronic and thermal Energies=              -675.844957
 Sum of electronic and thermal Enthalpies=            -675.844013
 Sum of electronic and thermal Free Energies=         -675.904477

                     E (Thermal)             CV                S
                      KCal/Mol        Cal/Mol-Kelvin    Cal/Mol-Kelvin
 Total                  216.944             62.839            127.257
 Electronic               0.000              0.000              0.000
 Translational            0.889              2.981             42.057
 Rotational               0.889              2.981             32.714
 Vibrational            215.166             56.878             52.486
 Vibration     1          0.593              1.985              6.228
 Vibration     2          0.596              1.976              4.709
 Vibration     3          0.599              1.965              3.996
 Vibration     4          0.607              1.941              3.255
 Vibration     5          0.609              1.933              3.105
 Vibration     6          0.614              1.915              2.831
 Vibration     7          0.623              1.886              2.499
 Vibration     8          0.648              1.807              1.937
 Vibration     9          0.651              1.798              1.895
 Vibration    10          0.657              1.782              1.814
 Vibration    11          0.663              1.762              1.729
 Vibration    12          0.664              1.758              1.709
 Vibration    13          0.685              1.695              1.481
 Vibration    14          0.691              1.679              1.432
 Vibration    15          0.698              1.657              1.368
 Vibration    16          0.706              1.636              1.312
 Vibration    17          0.739              1.542              1.096
 Vibration    18          0.743              1.533              1.077
 Vibration    19          0.784              1.425              0.889
 Vibration    20          0.815              1.346              0.775
 Vibration    21          0.849              1.266              0.676
 Vibration    22          0.863              1.232              0.639
 Vibration    23          0.880              1.195              0.599
 Vibration    24          0.895              1.162              0.566
 Vibration    25          0.936              1.075              0.486
 Vibration    26          0.957              1.033              0.451

 Optimization completed.
    -- Stationary point found.
 Normal termination of Gaussian 16 at Fri Dec 11 00:34:12 2020.

 ----------------------------------------------------------------------
 # B3LYP/6-311++G(d,p) empiricaldispersion=gd3bj scf=xqc pop=npa geom=c
 heck
 ----------------------------------------------------------------------

 ---------------------------------------
 CID_130144340_JID_6722_Energie_neutraal
 ---------------------------------------
 Structure from the checkpoint file:  "JID_6722.chk"
 Charge =  0 Multiplicity = 1

 SCF Done:  E(RB3LYP) =  -676.376163351     A.U. after   14 cycles
 Normal termination of Gaussian 16 at Fri Dec 11 00:39:20 2020.

 ----------------------------------------------------------------------
 # B3LYP/6-311++G(d,p) empiricaldispersion=gd3bj scf=xqc pop=npa geom=c
 heck
 ----------------------------------------------------------------------

 -------------------------------------
 CID_130144340_JID_6722_Energie_kation
 -------------------------------------
 Structure from the checkpoint file:  "JID_6722.chk"
 Charge =  1 Multiplicity = 2

 SCF Done:  E(UB3LYP) =  -676.104577006     A.U. after   25 cycles
 Normal termination of Gaussian 16 at Fri Dec 11 00:51:29 2020.
 Gaussian 16:  ES64L-G16RevA.03 25-Dec-2016

 ----------------------------------------------------------------------
 # B3LYP/6-311++G(d,p) empiricaldispersion=gd3bj scf=xqc pop=npa geom=c
 heck
 ----------------------------------------------------------------------

 ------------------------------------
 CID_130144340_JID_6722_Energie_anion
 ------------------------------------
 Structure from the checkpoint file:  "JID_6722.chk"
 Charge = -1 Multiplicity = 2

                         Standard orientation:
 ---------------------------------------------------------------------
 Center     Atomic      Atomic             Coordinates (Angstroms)
 Number     Number       Type             X           Y           Z
 ---------------------------------------------------------------------
      1          6           0        1.685289    2.933202    0.225160
      2          6           0        1.043188    1.590545   -0.005806
      3          6           0       -0.322401    1.462041   -0.257360
      4          6           0       -0.924169    0.217500   -0.474968
      5          6           0       -0.104175   -0.912811   -0.464107
      6          6           0        1.269213   -0.833474   -0.220571
      7          6           0        1.830236    0.428015    0.022433
      8          8           0        3.170127    0.618125    0.262997
      9          6           0        3.939197   -0.548817    0.557621
     10          6           0        3.616903   -1.689923   -0.398300
     11          6           0        2.142390   -2.070848   -0.236367
     12          6           0       -2.421964    0.077790   -0.722578
     13          6           0       -3.079165   -0.898536    0.302772
     14          6           0       -2.953095   -0.397019    1.745652
     15          6           0       -4.541176   -1.184564   -0.058261
     16          7           0       -3.062964    1.396477   -0.803538
     17          1           0        2.187391    2.971912    1.199028
     18          1           0        0.939125    3.732185    0.186016
     19          1           0        2.454533    3.141608   -0.527994
     20          1           0       -0.930902    2.358078   -0.312129
     21          1           0       -0.530385   -1.893826   -0.665424
     22          1           0        3.742081   -0.856983    1.595928
     23          1           0        4.982404   -0.231128    0.484774
     24          1           0        3.814378   -1.356883   -1.424452
     25          1           0        4.272081   -2.544391   -0.194051
     26          1           0        1.824049   -2.742068   -1.042763
     27          1           0        2.013824   -2.632984    0.700162
     28          1           0       -2.554462   -0.375922   -1.715486
     29          1           0       -2.531549   -1.847452    0.232249
     30          1           0       -3.508286    0.538329    1.893094
     31          1           0       -3.365561   -1.129231    2.448495
     32          1           0       -1.907530   -0.215613    2.013009
     33          1           0       -4.635951   -1.548591   -1.088863
     34          1           0       -4.967544   -1.943607    0.606931
     35          1           0       -5.160207   -0.284085    0.038990
     36          1           0       -4.022429    1.287916   -1.123414
     37          1           0       -3.116954    1.813783    0.124766
 ---------------------------------------------------------------------

 SCF Done:  E(UB3LYP) =  -676.363041545     A.U. after   32 cycles

 The electronic state is 2-A.
 Alpha  occ. eigenvalues --  -19.05197 -14.19731 -10.12955 -10.12746 -10.10525
 Alpha  occ. eigenvalues --  -10.08109 -10.08082 -10.08006 -10.07908 -10.07729
 Alpha  occ. eigenvalues --  -10.07380 -10.07313 -10.06993 -10.06628 -10.06251
 Alpha  occ. eigenvalues --  -10.06056  -0.96918  -0.80055  -0.75752  -0.71655
 Alpha  occ. eigenvalues --   -0.69447  -0.66826  -0.66274  -0.59377  -0.59021
 Alpha  occ. eigenvalues --   -0.58560  -0.55942  -0.52941  -0.49370  -0.46900
 Alpha  occ. eigenvalues --   -0.44894  -0.42335  -0.41240  -0.39799  -0.38055
 Alpha  occ. eigenvalues --   -0.36597  -0.35531  -0.34371  -0.34210  -0.33218
 Alpha  occ. eigenvalues --   -0.32598  -0.32400  -0.32296  -0.30119  -0.29837
 Alpha  occ. eigenvalues --   -0.29426  -0.28707  -0.28568  -0.28053  -0.26305
 Alpha  occ. eigenvalues --   -0.25410  -0.24409  -0.24137  -0.23671  -0.22946
 Alpha  occ. eigenvalues --   -0.21763  -0.20974  -0.15125  -0.14289  -0.11703
 Alpha  occ. eigenvalues --    0.04110
 Alpha virt. eigenvalues --    0.05507   0.06921   0.07415   0.07648   0.07972
 Alpha virt. eigenvalues --    0.08310   0.08512   0.09243   0.09672   0.09968
 Alpha virt. eigenvalues --    0.10286   0.10838   0.11007   0.11632   0.11747

  Beta  occ. eigenvalues --  -19.05198 -14.19704 -10.12930 -10.12736 -10.10517
  Beta  occ. eigenvalues --  -10.08106 -10.08065 -10.08005 -10.07882 -10.07723
  Beta  occ. eigenvalues --  -10.07378 -10.07306 -10.06989 -10.06619 -10.06211
  Beta  occ. eigenvalues --  -10.06031  -0.96912  -0.80011  -0.75734  -0.71625
  Beta  occ. eigenvalues --   -0.69412  -0.66806  -0.66245  -0.59355  -0.58960
  Beta  occ. eigenvalues --   -0.58521  -0.55901  -0.52895  -0.49340  -0.46846
  Beta  occ. eigenvalues --   -0.44854  -0.42313  -0.41208  -0.39767  -0.38025
  Beta  occ. eigenvalues --   -0.36565  -0.35488  -0.34341  -0.34177  -0.33189
  Beta  occ. eigenvalues --   -0.32573  -0.32374  -0.32269  -0.30099  -0.29808
  Beta  occ. eigenvalues --   -0.29395  -0.28676  -0.28549  -0.28024  -0.26276
  Beta  occ. eigenvalues --   -0.25381  -0.24376  -0.24101  -0.23640  -0.22917
  Beta  occ. eigenvalues --   -0.21742  -0.20953  -0.15095  -0.14268  -0.11680
  Beta virt. eigenvalues --    0.06113   0.06650   0.07240   0.07712   0.08211
  Beta virt. eigenvalues --    0.08413   0.08545   0.08766   0.09513   0.10000
  Beta virt. eigenvalues --    0.10263   0.10653   0.11132   0.11183   0.11748

 Mulliken charges and spin densities:
               1          2
     1  C    0.153995  -0.614887
     2  C   -0.091119   0.155397
     3  C   -0.592707   0.100494
     4  C    1.336994  -0.655545
     5  C   -0.345718   0.000071
     6  C    0.836632   0.263560
     7  C   -1.068691  -0.315408
     8  O   -0.147394   0.056495
     9  C    0.607150  -0.836502
    10  C   -0.369543   0.009136
    11  C   -0.004220  -0.555123
    12  C    0.419929  -0.326340
    13  C   -1.326741   1.706328
    14  C    0.535434  -1.333745
    15  C    0.751712  -1.384218
    16  N   -0.280069  -0.139304
    17  H    0.100509   0.070404
    18  H    0.034937   0.106097
    19  H    0.134713   0.030897
    20  H    0.068817   0.061766
    21  H    0.016152   0.131195
    22  H    0.000568   0.152332
    23  H   -0.378719   0.569781
    24  H    0.211088  -0.058283
    25  H   -0.689697   0.873523
    26  H   -0.133601   0.289185
    27  H   -0.047989   0.244877
    28  H    0.063523   0.145147
    29  H   -0.184009   0.311306
    30  H   -0.090762   0.219427
    31  H   -0.100741   0.248571
    32  H    0.160190  -0.014177
    33  H   -0.266647   0.407015
    34  H   -0.248611   0.393122
    35  H   -0.125544   0.266384
    36  H   -0.013506   0.292006
    37  H    0.073683   0.129014
 Sum of Mulliken charges =  -1.00000   1.00000

 Dipole moment (field-independent basis, Debye):
    X=              0.8675    Y=              3.4688    Z=             -0.3263  Tot=              3.5905
 Quadrupole moment (field-independent basis, Debye-Ang):
   XX=           -202.4669   YY=           -145.3874   ZZ=           -130.1756
   XY=              7.1456   XZ=             -4.2699   YZ=              4.2010

 Summary of Natural Population Analysis:

                                       Natural Population
                Natural  -----------------------------------------------
    Atom  No    Charge         Core      Valence    Rydberg      Total
 -----------------------------------------------------------------------
      C    1   -0.28993      0.99964     2.28530    0.00499     3.28993
      C    2   -0.03132      0.99948     2.02368    0.00816     3.03132
      C    3   -0.09839      0.99947     2.09088    0.00804     3.09839
      C    4   -0.02075      0.99950     2.01105    0.01020     3.02075
      C    5   -0.09442      0.99948     2.08663    0.00831     3.09442
      C    6   -0.04241      0.99948     2.03407    0.00886     3.04241
      C    7    0.15691      0.99928     1.83119    0.01262     2.84309
      O    8   -0.28191      0.99986     3.27307    0.00898     4.28191
      C    9   -0.00612      0.99957     1.99391    0.01264     3.00612
      C   10   -0.20339      0.99964     2.19565    0.00811     3.20339
      C   11   -0.19474      0.99960     2.18585    0.00928     3.19474
      C   12   -0.01371      0.99954     2.00008    0.01409     3.01371
      C   13   -0.11719      0.99960     2.10698    0.01061     3.11719
      C   14   -0.28938      0.99964     2.28436    0.00537     3.28938
      C   15   -0.28758      0.99965     2.28139    0.00655     3.28758
      N   16   -0.42285      0.99977     2.91257    0.01051     3.92285
      H   17    0.10466      0.00000     0.39389    0.00145     0.39534
      H   18    0.09839      0.00000     0.40076    0.00085     0.40161
      H   19    0.10406      0.00000     0.39459    0.00134     0.39594
      H   20    0.10585      0.00000     0.39286    0.00129     0.39415
      H   21    0.09813      0.00000     0.40010    0.00177     0.40187
      H   22    0.08168      0.00000     0.41683    0.00149     0.41832
      H   23    0.09294      0.00000     0.40564    0.00142     0.40706
      H   24    0.09724      0.00000     0.40156    0.00120     0.40276
      H   25    0.10657      0.00000     0.39092    0.00252     0.39343
      H   26    0.10503      0.00000     0.39385    0.00112     0.39497
      H   27    0.10373      0.00000     0.39482    0.00145     0.39627
      H   28    0.09658      0.00000     0.40180    0.00162     0.40342
      H   29    0.09621      0.00000     0.40169    0.00210     0.40379
      H   30    0.09282      0.00000     0.40592    0.00125     0.40718
      H   31    0.10087      0.00000     0.39822    0.00091     0.39913
      H   32    0.10551      0.00000     0.39341    0.00108     0.39449
      H   33    0.09909      0.00000     0.39958    0.00133     0.40091
      H   34    0.10164      0.00000     0.39730    0.00105     0.39836
      H   35    0.09543      0.00000     0.40307    0.00150     0.40457
      H   36    0.17861      0.00000     0.31968    0.00172     0.32139
      H   37    0.17212      0.00000     0.32605    0.00183     0.32788
 =======================================================================
   * Total *    0.00000     15.99320    43.82920    0.17761    60.00000

 Normal termination of Gaussian 16 at Fri Dec 11 01:06:55 2020.
