 Gaussian 16, Revision A.03,

 -----------------------------------------------------------
 # opt freq B3LYP/6-31G(d) empiricaldispersion=gd3bj scf=xqc
 -----------------------------------------------------------

 -------------------------------
 CID_150347630_JID_5674_neutraal
 -------------------------------
 Symbolic Z-matrix:
 Charge =  0 Multiplicity = 1

 SCF Done:  E(RB3LYP) =  -693.792445188     A.U. after   13 cycles
 SCF Done:  E(RB3LYP) =  -693.794982237     A.U. after   12 cycles
 SCF Done:  E(RB3LYP) =  -693.795097116     A.U. after   12 cycles
 SCF Done:  E(RB3LYP) =  -693.795507294     A.U. after   11 cycles
 SCF Done:  E(RB3LYP) =  -693.795630523     A.U. after   11 cycles
 SCF Done:  E(RB3LYP) =  -693.795724063     A.U. after   11 cycles
 SCF Done:  E(RB3LYP) =  -693.795759363     A.U. after   10 cycles
 SCF Done:  E(RB3LYP) =  -693.795784620     A.U. after   10 cycles
 SCF Done:  E(RB3LYP) =  -693.795791771     A.U. after   10 cycles
 SCF Done:  E(RB3LYP) =  -693.795792124     A.U. after    8 cycles
 SCF Done:  E(RB3LYP) =  -693.801953807     A.U. after    8 cycles
 SCF Done:  E(RB3LYP) =  -693.801953966     A.U. after    7 cycles
 SCF Done:  E(RB3LYP) =  -693.801953944     A.U. after    7 cycles
 SCF Done:  E(RB3LYP) =  -693.801953927     A.U. after    6 cycles
 Optimization completed.
    -- Stationary point found.
 Normal termination of Gaussian 16 at Thu Dec 10 17:10:36 2020.

 --------------------------------------------------------------------
 #N Geom=AllCheck Guess=TCheck SCRF=Check GenChk RB3LYP/6-31G(d) Freq
 --------------------------------------------------------------------

 Structure from the checkpoint file:  "JID_5674.chk"
 -------------------------------
 CID_150347630_JID_5674_neutraal
 -------------------------------
 Charge =  0 Multiplicity = 1

 SCF Done:  E(RB3LYP) =  -693.801953927     A.U. after    1 cycles

  Exact polarizability: 165.454  22.582 102.059   2.804   0.162 128.251
 Approx polarizability: 206.528  38.044 150.001   3.557  -4.217 213.425

                      1                      2                      3
                      A                      A                      A
 Frequencies --     18.1488                28.2241                38.9033
 Red. masses --      4.3508                 3.9983                 4.2833
 Frc consts  --      0.0008                 0.0019                 0.0038
 IR Inten    --      0.2618                 0.3060                 0.1770

                      4                      5                      6
                      A                      A                      A
 Frequencies --     84.8642                91.0872                97.8893
 Red. masses --      3.5100                 3.3302                 3.6086
 Frc consts  --      0.0149                 0.0163                 0.0204
 IR Inten    --      0.5866                 0.7323                 3.3944

                      7                      8                      9
                      A                      A                      A
 Frequencies --    118.3429               153.5002               192.2373
 Red. masses --      2.3255                 2.6705                 3.8123
 Frc consts  --      0.0192                 0.0371                 0.0830
 IR Inten    --      9.6068                 1.0896                 4.7555

                     10                     11                     12
                      A                      A                      A
 Frequencies --    219.4873               239.0303               246.1581
 Red. masses --      2.9689                 1.6027                 2.9696
 Frc consts  --      0.0843                 0.0540                 0.1060
 IR Inten    --      1.6807                 3.3895                 6.4288

                     13                     14                     15
                      A                      A                      A
 Frequencies --    293.5370               321.2137               344.8849
 Red. masses --      3.5029                 2.4977                 2.6887
 Frc consts  --      0.1778                 0.1518                 0.1884
 IR Inten    --      2.1970                 1.9856                 2.8900

                     16                     17                     18
                      A                      A                      A
 Frequencies --    415.0085               417.8785               452.1443
 Red. masses --      3.8738                 3.1793                 2.8359
 Frc consts  --      0.3931                 0.3271                 0.3416
 IR Inten    --      0.4366                 0.8229                 1.5967

                     19                     20                     21
                      A                      A                      A
 Frequencies --    481.5354               520.7666               576.6805
 Red. masses --      3.3824                 3.0764                 1.1246
 Frc consts  --      0.4621                 0.4916                 0.2204
 IR Inten    --      6.7789                 6.5891               112.4055

                     22                     23                     24
                      A                      A                      A
 Frequencies --    622.5332               636.1611               669.0287
 Red. masses --      3.8901                 6.3310                 3.2925
 Frc consts  --      0.8883                 1.5096                 0.8683
 IR Inten    --     23.6900                 0.0458                24.7571

                     25                     26                     27
                      A                      A                      A
 Frequencies --    714.0729               754.3491               822.9947
 Red. masses --      2.2339                 1.5709                 3.9560
 Frc consts  --      0.6711                 0.5267                 1.5787
 IR Inten    --     14.4033                42.0876                 2.7689

                     28                     29                     30
                      A                      A                      A
 Frequencies --    847.8529               865.3323               913.4285
 Red. masses --      2.8289                 1.2485                 1.4913
 Frc consts  --      1.1981                 0.5508                 0.7331
 IR Inten    --      2.3214                 0.2687                 7.4575

                     31                     32                     33
                      A                      A                      A
 Frequencies --    923.2991               957.5410               971.4883
 Red. masses --      1.3824                 1.8411                 1.3443
 Frc consts  --      0.6943                 0.9946                 0.7475
 IR Inten    --      7.7418                15.3547                 0.2853

                     34                     35                     36
                      A                      A                      A
 Frequencies --    990.8355               997.3524              1001.1193
 Red. masses --      2.2626                 1.4658                 2.6032
 Frc consts  --      1.3088                 0.8590                 1.5372
 IR Inten    --      2.1426                 2.1601                16.1514

                     37                     38                     39
                      A                      A                      A
 Frequencies --   1010.2921              1021.5416              1046.1595
 Red. masses --      2.1489                 6.0066                 2.3621
 Frc consts  --      1.2923                 3.6931                 1.5232
 IR Inten    --     11.8076                 1.9932                12.1941

                     40                     41                     42
                      A                      A                      A
 Frequencies --   1060.1063              1100.0652              1116.4637
 Red. masses --      2.1558                 2.2308                 1.5919
 Frc consts  --      1.4275                 1.5905                 1.1691
 IR Inten    --      2.7740                91.8770                 8.4287

                     43                     44                     45
                      A                      A                      A
 Frequencies --   1139.5098              1150.3394              1157.6454
 Red. masses --      4.0504                 3.5484                 2.7518
 Frc consts  --      3.0987                 2.7666                 2.1728
 IR Inten    --    191.8907                41.6114               118.9651

                     46                     47                     48
                      A                      A                      A
 Frequencies --   1169.2654              1193.3829              1196.6978
 Red. masses --      2.7615                 1.1023                 1.3232
 Frc consts  --      2.2244                 0.9249                 1.1165
 IR Inten    --     65.7952                 0.1166                 4.8342

                     49                     50                     51
                      A                      A                      A
 Frequencies --   1209.9843              1231.5595              1233.2329
 Red. masses --      1.1457                 2.5426                 1.5938
 Frc consts  --      0.9883                 2.2721                 1.4281
 IR Inten    --      1.1662                26.9012                14.2452

                     52                     53                     54
                      A                      A                      A
 Frequencies --   1246.5965              1278.8993              1286.5882
 Red. masses --      1.2410                 1.1749                 1.2710
 Frc consts  --      1.1363                 1.1322                 1.2396
 IR Inten    --      6.2755                 5.6294                 2.8465

                     55                     56                     57
                      A                      A                      A
 Frequencies --   1304.2219              1345.1232              1353.2866
 Red. masses --      1.2768                 1.4077                 1.7582
 Frc consts  --      1.2796                 1.5007                 1.8971
 IR Inten    --     23.7168                 0.0367                10.8360

                     58                     59                     60
                      A                      A                      A
 Frequencies --   1366.9364              1377.4620              1409.1937
 Red. masses --      2.1004                 1.3668                 1.2810
 Frc consts  --      2.3123                 1.5280                 1.4988
 IR Inten    --      1.0481                 7.4379                36.8092

                     61                     62                     63
                      A                      A                      A
 Frequencies --   1420.3215              1437.4623              1447.3313
 Red. masses --      1.3173                 1.2413                 1.4685
 Frc consts  --      1.5656                 1.5112                 1.8125
 IR Inten    --     11.8918                47.9299                 8.3475

                     64                     65                     66
                      A                      A                      A
 Frequencies --   1457.0375              1503.3576              1504.0987
 Red. masses --      1.3310                 1.2588                 1.8780
 Frc consts  --      1.6648                 1.6762                 2.5032
 IR Inten    --     24.4567                 6.3078                 6.4066

                     67                     68                     69
                      A                      A                      A
 Frequencies --   1515.0953              1515.7807              1531.9972
 Red. masses --      1.0478                 1.1045                 1.0615
 Frc consts  --      1.4171                 1.4952                 1.4679
 IR Inten    --      5.9177                 2.4298                13.0694

                     70                     71                     72
                      A                      A                      A
 Frequencies --   1532.4947              1547.5174              1551.1788
 Red. masses --      1.0841                 2.1861                 1.0858
 Frc consts  --      1.5001                 3.0846                 1.5394
 IR Inten    --      1.9451                 5.6074                 0.0652

                     73                     74                     75
                      A                      A                      A
 Frequencies --   1556.8160              1649.3406              1668.8714
 Red. masses --      1.0832                 5.6014                 5.5735
 Frc consts  --      1.5469                 8.9777                 9.1459
 IR Inten    --      3.6011                 0.5643                 1.0560

                     76                     77                     78
                      A                      A                      A
 Frequencies --   2994.3581              2996.0269              3001.7177
 Red. masses --      1.0441                 1.0626                 1.0633
 Frc consts  --      5.5158                 5.6195                 5.6445
 IR Inten    --     40.4551                41.8387                30.0388

                     79                     80                     81
                      A                      A                      A
 Frequencies --   3005.4800              3036.3073              3043.7858
 Red. masses --      1.0608                 1.0816                 1.0786
 Frc consts  --      5.6459                 5.8750                 5.8878
 IR Inten    --     68.8843                10.9459                16.1546

                     82                     83                     84
                      A                      A                      A
 Frequencies --   3044.8824              3055.5753              3070.1009
 Red. masses --      1.1035                 1.0880                 1.0962
 Frc consts  --      6.0277                 5.9852                 6.0876
 IR Inten    --     60.2272                68.3124                58.6206

                     85                     86                     87
                      A                      A                      A
 Frequencies --   3076.0475              3094.3321              3138.8499
 Red. masses --      1.0946                 1.1052                 1.0978
 Frc consts  --      6.1022                 6.2350                 6.3724
 IR Inten    --     29.2467                47.7741                33.5421

                     88                     89                     90
                      A                      A                      A
 Frequencies --   3174.2748              3183.9013              3194.0870
 Red. masses --      1.0867                 1.0865                 1.0907
 Frc consts  --      6.4511                 6.4892                 6.5560
 IR Inten    --      8.5215                 0.2501                21.6249

                     91                     92                     93
                      A                      A                      A
 Frequencies --   3204.1657              3211.3988              3707.9516
 Red. masses --      1.0933                 1.0975                 1.0651
 Frc consts  --      6.6135                 6.6687                 8.6283
 IR Inten    --     31.3725                16.1135                51.0458

 - Thermochemistry -
 -------------------
 Temperature   298.150 Kelvin.  Pressure   1.00000 Atm.
 Atom     1 has atomic number  6 and mass  12.00000

 Molecular mass:   210.12559 amu.
 Principal axes and moments of inertia in atomic units:
                           1         2         3
     Eigenvalues --  1287.787298020.124428324.00238
           X            0.99995   0.00957  -0.00027
           Y           -0.00955   0.99890   0.04588
           Z            0.00071  -0.04588   0.99895
 This molecule is an asymmetric top.
 Rotational symmetry number  1.
 Warning -- assumption of classical behavior for rotation
           may cause significant error
 Rotational temperatures (Kelvin)      0.06726     0.01080     0.01041
 Rotational constants (GHZ):           1.40143     0.22503     0.21681
 Zero-point vibrational energy     754337.7 (Joules/Mol)
                                  180.29103 (Kcal/Mol)
 Warning -- explicit consideration of  21 degrees of freedom as
           vibrations may cause significant error
 Vibrational temperatures:     26.11    40.61    55.97   122.10   131.05
          (Kelvin)            140.84   170.27   220.85   276.59   315.79
                              343.91   354.17   422.33   462.15   496.21
                              597.10   601.23   650.53   692.82   749.27
                              829.71   895.69   915.29   962.58  1027.39
                             1085.34  1184.11  1219.87  1245.02  1314.22
                             1328.42  1377.69  1397.75  1425.59  1434.97
                             1440.39  1453.59  1469.77  1505.19  1525.26
                             1582.75  1606.34  1639.50  1655.08  1665.59
                             1682.31  1717.01  1721.78  1740.90  1771.94
                             1774.35  1793.57  1840.05  1851.11  1876.48
                             1935.33  1947.08  1966.72  1981.86  2027.52
                             2043.53  2068.19  2082.39  2096.35  2163.00
                             2164.06  2179.88  2180.87  2204.20  2204.92
                             2226.53  2231.80  2239.91  2373.03  2401.13
                             4308.21  4310.61  4318.80  4324.22  4368.57
                             4379.33  4380.91  4396.29  4417.19  4425.75
                             4452.05  4516.10  4567.07  4580.92  4595.58
                             4610.08  4620.49  5334.92

 Zero-point correction=                           0.287312 (Hartree/Particle)
 Thermal correction to Energy=                    0.302747
 Thermal correction to Enthalpy=                  0.303691
 Thermal correction to Gibbs Free Energy=         0.242022
 Sum of electronic and zero-point Energies=           -693.514642
 Sum of electronic and thermal Energies=              -693.499207
 Sum of electronic and thermal Enthalpies=            -693.498263
 Sum of electronic and thermal Free Energies=         -693.559932

                     E (Thermal)             CV                S
                      KCal/Mol        Cal/Mol-Kelvin    Cal/Mol-Kelvin
 Total                  189.976             56.692            129.793
 Electronic               0.000              0.000              0.000
 Translational            0.889              2.981             41.931
 Rotational               0.889              2.981             32.819
 Vibrational            188.199             50.730             55.043
 Vibration     1          0.593              1.986              6.827
 Vibration     2          0.593              1.984              5.950
 Vibration     3          0.594              1.981              5.314
 Vibration     4          0.601              1.960              3.775
 Vibration     5          0.602              1.956              3.637
 Vibration     6          0.603              1.951              3.496
 Vibration     7          0.609              1.934              3.127
 Vibration     8          0.619              1.899              2.628
 Vibration     9          0.634              1.851              2.206
 Vibration    10          0.647              1.811              1.963
 Vibration    11          0.657              1.781              1.810
 Vibration    12          0.661              1.769              1.758
 Vibration    13          0.688              1.686              1.453
 Vibration    14          0.707              1.633              1.304
 Vibration    15          0.723              1.586              1.189
 Vibration    16          0.778              1.438              0.909
 Vibration    17          0.781              1.431              0.899
 Vibration    18          0.811              1.356              0.789
 Vibration    19          0.838              1.291              0.706
 Vibration    20          0.876              1.204              0.608
 Vibration    21          0.933              1.082              0.492

 Optimization completed.
    -- Stationary point found.
 Normal termination of Gaussian 16 at Thu Dec 10 17:21:08 2020.

 ----------------------------------------------------------------------
 # B3LYP/6-311++G(d,p) empiricaldispersion=gd3bj scf=xqc pop=npa geom=c
 heck
 ----------------------------------------------------------------------

 ---------------------------------------
 CID_150347630_JID_5674_Energie_neutraal
 ---------------------------------------
 Structure from the checkpoint file:  "JID_5674.chk"
 Charge =  0 Multiplicity = 1

 SCF Done:  E(RB3LYP) =  -694.008735372     A.U. after   14 cycles
 Normal termination of Gaussian 16 at Thu Dec 10 17:26:07 2020.

 ----------------------------------------------------------------------
 # B3LYP/6-311++G(d,p) empiricaldispersion=gd3bj scf=xqc pop=npa geom=c
 heck
 ----------------------------------------------------------------------

 -------------------------------------
 CID_150347630_JID_5674_Energie_kation
 -------------------------------------
 Structure from the checkpoint file:  "JID_5674.chk"
 Charge =  1 Multiplicity = 2

 SCF Done:  E(UB3LYP) =  -693.692935042     A.U. after   33 cycles
 SCF Done:  E(UB3LYP) =  -693.692935042     a.u. after    1 cycles
 Normal termination of Gaussian 16 at Thu Dec 10 17:43:06 2020.
 Gaussian 16:  ES64L-G16RevA.03 25-Dec-2016

 ----------------------------------------------------------------------
 # B3LYP/6-311++G(d,p) empiricaldispersion=gd3bj scf=xqc pop=npa geom=c
 heck
 ----------------------------------------------------------------------

 ------------------------------------
 CID_150347630_JID_5674_Energie_anion
 ------------------------------------
 Structure from the checkpoint file:  "JID_5674.chk"
 Charge = -1 Multiplicity = 2

                         Standard orientation:
 ---------------------------------------------------------------------
 Center     Atomic      Atomic             Coordinates (Angstroms)
 Number     Number       Type             X           Y           Z
 ---------------------------------------------------------------------
      1          6           0        4.985218    1.259966   -0.171327
      2          8           0        4.019671    0.277719   -0.486135
      3          6           0        2.710181    0.649149   -0.063111
      4          6           0        1.710565   -0.414043   -0.531403
      5          6           0        2.305782   -1.828979   -0.399778
      6          8           0        2.952298   -2.034772    0.849599
      7          6           0        0.423867   -0.299958    0.276174
      8          8           0       -0.038679    1.044021    0.210613
      9          6           0       -1.211598    1.269827    0.973943
     10          6           0       -2.444784    0.604610    0.396000
     11          6           0       -2.645592    0.588709   -0.989304
     12          6           0       -3.788681    0.004196   -1.530723
     13          6           0       -4.749103   -0.567080   -0.692237
     14          6           0       -4.554566   -0.556832    0.688835
     15          6           0       -3.403476    0.020815    1.227536
     16          1           0        5.952363    0.887884   -0.518724
     17          1           0        5.037987    1.444831    0.913413
     18          1           0        4.764310    2.214062   -0.673720
     19          1           0        2.687598    0.726275    1.035612
     20          1           0        2.442156    1.634111   -0.466197
     21          1           0        1.476732   -0.242401   -1.590572
     22          1           0        1.507437   -2.576908   -0.463886
     23          1           0        2.997989   -2.009007   -1.231746
     24          1           0        3.759361   -1.494888    0.796275
     25          1           0       -0.335963   -0.989018   -0.119446
     26          1           0        0.620385   -0.580861    1.323518
     27          1           0       -1.062629    0.942105    2.015550
     28          1           0       -1.338525    2.358807    0.985109
     29          1           0       -1.889428    1.026783   -1.634278
     30          1           0       -3.932346   -0.006011   -2.607812
     31          1           0       -5.640790   -1.022009   -1.114377
     32          1           0       -5.292410   -1.007395    1.346977
     33          1           0       -3.247421    0.015620    2.304059
 ---------------------------------------------------------------------

 SCF Done:  E(UB3LYP) =  -693.995128290     A.U. after   33 cycles
 SCF Done:  E(UB3LYP) =  -693.995128290     a.u. after    1 cycles

 The electronic state is 2-A.
 Alpha  occ. eigenvalues --  -19.04585 -19.04275 -19.03069 -10.13694 -10.12885
 Alpha  occ. eigenvalues --  -10.12811 -10.12703 -10.12321 -10.09475 -10.09063
 Alpha  occ. eigenvalues --  -10.08933 -10.08905 -10.08809 -10.08676 -10.08583
 Alpha  occ. eigenvalues --   -0.95903  -0.95493  -0.93187  -0.77270  -0.71944
 Alpha  occ. eigenvalues --   -0.67996  -0.66120  -0.62859  -0.60730  -0.56816
 Alpha  occ. eigenvalues --   -0.55349  -0.52214  -0.49962  -0.48907  -0.43627
 Alpha  occ. eigenvalues --   -0.42699  -0.41296  -0.41208  -0.39519  -0.38284
 Alpha  occ. eigenvalues --   -0.37855  -0.37037  -0.36044  -0.35104  -0.34266
 Alpha  occ. eigenvalues --   -0.33567  -0.33334  -0.31631  -0.29660  -0.28894
 Alpha  occ. eigenvalues --   -0.27525  -0.27332  -0.26204  -0.25905  -0.24481
 Alpha  occ. eigenvalues --   -0.24420  -0.22825  -0.19010  -0.18192  -0.18028
 Alpha  occ. eigenvalues --   -0.17084  -0.16390   0.03976
 Alpha virt. eigenvalues --    0.05129   0.06347   0.06521   0.06960   0.07207
 Alpha virt. eigenvalues --    0.07747   0.08061   0.08641   0.09095   0.09367
 Alpha virt. eigenvalues --    0.09989   0.10783   0.10897   0.11528   0.12302

  Beta  occ. eigenvalues --  -19.04576 -19.04271 -19.03061 -10.13684 -10.12882
  Beta  occ. eigenvalues --  -10.12806 -10.12689 -10.12268 -10.09467 -10.09059
  Beta  occ. eigenvalues --  -10.08924 -10.08896 -10.08788 -10.08653 -10.08567
  Beta  occ. eigenvalues --   -0.95890  -0.95484  -0.93172  -0.77238  -0.71926
  Beta  occ. eigenvalues --   -0.67959  -0.66083  -0.62814  -0.60702  -0.56767
  Beta  occ. eigenvalues --   -0.55293  -0.52174  -0.49922  -0.48882  -0.43584
  Beta  occ. eigenvalues --   -0.42670  -0.41276  -0.41182  -0.39478  -0.38253
  Beta  occ. eigenvalues --   -0.37816  -0.37007  -0.36008  -0.35073  -0.34232
  Beta  occ. eigenvalues --   -0.33535  -0.33311  -0.31602  -0.29638  -0.28866
  Beta  occ. eigenvalues --   -0.27497  -0.27299  -0.26175  -0.25872  -0.24460
  Beta  occ. eigenvalues --   -0.24380  -0.22806  -0.18998  -0.18172  -0.18010
  Beta  occ. eigenvalues --   -0.17046  -0.16327
  Beta virt. eigenvalues --    0.05963   0.06351   0.06491   0.06966   0.07052
  Beta virt. eigenvalues --    0.07710   0.07975   0.08505   0.09240   0.09433
  Beta virt. eigenvalues --    0.09648   0.10242   0.10968   0.11165   0.11907

 Mulliken charges and spin densities:
               1          2
     1  C    1.154254  -1.390656
     2  O   -0.255711   0.072437
     3  C   -0.845996   0.107091
     4  C    1.127965  -0.298561
     5  C   -0.283071  -0.335325
     6  O   -0.242765  -0.001096
     7  C   -1.024460   0.151493
     8  O   -0.042923   0.011751
     9  C    1.546154  -2.078792
    10  C   -0.024957   0.820294
    11  C   -0.504925   0.674944
    12  C   -0.290075   0.070069
    13  C    1.391892  -1.803102
    14  C    0.434182  -0.783982
    15  C   -1.314199   0.891105
    16  H   -0.438360   0.585778
    17  H   -0.466071   0.598299
    18  H   -0.365538   0.498937
    19  H    0.333179  -0.105221
    20  H    0.102854   0.060560
    21  H    0.089174   0.093189
    22  H    0.065412   0.104644
    23  H    0.158438   0.027674
    24  H    0.162666   0.099687
    25  H    0.285391  -0.168369
    26  H    0.024441   0.116985
    27  H    0.000583   0.133408
    28  H   -0.039124   0.242477
    29  H   -0.007310   0.189786
    30  H   -0.358851   0.541383
    31  H   -0.450974   0.606754
    32  H   -0.674016   0.859718
    33  H   -0.247260   0.406640
 Sum of Mulliken charges =  -1.00000   1.00000

 Dipole moment (field-independent basis, Debye):
    X=              0.2388    Y=             -0.6273    Z=             -0.6209  Tot=              0.9143
 Quadrupole moment (field-independent basis, Debye-Ang):
   XX=           -232.3046   YY=           -130.7104   ZZ=           -125.5589
   XY=            -16.7360   XZ=             -2.1644   YZ=              3.6991

 Summary of Natural Population Analysis:

                                       Natural Population
                Natural  -----------------------------------------------
    Atom  No    Charge         Core      Valence    Rydberg      Total
 -----------------------------------------------------------------------
      C    1   -0.09657      0.99962     2.08752    0.00943     3.09657
      O    2   -0.30969      0.99988     3.29933    0.01048     4.30969
      C    3   -0.01210      0.99956     1.99836    0.01419     3.01210
      C    4   -0.13921      0.99959     2.12915    0.01047     3.13921
      C    5   -0.00834      0.99958     1.99639    0.01238     3.00834
      O    6   -0.37587      0.99990     3.36866    0.00731     4.37587
      C    7   -0.00869      0.99955     1.99859    0.01055     3.00869
      O    8   -0.30086      0.99988     3.29230    0.00868     4.30086
      C    9   -0.01264      0.99954     2.00047    0.01263     3.01264
      C   10   -0.03493      0.99950     2.02564    0.00979     3.03493
      C   11   -0.09993      0.99951     2.09055    0.00987     3.09993
      C   12   -0.09879      0.99956     2.08846    0.01077     3.09879
      C   13   -0.10111      0.99956     2.09136    0.01019     3.10111
      C   14   -0.09662      0.99956     2.08625    0.01081     3.09662
      C   15   -0.10146      0.99951     2.09140    0.01055     3.10146
      H   16    0.09214      0.00000     0.40618    0.00168     0.40786
      H   17    0.08004      0.00000     0.41779    0.00217     0.41996
      H   18    0.08118      0.00000     0.41687    0.00195     0.41882
      H   19    0.08228      0.00000     0.41619    0.00153     0.41772
      H   20    0.09215      0.00000     0.40591    0.00194     0.40785
      H   21    0.10049      0.00000     0.39774    0.00177     0.39951
      H   22    0.08512      0.00000     0.41360    0.00128     0.41488
      H   23    0.08455      0.00000     0.41414    0.00131     0.41545
      H   24    0.23405      0.00000     0.26255    0.00340     0.26595
      H   25    0.08670      0.00000     0.41170    0.00159     0.41330
      H   26    0.08449      0.00000     0.41388    0.00163     0.41551
      H   27    0.08263      0.00000     0.41601    0.00136     0.41737
      H   28    0.09696      0.00000     0.40184    0.00120     0.40304
      H   29    0.10562      0.00000     0.39258    0.00180     0.39438
      H   30    0.10132      0.00000     0.39768    0.00099     0.39868
      H   31    0.10308      0.00000     0.39519    0.00173     0.39692
      H   32    0.10318      0.00000     0.39507    0.00175     0.39682
      H   33    0.10081      0.00000     0.39799    0.00121     0.39919
 =======================================================================
   * Total *    0.00000     14.99430    41.81732    0.18838    57.00000

 Normal termination of Gaussian 16 at Thu Dec 10 17:59:49 2020.
