 Gaussian 16, Revision A.03,

 -----------------------------------------------------------
 # opt freq B3LYP/6-31G(d) empiricaldispersion=gd3bj scf=xqc
 -----------------------------------------------------------

 -------------------------------
 CID_129679600_JID_1232_neutraal
 -------------------------------
 Symbolic Z-matrix:
 Charge =  0 Multiplicity = 1

 SCF Done:  E(RB3LYP) =  -468.350476073     A.U. after   13 cycles
 SCF Done:  E(RB3LYP) =  -468.352309063     A.U. after   11 cycles
 SCF Done:  E(RB3LYP) =  -468.352478086     A.U. after   11 cycles
 SCF Done:  E(RB3LYP) =  -468.352528434     A.U. after   10 cycles
 SCF Done:  E(RB3LYP) =  -468.352546427     A.U. after    9 cycles
 SCF Done:  E(RB3LYP) =  -468.352563154     A.U. after    9 cycles
 SCF Done:  E(RB3LYP) =  -468.352568422     A.U. after    9 cycles
 SCF Done:  E(RB3LYP) =  -468.352573613     A.U. after    9 cycles
 SCF Done:  E(RB3LYP) =  -468.352588961     A.U. after   10 cycles
 SCF Done:  E(RB3LYP) =  -468.352600858     A.U. after   10 cycles
 SCF Done:  E(RB3LYP) =  -468.352597400     A.U. after   10 cycles
 SCF Done:  E(RB3LYP) =  -468.352604304     A.U. after   11 cycles
 SCF Done:  E(RB3LYP) =  -468.352610858     A.U. after    9 cycles
 SCF Done:  E(RB3LYP) =  -468.352610821     A.U. after    8 cycles
 SCF Done:  E(RB3LYP) =  -468.352610659     A.U. after    8 cycles
 SCF Done:  E(RB3LYP) =  -468.352610719     A.U. after    6 cycles
 Optimization completed.
    -- Stationary point found.
 Normal termination of Gaussian 16 at Tue Dec  8 19:34:10 2020.

 --------------------------------------------------------------------
 #N Geom=AllCheck Guess=TCheck SCRF=Check GenChk RB3LYP/6-31G(d) Freq
 --------------------------------------------------------------------

 Structure from the checkpoint file:  "JID_1232.chk"
 -------------------------------
 CID_129679600_JID_1232_neutraal
 -------------------------------
 Charge =  0 Multiplicity = 1

 SCF Done:  E(RB3LYP) =  -468.352610719     A.U. after    1 cycles

  Exact polarizability: 135.738  -2.554 101.836   0.746  -1.092  93.699
 Approx polarizability: 172.377  -7.137 138.623   4.028  -2.666 136.826

                      1                      2                      3
                      A                      A                      A
 Frequencies --     15.8157                32.7642                45.0149
 Red. masses --      3.5649                 2.7396                 3.1722
 Frc consts  --      0.0005                 0.0017                 0.0038
 IR Inten    --      0.1200                 0.3788                 0.1686

                      4                      5                      6
                      A                      A                      A
 Frequencies --     75.6133                80.8625               114.6083
 Red. masses --      2.6197                 2.6667                 2.5059
 Frc consts  --      0.0088                 0.0103                 0.0194
 IR Inten    --      0.1986                 0.0248                 0.3089

                      7                      8                      9
                      A                      A                      A
 Frequencies --    164.8551               191.0965               234.1997
 Red. masses --      2.0060                 1.4903                 1.6770
 Frc consts  --      0.0321                 0.0321                 0.0542
 IR Inten    --      3.1289                 1.1759                 0.5285

                     10                     11                     12
                      A                      A                      A
 Frequencies --    241.3233               278.7155               288.9990
 Red. masses --      2.2246                 1.5264                 1.5620
 Frc consts  --      0.0763                 0.0699                 0.0769
 IR Inten    --      0.7625                 1.1302                 1.5605

                     13                     14                     15
                      A                      A                      A
 Frequencies --    339.0668               360.0720               421.5188
 Red. masses --      2.3108                 2.1360                 2.1854
 Frc consts  --      0.1565                 0.1632                 0.2288
 IR Inten    --      0.8563                 0.3250                 0.1147

                     16                     17                     18
                      A                      A                      A
 Frequencies --    444.2556               467.5659               513.8673
 Red. masses --      2.6888                 2.6424                 2.0910
 Frc consts  --      0.3127                 0.3404                 0.3253
 IR Inten    --      7.7203                 3.8860                 3.9223

                     19                     20                     21
                      A                      A                      A
 Frequencies --    569.1826               729.5964               776.7892
 Red. masses --      2.5986                 1.2344                 1.7743
 Frc consts  --      0.4960                 0.3871                 0.6308
 IR Inten    --      2.8501                13.2795                 0.7470

                     22                     23                     24
                      A                      A                      A
 Frequencies --    806.5784               828.3680               846.1641
 Red. masses --      1.1751                 1.7177                 1.8829
 Frc consts  --      0.4504                 0.6945                 0.7943
 IR Inten    --      7.6340                 4.0026                 0.7065

                     25                     26                     27
                      A                      A                      A
 Frequencies --    863.9825               894.8398               921.6986
 Red. masses --      2.2745                 1.8933                 1.6015
 Frc consts  --      1.0003                 0.8932                 0.8016
 IR Inten    --      3.4837                 4.2773                 0.6311

                     28                     29                     30
                      A                      A                      A
 Frequencies --    981.0770               991.1924              1002.9394
 Red. masses --      1.7785                 2.5280                 1.7791
 Frc consts  --      1.0086                 1.4633                 1.0544
 IR Inten    --      1.6586                25.5612                 1.0309

                     31                     32                     33
                      A                      A                      A
 Frequencies --   1022.6922              1026.5666              1067.0415
 Red. masses --      1.5610                 1.1720                 1.6800
 Frc consts  --      0.9619                 0.7277                 1.1270
 IR Inten    --      4.7284                21.3414                 0.4334

                     34                     35                     36
                      A                      A                      A
 Frequencies --   1084.5555              1095.6297              1113.1708
 Red. masses --      2.4220                 2.2935                 2.1836
 Frc consts  --      1.6785                 1.6221                 1.5942
 IR Inten    --     25.6098                17.7871                 5.3479

                     37                     38                     39
                      A                      A                      A
 Frequencies --   1137.0423              1150.4821              1170.7153
 Red. masses --      2.0465                 2.7513                 2.2246
 Frc consts  --      1.5589                 2.1456                 1.7964
 IR Inten    --      1.2580                90.7265                16.4989

                     40                     41                     42
                      A                      A                      A
 Frequencies --   1206.5979              1219.2717              1244.2417
 Red. masses --      1.6106                 1.4024                 1.3774
 Frc consts  --      1.3816                 1.2284                 1.2564
 IR Inten    --     19.5363                 3.5917                 0.0657

                     43                     44                     45
                      A                      A                      A
 Frequencies --   1290.7587              1304.2485              1333.8526
 Red. masses --      1.2595                 1.1725                 1.1932
 Frc consts  --      1.2363                 1.1751                 1.2508
 IR Inten    --      4.9295                 5.4826                 1.4224

                     46                     47                     48
                      A                      A                      A
 Frequencies --   1341.0759              1346.5839              1355.1031
 Red. masses --      1.2874                 1.1237                 1.1353
 Frc consts  --      1.3642                 1.2006                 1.2283
 IR Inten    --      0.9667                 2.8219                 7.5838

                     49                     50                     51
                      A                      A                      A
 Frequencies --   1374.3912              1386.8177              1405.8210
 Red. masses --      1.4397                 1.3386                 1.2408
 Frc consts  --      1.6023                 1.5169                 1.4448
 IR Inten    --      2.9840                 6.9462                18.0445

                     52                     53                     54
                      A                      A                      A
 Frequencies --   1412.0993              1416.5909              1428.0535
 Red. masses --      1.4249                 1.3763                 1.2688
 Frc consts  --      1.6740                 1.6272                 1.5245
 IR Inten    --      3.2500                 0.9012                13.4893

                     55                     56                     57
                      A                      A                      A
 Frequencies --   1442.4747              1444.1212              1508.3645
 Red. masses --      1.3139                 1.2729                 1.0771
 Frc consts  --      1.6107                 1.5641                 1.4439
 IR Inten    --     24.4154                 4.3579                 1.8644

                     58                     59                     60
                      A                      A                      A
 Frequencies --   1513.5810              1517.3416              1520.9973
 Red. masses --      1.0590                 1.0826                 1.0625
 Frc consts  --      1.4294                 1.4685                 1.4482
 IR Inten    --      1.4547                 5.0568                 1.2142

                     61                     62                     63
                      A                      A                      A
 Frequencies --   1525.4195              1528.7920              1531.6959
 Red. masses --      1.0876                 1.0612                 1.0799
 Frc consts  --      1.4910                 1.4613                 1.4927
 IR Inten    --      3.9463                 5.0163                 7.7761

                     64                     65                     66
                      A                      A                      A
 Frequencies --   1534.4618              1540.9476              1542.2679
 Red. masses --      1.0570                 1.0710                 1.0774
 Frc consts  --      1.4664                 1.4983                 1.5098
 IR Inten    --      6.0615                 1.2596                 2.5012

                     67                     68                     69
                      A                      A                      A
 Frequencies --   1753.9847              3013.1696              3025.2447
 Red. masses --      6.0191                 1.0661                 1.0684
 Frc consts  --     10.9103                 5.7028                 5.7612
 IR Inten    --      5.4279                62.4587                21.7555

                     70                     71                     72
                      A                      A                      A
 Frequencies --   3029.2102              3032.2271              3036.2565
 Red. masses --      1.0634                 1.0624                 1.0621
 Frc consts  --      5.7491                 5.7551                 5.7691
 IR Inten    --     28.2738                19.0292                28.6814

                     73                     74                     75
                      A                      A                      A
 Frequencies --   3042.0535              3046.3459              3053.3723
 Red. masses --      1.0555                 1.0447                 1.0357
 Frc consts  --      5.7549                 5.7119                 5.6892
 IR Inten    --      4.0014                26.4119                15.8251

                     76                     77                     78
                      A                      A                      A
 Frequencies --   3061.5105              3068.1771              3078.1472
 Red. masses --      1.0975                 1.1006                 1.0979
 Frc consts  --      6.0610                 6.1041                 6.1293
 IR Inten    --     19.6391                47.6890                47.6750

                     79                     80                     81
                      A                      A                      A
 Frequencies --   3080.0069              3084.8362              3094.8399
 Red. masses --      1.0956                 1.1040                 1.0966
 Frc consts  --      6.1236                 6.1897                 6.1883
 IR Inten    --     39.2030                83.0155                14.8438

                     82                     83                     84
                      A                      A                      A
 Frequencies --   3109.8048              3115.9125              3120.0688
 Red. masses --      1.1018                 1.1020                 1.1005
 Frc consts  --      6.2779                 6.3036                 6.3123
 IR Inten    --     49.2399                47.3346                42.8096

                     85                     86                     87
                      A                      A                      A
 Frequencies --   3130.1465              3136.3169              3148.7373
 Red. masses --      1.1037                 1.0893                 1.0882
 Frc consts  --      6.3711                 6.3132                 6.3565
 IR Inten    --     50.4627                16.6346                30.9100

 - Thermochemistry -
 -------------------
 Temperature   298.150 Kelvin.  Pressure   1.00000 Atm.
 Atom     1 has atomic number  6 and mass  12.00000

 Molecular mass:   156.15142 amu.
 Principal axes and moments of inertia in atomic units:
                           1         2         3
     Eigenvalues --   982.998554139.517914604.07517
           X            0.99997   0.00824  -0.00008
           Y           -0.00824   0.99986  -0.01429
           Z           -0.00004   0.01429   0.99990
 This molecule is an asymmetric top.
 Rotational symmetry number  1.
 Warning -- assumption of classical behavior for rotation
           may cause significant error
 Rotational temperatures (Kelvin)      0.08811     0.02092     0.01881
 Rotational constants (GHZ):           1.83596     0.43598     0.39199
 Zero-point vibrational energy     752851.0 (Joules/Mol)
                                  179.93571 (Kcal/Mol)
 Warning -- explicit consideration of  19 degrees of freedom as
           vibrations may cause significant error
 Vibrational temperatures:     22.76    47.14    64.77   108.79   116.34
          (Kelvin)            164.90   237.19   274.95   336.96   347.21
                              401.01   415.81   487.84   518.06   606.47
                              639.18   672.72   739.34   818.93  1049.73
                             1117.63  1160.49  1191.84  1217.44  1243.08
                             1287.47  1326.12  1411.55  1426.10  1443.01
                             1471.43  1477.00  1535.23  1560.43  1576.37
                             1601.60  1635.95  1655.29  1684.40  1736.03
                             1754.26  1790.19  1857.11  1876.52  1919.12
                             1929.51  1937.43  1949.69  1977.44  1995.32
                             2022.66  2031.70  2038.16  2054.65  2075.40
                             2077.77  2170.20  2177.71  2183.12  2188.38
                             2194.74  2199.59  2203.77  2207.75  2217.08
                             2218.98  2523.59  4335.28  4352.65  4358.36
                             4362.70  4368.50  4376.84  4383.01  4393.12
                             4404.83  4414.42  4428.77  4431.44  4438.39
                             4452.78  4474.32  4483.10  4489.08  4503.58
                             4512.46  4530.33

 Zero-point correction=                           0.286746 (Hartree/Particle)
 Thermal correction to Energy=                    0.300590
 Thermal correction to Enthalpy=                  0.301535
 Thermal correction to Gibbs Free Energy=         0.243880
 Sum of electronic and zero-point Energies=           -468.065865
 Sum of electronic and thermal Energies=              -468.052020
 Sum of electronic and thermal Enthalpies=            -468.051076
 Sum of electronic and thermal Free Energies=         -468.108731

                     E (Thermal)             CV                S
                      KCal/Mol        Cal/Mol-Kelvin    Cal/Mol-Kelvin
 Total                  188.623             49.527            121.345
 Electronic               0.000              0.000              0.000
 Translational            0.889              2.981             41.046
 Rotational               0.889              2.981             31.305
 Vibrational            186.846             43.566             48.993
 Vibration     1          0.593              1.986              7.100
 Vibration     2          0.594              1.983              5.655
 Vibration     3          0.595              1.979              5.025
 Vibration     4          0.599              1.965              4.002
 Vibration     5          0.600              1.962              3.870
 Vibration     6          0.608              1.937              3.189
 Vibration     7          0.623              1.886              2.493
 Vibration     8          0.634              1.852              2.217
 Vibration     9          0.654              1.789              1.847
 Vibration    10          0.658              1.777              1.793
 Vibration    11          0.679              1.713              1.542
 Vibration    12          0.686              1.694              1.480
 Vibration    13          0.719              1.597              1.217
 Vibration    14          0.735              1.555              1.122
 Vibration    15          0.784              1.423              0.887
 Vibration    16          0.804              1.374              0.813
 Vibration    17          0.825              1.322              0.744
 Vibration    18          0.869              1.219              0.624
 Vibration    19          0.925              1.098              0.506

 Optimization completed on the basis of negligible forces.
    -- Stationary point found.
 Normal termination of Gaussian 16 at Tue Dec  8 19:40:40 2020.

 ----------------------------------------------------------------------
 # B3LYP/6-311++G(d,p) empiricaldispersion=gd3bj scf=xqc pop=npa geom=c
 heck
 ----------------------------------------------------------------------

 ---------------------------------------
 CID_129679600_JID_1232_Energie_neutraal
 ---------------------------------------
 Structure from the checkpoint file:  "JID_1232.chk"
 Charge =  0 Multiplicity = 1

 SCF Done:  E(RB3LYP) =  -468.488568429     A.U. after   13 cycles
 Normal termination of Gaussian 16 at Tue Dec  8 19:43:44 2020.

 ----------------------------------------------------------------------
 # B3LYP/6-311++G(d,p) empiricaldispersion=gd3bj scf=xqc pop=npa geom=c
 heck
 ----------------------------------------------------------------------

 -------------------------------------
 CID_129679600_JID_1232_Energie_kation
 -------------------------------------
 Structure from the checkpoint file:  "JID_1232.chk"
 Charge =  1 Multiplicity = 2

 SCF Done:  E(UB3LYP) =  -468.160347081     A.U. after   22 cycles
 Normal termination of Gaussian 16 at Tue Dec  8 19:50:56 2020.
 Gaussian 16:  ES64L-G16RevA.03 25-Dec-2016

 ----------------------------------------------------------------------
 # B3LYP/6-311++G(d,p) empiricaldispersion=gd3bj scf=xqc pop=npa geom=c
 heck
 ----------------------------------------------------------------------

 ------------------------------------
 CID_129679600_JID_1232_Energie_anion
 ------------------------------------
 Structure from the checkpoint file:  "JID_1232.chk"
 Charge = -1 Multiplicity = 2

                         Standard orientation:
 ---------------------------------------------------------------------
 Center     Atomic      Atomic             Coordinates (Angstroms)
 Number     Number       Type             X           Y           Z
 ---------------------------------------------------------------------
      1          6           0       -4.396785    0.278683   -0.395482
      2          6           0       -3.015361    0.845738   -0.735629
      3          6           0       -2.072501    0.955232    0.472191
      4          6           0       -1.775844   -0.369030    1.192788
      5          6           0       -1.184579   -1.479689    0.297176
      6          6           0        0.066427   -1.051647   -0.415867
      7          6           0        1.303836   -1.449409   -0.110634
      8          6           0        2.539663   -0.961131   -0.811845
      9          8           0        3.455293   -0.302604    0.061363
     10          6           0        2.942348    0.857275    0.707840
     11          6           0        2.651014    2.016981   -0.241861
     12          1           0       -4.334620   -0.756349   -0.041198
     13          1           0       -5.054926    0.287754   -1.271335
     14          1           0       -4.880486    0.868857    0.392732
     15          1           0       -2.551049    0.227958   -1.516146
     16          1           0       -3.133552    1.844546   -1.175590
     17          1           0       -1.126320    1.406892    0.146157
     18          1           0       -2.507636    1.654612    1.199402
     19          1           0       -1.068852   -0.171221    2.008561
     20          1           0       -2.691689   -0.750662    1.661742
     21          1           0       -0.971924   -2.357733    0.918861
     22          1           0       -1.938828   -1.791735   -0.438353
     23          1           0       -0.059708   -0.336830   -1.231042
     24          1           0        1.464014   -2.150616    0.709652
     25          1           0        3.113619   -1.801723   -1.218526
     26          1           0        2.257864   -0.314700   -1.656766
     27          1           0        2.038149    0.609118    1.282548
     28          1           0        3.723025    1.142844    1.420119
     29          1           0        1.806835    1.799550   -0.904872
     30          1           0        2.396851    2.915780    0.331829
     31          1           0        3.527576    2.236479   -0.860740
 ---------------------------------------------------------------------

 SCF Done:  E(UB3LYP) =  -468.472149873     A.U. after   32 cycles

 The electronic state is 2-A.
 Alpha  occ. eigenvalues --  -19.02795 -10.12383 -10.11692 -10.07863 -10.07259
 Alpha  occ. eigenvalues --  -10.07201 -10.06454 -10.06389 -10.05884 -10.05776
 Alpha  occ. eigenvalues --  -10.05114  -0.93744  -0.72035  -0.69010  -0.66293
 Alpha  occ. eigenvalues --   -0.64023  -0.59790  -0.56513  -0.52568  -0.49524
 Alpha  occ. eigenvalues --   -0.46429  -0.44460  -0.39799  -0.39257  -0.38042
 Alpha  occ. eigenvalues --   -0.36314  -0.35029  -0.33035  -0.32468  -0.31450
 Alpha  occ. eigenvalues --   -0.30400  -0.29745  -0.28477  -0.27930  -0.26862
 Alpha  occ. eigenvalues --   -0.26395  -0.25243  -0.24920  -0.22312  -0.21909
 Alpha  occ. eigenvalues --   -0.21466  -0.21021  -0.16862  -0.16180   0.04626
 Alpha virt. eigenvalues --    0.06532   0.07211   0.07489   0.08530   0.08732
 Alpha virt. eigenvalues --    0.09059   0.09571   0.10016   0.10318   0.10927
 Alpha virt. eigenvalues --    0.11545   0.11785   0.12431   0.12611   0.13510

  Beta  occ. eigenvalues --  -19.02789 -10.12375 -10.11680 -10.07852 -10.07243
  Beta  occ. eigenvalues --  -10.07185 -10.06437 -10.06356 -10.05862 -10.05755
  Beta  occ. eigenvalues --  -10.05071  -0.93726  -0.72003  -0.68973  -0.66258
  Beta  occ. eigenvalues --   -0.63981  -0.59742  -0.56456  -0.52500  -0.49466
  Beta  occ. eigenvalues --   -0.46365  -0.44395  -0.39777  -0.39235  -0.38007
  Beta  occ. eigenvalues --   -0.36276  -0.34986  -0.32997  -0.32434  -0.31396
  Beta  occ. eigenvalues --   -0.30365  -0.29708  -0.28440  -0.27881  -0.26828
  Beta  occ. eigenvalues --   -0.26356  -0.25205  -0.24884  -0.22275  -0.21865
  Beta  occ. eigenvalues --   -0.21429  -0.20990  -0.16835  -0.16127
  Beta virt. eigenvalues --    0.06743   0.07249   0.07758   0.07941   0.08887
  Beta virt. eigenvalues --    0.09246   0.09430   0.09821   0.10343   0.10841
  Beta virt. eigenvalues --    0.11429   0.12021   0.12044   0.12778   0.12966

 Mulliken charges and spin densities:
               1          2
     1  C    1.737556  -2.391779
     2  C   -0.940345   0.780112
     3  C    0.111993  -0.278493
     4  C    0.938450  -1.225514
     5  C   -0.080095  -0.284895
     6  C   -1.151220   1.211033
     7  C    0.885930  -0.871704
     8  C    0.332229  -0.954376
     9  O   -0.096400   0.017652
    10  C   -0.660939   0.341702
    11  C    0.839825  -1.209411
    12  H   -0.300410   0.440529
    13  H   -0.446691   0.585540
    14  H   -0.150371   0.289142
    15  H   -0.052564   0.191715
    16  H   -0.490015   0.645142
    17  H    0.121328   0.017053
    18  H   -0.487279   0.645730
    19  H   -0.166694   0.312849
    20  H    0.032714   0.123329
    21  H   -0.059916   0.224662
    22  H   -0.193047   0.343321
    23  H   -0.319586   0.456547
    24  H   -0.048345   0.205341
    25  H    0.051587   0.090678
    26  H    0.068402   0.086628
    27  H    0.275301  -0.142207
    28  H   -0.211420   0.376414
    29  H   -0.195338   0.341040
    30  H   -0.383062   0.520899
    31  H    0.038421   0.111322
 Sum of Mulliken charges =  -1.00000   1.00000

 Dipole moment (field-independent basis, Debye):
    X=              5.0820    Y=             -3.4528    Z=              0.1746  Tot=              6.1465
 Quadrupole moment (field-independent basis, Debye-Ang):
   XX=           -161.1528   YY=           -116.9467   ZZ=           -104.7772
   XY=              0.2119   XZ=             -5.9267   YZ=             -0.7629

 Summary of Natural Population Analysis:

                                       Natural Population
                Natural  -----------------------------------------------
    Atom  No    Charge         Core      Valence    Rydberg      Total
 -----------------------------------------------------------------------
      C    1   -0.28705      0.99967     2.28197    0.00540     3.28705
      C    2   -0.19227      0.99964     2.18414    0.00849     3.19227
      C    3   -0.19117      0.99963     2.18283    0.00872     3.19117
      C    4   -0.18495      0.99962     2.17701    0.00832     3.18495
      C    5   -0.20898      0.99961     2.19961    0.00976     3.20898
      C    6   -0.07512      0.99950     2.06613    0.00949     3.07512
      C    7   -0.11290      0.99950     2.10482    0.00858     3.11290
      C    8   -0.02416      0.99955     2.01219    0.01241     3.02416
      O    9   -0.30156      0.99989     3.29246    0.00921     4.30156
      C   10   -0.01471      0.99959     2.00178    0.01334     3.01471
      C   11   -0.30291      0.99967     2.29793    0.00531     3.30291
      H   12    0.09500      0.00000     0.40364    0.00136     0.40500
      H   13    0.09988      0.00000     0.39873    0.00139     0.40012
      H   14    0.09629      0.00000     0.40234    0.00137     0.40371
      H   15    0.09077      0.00000     0.40756    0.00167     0.40923
      H   16    0.09769      0.00000     0.40080    0.00151     0.40231
      H   17    0.09698      0.00000     0.40114    0.00188     0.40302
      H   18    0.09780      0.00000     0.40080    0.00140     0.40220
      H   19    0.09643      0.00000     0.40217    0.00140     0.40357
      H   20    0.09735      0.00000     0.40135    0.00130     0.40265
      H   21    0.09938      0.00000     0.39941    0.00121     0.40062
      H   22    0.10244      0.00000     0.39613    0.00143     0.39756
      H   23    0.09187      0.00000     0.40639    0.00174     0.40813
      H   24    0.09239      0.00000     0.40630    0.00132     0.40761
      H   25    0.09040      0.00000     0.40830    0.00130     0.40960
      H   26    0.08082      0.00000     0.41762    0.00156     0.41918
      H   27    0.08329      0.00000     0.41501    0.00170     0.41671
      H   28    0.08661      0.00000     0.41211    0.00128     0.41339
      H   29    0.09850      0.00000     0.39993    0.00157     0.40150
      H   30    0.10443      0.00000     0.39418    0.00140     0.39557
      H   31    0.09749      0.00000     0.40139    0.00112     0.40251
 =======================================================================
   * Total *   -0.00000     10.99587    32.87617    0.12796    44.00000

 Normal termination of Gaussian 16 at Tue Dec  8 20:01:29 2020.
