 Gaussian 16, Revision A.03,

 -----------------------------------------------------------
 # opt freq B3LYP/6-31G(d) empiricaldispersion=gd3bj scf=xqc
 -----------------------------------------------------------

 -------------------------------
 CID_148450483_JID_2744_neutraal
 -------------------------------
 Symbolic Z-matrix:
 Charge =  0 Multiplicity = 1

 SCF Done:  E(RB3LYP) =  -512.611672551     A.U. after   15 cycles
 SCF Done:  E(RB3LYP) =  -512.614747918     A.U. after   12 cycles
 SCF Done:  E(RB3LYP) =  -512.615048181     A.U. after   12 cycles
 SCF Done:  E(RB3LYP) =  -512.615148866     A.U. after   12 cycles
 SCF Done:  E(RB3LYP) =  -512.615185122     A.U. after   11 cycles
 SCF Done:  E(RB3LYP) =  -512.615225804     A.U. after   11 cycles
 SCF Done:  E(RB3LYP) =  -512.615294182     A.U. after   12 cycles
 SCF Done:  E(RB3LYP) =  -512.615321566     A.U. after   11 cycles
 SCF Done:  E(RB3LYP) =  -512.615355775     A.U. after   12 cycles
 SCF Done:  E(RB3LYP) =  -512.615398123     A.U. after   15 cycles
 SCF Done:  E(RB3LYP) =  -512.615549418     A.U. after   11 cycles
 SCF Done:  E(RB3LYP) =  -512.615564652     A.U. after   10 cycles
 SCF Done:  E(RB3LYP) =  -512.615567399     A.U. after   11 cycles
 SCF Done:  E(RB3LYP) =  -512.615567665     A.U. after    9 cycles
 Optimization completed.
    -- Stationary point found.
 Normal termination of Gaussian 16 at Wed Dec  9 17:52:01 2020.

 --------------------------------------------------------------------
 #N Geom=AllCheck Guess=TCheck SCRF=Check GenChk RB3LYP/6-31G(d) Freq
 --------------------------------------------------------------------

 Structure from the checkpoint file:  "JID_2744.chk"
 -------------------------------
 CID_148450483_JID_2744_neutraal
 -------------------------------
 Charge =  0 Multiplicity = 1

 SCF Done:  E(RB3LYP) =  -512.615567665     A.U. after    1 cycles

  Exact polarizability: 168.811   6.871  86.771   6.485  -8.340  70.598
 Approx polarizability: 249.071  15.875 149.596  14.069 -25.463 109.303

                      1                      2                      3
                      A                      A                      A
 Frequencies --     38.3092                61.3504               130.0402
 Red. masses --      4.3179                 5.1534                 6.0188
 Frc consts  --      0.0037                 0.0114                 0.0600
 IR Inten    --      0.4972                 0.7519                 1.4022

                      4                      5                      6
                      A                      A                      A
 Frequencies --    138.5338               187.7311               223.5419
 Red. masses --      3.4520                 1.3712                 2.9311
 Frc consts  --      0.0390                 0.0285                 0.0863
 IR Inten    --      0.7011                 0.1246                 0.0790

                      7                      8                      9
                      A                      A                      A
 Frequencies --    269.8722               339.1357               365.6714
 Red. masses --      4.0221                 2.6403                 4.6185
 Frc consts  --      0.1726                 0.1789                 0.3639
 IR Inten    --      1.2430                 0.8815                 0.3724

                     10                     11                     12
                      A                      A                      A
 Frequencies --    402.9895               418.0451               498.0714
 Red. masses --      3.7232                 4.2061                 3.8058
 Frc consts  --      0.3562                 0.4331                 0.5563
 IR Inten    --      1.2715                 0.0262                 2.1847

                     13                     14                     15
                      A                      A                      A
 Frequencies --    546.0793               574.6207               597.1407
 Red. masses --      5.2758                 8.7420                 3.5191
 Frc consts  --      0.9269                 1.7007                 0.7393
 IR Inten    --      6.3731                 8.5113                 0.3581

                     16                     17                     18
                      A                      A                      A
 Frequencies --    675.0247               692.9983               772.8757
 Red. masses --      8.2604                 3.4687                 2.9553
 Frc consts  --      2.2177                 0.9815                 1.0401
 IR Inten    --      5.6289                 1.2901                 2.3965

                     19                     20                     21
                      A                      A                      A
 Frequencies --    820.3671               838.1587               867.0743
 Red. masses --      6.9136                 3.7618                 1.3676
 Frc consts  --      2.7414                 1.5570                 0.6058
 IR Inten    --     11.5611                20.5721                 2.1758

                     22                     23                     24
                      A                      A                      A
 Frequencies --    887.9914               944.2918               961.4475
 Red. masses --      3.4322                 1.2205                 1.6204
 Frc consts  --      1.5946                 0.6412                 0.8825
 IR Inten    --     10.9643                 4.2685                 7.0513

                     25                     26                     27
                      A                      A                      A
 Frequencies --    990.4119              1020.5267              1061.2872
 Red. masses --      1.3753                 3.1037                 2.7634
 Frc consts  --      0.7949                 1.9045                 1.8339
 IR Inten    --      0.1786                 3.3998                 2.7265

                     28                     29                     30
                      A                      A                      A
 Frequencies --   1085.0787              1090.6072              1112.0357
 Red. masses --      1.4192                 1.5699                 1.2839
 Frc consts  --      0.9845                 1.1002                 0.9355
 IR Inten    --      3.5737                 0.4253                33.5596

                     31                     32                     33
                      A                      A                      A
 Frequencies --   1154.6526              1209.6452              1216.3495
 Red. masses --      1.3811                 1.9407                 2.0615
 Frc consts  --      1.0849                 1.6731                 1.7970
 IR Inten    --      7.4939                 9.0448                 1.7225

                     34                     35                     36
                      A                      A                      A
 Frequencies --   1257.7695              1299.5466              1302.7120
 Red. masses --      2.9332                 2.7958                 2.0522
 Frc consts  --      2.7340                 2.7819                 2.0519
 IR Inten    --      2.3377                 6.2595                 7.0679

                     37                     38                     39
                      A                      A                      A
 Frequencies --   1317.5932              1398.3275              1417.9924
 Red. masses --      2.9159                 1.8603                 1.5553
 Frc consts  --      2.9825                 2.1431                 1.8425
 IR Inten    --     22.5202                 5.4721                 9.0946

                     40                     41                     42
                      A                      A                      A
 Frequencies --   1451.0135              1455.2144              1478.6757
 Red. masses --      1.6668                 1.4504                 2.9510
 Frc consts  --      2.0676                 1.8097                 3.8016
 IR Inten    --      8.4199                 3.3941               107.8987

                     43                     44                     45
                      A                      A                      A
 Frequencies --   1520.5222              1524.2979              1534.1367
 Red. masses --      1.1346                 1.1350                 1.1642
 Frc consts  --      1.5455                 1.5537                 1.6144
 IR Inten    --     10.9373                20.0492                 3.2982

                     46                     47                     48
                      A                      A                      A
 Frequencies --   1586.7840              1633.1054              2369.8770
 Red. masses --      6.2131                 4.9568                12.6865
 Frc consts  --      9.2171                 7.7890                41.9801
 IR Inten    --     58.3488                 3.0226                 0.5336

                     49                     50                     51
                      A                      A                      A
 Frequencies --   3053.6445              3114.3253              3125.9549
 Red. masses --      1.0362                 1.1027                 1.0994
 Frc consts  --      5.6928                 6.3016                 6.3296
 IR Inten    --     23.8650                21.2282                13.2435

                     52                     53                     54
                      A                      A                      A
 Frequencies --   3152.3153              3154.0502              3163.2365
 Red. masses --      1.0555                 1.0880                 1.0905
 Frc consts  --      6.1795                 6.3769                 6.4289
 IR Inten    --      8.9555                10.4724                18.0055

                     55                     56                     57
                      A                      A                      A
 Frequencies --   3172.9027              3194.5626              3231.6919
 Red. masses --      1.0913                 1.0905                 1.1164
 Frc consts  --      6.4731                 6.5571                 6.8699
 IR Inten    --     23.9639                21.5138                10.0380

 - Thermochemistry -
 -------------------
 Temperature   298.150 Kelvin.  Pressure   1.00000 Atm.
 Atom     1 has atomic number  6 and mass  12.00000

 Molecular mass:   159.07965 amu.
 Principal axes and moments of inertia in atomic units:
                           1         2         3
     Eigenvalues --   656.877503754.532753898.05616
           X            0.99996  -0.00778  -0.00446
           Y            0.00799   0.99880   0.04836
           Z            0.00408  -0.04840   0.99882
 This molecule is an asymmetric top.
 Rotational symmetry number  1.
 Warning -- assumption of classical behavior for rotation
           may cause significant error
 Rotational temperatures (Kelvin)      0.13186     0.02307     0.02222
 Rotational constants (GHZ):           2.74745     0.48068     0.46298
 Zero-point vibrational energy     437248.3 (Joules/Mol)
                                  104.50485 (Kcal/Mol)
 Warning -- explicit consideration of  15 degrees of freedom as
           vibrations may cause significant error
 Vibrational temperatures:     55.12    88.27   187.10   199.32   270.10
          (Kelvin)            321.63   388.29   487.94   526.12   579.81
                              601.47   716.61   785.69   826.75   859.15
                              971.21   997.07  1112.00  1180.33  1205.92
                             1247.53  1277.62  1358.63  1383.31  1424.98
                             1468.31  1526.96  1561.19  1569.14  1599.97
                             1661.29  1740.41  1750.06  1809.65  1869.76
                             1874.31  1895.72  2011.88  2040.17  2087.68
                             2093.73  2127.48  2187.69  2193.12  2207.28
                             2283.03  2349.67  3409.72  4393.51  4480.82
                             4497.55  4535.48  4537.97  4551.19  4565.10
                             4596.26  4649.68

 Zero-point correction=                           0.166539 (Hartree/Particle)
 Thermal correction to Energy=                    0.177018
 Thermal correction to Enthalpy=                  0.177962
 Thermal correction to Gibbs Free Energy=         0.129511
 Sum of electronic and zero-point Energies=           -512.449029
 Sum of electronic and thermal Energies=              -512.438550
 Sum of electronic and thermal Enthalpies=            -512.437606
 Sum of electronic and thermal Free Energies=         -512.486056

                     E (Thermal)             CV                S
                      KCal/Mol        Cal/Mol-Kelvin    Cal/Mol-Kelvin
 Total                  111.080             39.174            101.973
 Electronic               0.000              0.000              0.000
 Translational            0.889              2.981             41.102
 Rotational               0.889              2.981             30.642
 Vibrational            109.303             33.212             30.229
 Vibration     1          0.594              1.982              5.345
 Vibration     2          0.597              1.973              4.413
 Vibration     3          0.612              1.923              2.945
 Vibration     4          0.614              1.915              2.824
 Vibration     5          0.632              1.857              2.250
 Vibration     6          0.649              1.805              1.930
 Vibration     7          0.674              1.729              1.597
 Vibration     8          0.719              1.597              1.216
 Vibration     9          0.739              1.543              1.098
 Vibration    10          0.768              1.464              0.952
 Vibration    11          0.781              1.431              0.899
 Vibration    12          0.854              1.254              0.663
 Vibration    13          0.901              1.148              0.552
 Vibration    14          0.931              1.086              0.495
 Vibration    15          0.955              1.038              0.455

 Optimization completed.
    -- Stationary point found.
 Normal termination of Gaussian 16 at Wed Dec  9 17:56:08 2020.

 ----------------------------------------------------------------------
 # B3LYP/6-311++G(d,p) empiricaldispersion=gd3bj scf=xqc pop=npa geom=c
 heck
 ----------------------------------------------------------------------

 ---------------------------------------
 CID_148450483_JID_2744_Energie_neutraal
 ---------------------------------------
 Structure from the checkpoint file:  "JID_2744.chk"
 Charge =  0 Multiplicity = 1

 SCF Done:  E(RB3LYP) =  -512.747826239     A.U. after   15 cycles
 Normal termination of Gaussian 16 at Wed Dec  9 17:57:59 2020.

 ----------------------------------------------------------------------
 # B3LYP/6-311++G(d,p) empiricaldispersion=gd3bj scf=xqc pop=npa geom=c
 heck
 ----------------------------------------------------------------------

 -------------------------------------
 CID_148450483_JID_2744_Energie_kation
 -------------------------------------
 Structure from the checkpoint file:  "JID_2744.chk"
 Charge =  1 Multiplicity = 2

 SCF Done:  E(UB3LYP) =  -512.403543873     A.U. after   26 cycles
 Normal termination of Gaussian 16 at Wed Dec  9 18:03:00 2020.
 Gaussian 16:  ES64L-G16RevA.03 25-Dec-2016

 ----------------------------------------------------------------------
 # B3LYP/6-311++G(d,p) empiricaldispersion=gd3bj scf=xqc pop=npa geom=c
 heck
 ----------------------------------------------------------------------

 ------------------------------------
 CID_148450483_JID_2744_Energie_anion
 ------------------------------------
 Structure from the checkpoint file:  "JID_2744.chk"
 Charge = -1 Multiplicity = 2

                         Standard orientation:
 ---------------------------------------------------------------------
 Center     Atomic      Atomic             Coordinates (Angstroms)
 Number     Number       Type             X           Y           Z
 ---------------------------------------------------------------------
      1          6           0       -2.673094    1.178909    1.287087
      2          6           0       -3.053354   -0.016836    0.444635
      3          6           0       -3.018874    0.041730   -1.053990
      4          6           0       -2.004093   -0.820588   -0.333332
      5          6           0       -0.560571   -0.498823   -0.262390
      6          6           0        0.332158   -1.394365    0.347097
      7          7           0        1.638480   -1.164203    0.469885
      8          6           0        2.070820    0.000212   -0.033073
      9          7           0        1.336729    0.932217   -0.651085
     10          6           0        0.032603    0.668380   -0.761984
     11          6           0        3.484657    0.275891    0.101352
     12          7           0        4.618964    0.498101    0.211128
     13          1           0       -3.538552    1.835954    1.429049
     14          1           0       -1.881031    1.774018    0.822168
     15          1           0       -2.317624    0.869164    2.276449
     16          1           0       -3.837585   -0.634774    0.877610
     17          1           0       -3.788294   -0.468670   -1.625569
     18          1           0       -2.675127    0.965365   -1.511581
     19          1           0       -2.195487   -1.891036   -0.358498
     20          1           0       -0.030068   -2.339365    0.749666
     21          1           0       -0.556947    1.419476   -1.281203
 ---------------------------------------------------------------------

 SCF Done:  E(UB3LYP) =  -512.768131392     A.U. after   31 cycles

 The electronic state is 2-A.
 Alpha  occ. eigenvalues --  -14.16444 -14.16207 -14.14063 -10.07963 -10.07356
 Alpha  occ. eigenvalues --  -10.07152 -10.07087 -10.06967 -10.06855 -10.06364
 Alpha  occ. eigenvalues --  -10.04045 -10.03201  -0.83828  -0.76119  -0.74086
 Alpha  occ. eigenvalues --   -0.74010  -0.65477  -0.61270  -0.54949  -0.51663
 Alpha  occ. eigenvalues --   -0.48367  -0.45157  -0.41940  -0.40137  -0.36434
 Alpha  occ. eigenvalues --   -0.35617  -0.31636  -0.29866  -0.29295  -0.28920
 Alpha  occ. eigenvalues --   -0.27800  -0.26659  -0.25191  -0.21348  -0.21085
 Alpha  occ. eigenvalues --   -0.19377  -0.18397  -0.17743  -0.17577  -0.16201
 Alpha  occ. eigenvalues --   -0.12013  -0.10634   0.04058
 Alpha virt. eigenvalues --    0.06659   0.08614   0.09027   0.09656   0.10022
 Alpha virt. eigenvalues --    0.11448   0.11971   0.12547   0.13673   0.14074
 Alpha virt. eigenvalues --    0.15277   0.16183   0.16741   0.17406   0.17631

  Beta  occ. eigenvalues --  -14.16311 -14.16011 -14.13704 -10.07485 -10.07269
  Beta  occ. eigenvalues --  -10.07182 -10.07131 -10.06959 -10.06832 -10.06366
  Beta  occ. eigenvalues --  -10.04090 -10.02763  -0.83288  -0.75959  -0.73579
  Beta  occ. eigenvalues --   -0.73542  -0.64815  -0.61212  -0.54164  -0.51499
  Beta  occ. eigenvalues --   -0.48192  -0.44961  -0.41607  -0.40015  -0.36252
  Beta  occ. eigenvalues --   -0.35455  -0.31530  -0.29709  -0.29103  -0.27863
  Beta  occ. eigenvalues --   -0.27409  -0.26439  -0.25068  -0.20530  -0.20230
  Beta  occ. eigenvalues --   -0.19184  -0.17547  -0.17453  -0.16428  -0.15895
  Beta  occ. eigenvalues --   -0.10468  -0.10023
  Beta virt. eigenvalues --    0.06730   0.08545   0.08903   0.09923   0.10008
  Beta virt. eigenvalues --    0.10830   0.11460   0.11868   0.12506   0.13670
  Beta virt. eigenvalues --    0.14063   0.15282   0.16184   0.16668   0.17394

 Mulliken charges and spin densities:
               1          2
     1  C   -0.705895  -0.003972
     2  C    0.397716  -0.292487
     3  C   -0.348717  -0.070101
     4  C   -0.705101   0.104355
     5  C    0.879501   0.290369
     6  C   -0.304899  -0.054028
     7  N   -0.079238   0.051296
     8  C    1.143114   0.375269
     9  N   -0.063259   0.079264
    10  C   -0.200220   0.023667
    11  C   -1.546934  -0.122099
    12  N   -0.352005   0.190284
    13  H    0.105838   0.013011
    14  H    0.157969  -0.002438
    15  H    0.134304  -0.005530
    16  H   -0.048799   0.218786
    17  H    0.112423   0.022321
    18  H    0.111541  -0.000608
    19  H    0.060892   0.165925
    20  H    0.110585   0.016322
    21  H    0.141183   0.000395
 Sum of Mulliken charges =  -1.00000   1.00000

 Dipole moment (field-independent basis, Debye):
    X=            -10.2891    Y=             -0.1901    Z=             -0.3897  Tot=             10.2983
 Quadrupole moment (field-independent basis, Debye-Ang):
   XX=           -141.0691   YY=            -82.9190   ZZ=            -78.9921
   XY=             -6.0876   XZ=             -0.9248   YZ=              1.4213

 Summary of Natural Population Analysis:

                                       Natural Population
                Natural  -----------------------------------------------
    Atom  No    Charge         Core      Valence    Rydberg      Total
 -----------------------------------------------------------------------
      C    1   -0.28932      0.99965     2.28414    0.00554     3.28932
      C    2   -0.09722      0.99960     2.08785    0.00976     3.09722
      C    3   -0.19491      0.99961     2.18637    0.00892     3.19491
      C    4   -0.11772      0.99957     2.10565    0.01250     3.11772
      C    5    0.00411      0.99948     1.98526    0.01114     2.99589
      C    6    0.04094      0.99956     1.94681    0.01270     2.95906
      N    7   -0.21346      0.99969     2.70342    0.01035     3.71346
      C    8    0.20957      0.99950     1.77294    0.01799     2.79043
      N    9   -0.20566      0.99969     2.69543    0.01054     3.70566
      C   10    0.02632      0.99955     1.96162    0.01251     2.97368
      C   11    0.13523      0.99964     1.84669    0.01844     2.86477
      N   12   -0.15408      0.99978     2.64265    0.01164     3.65408
      H   13    0.09342      0.00000     0.40584    0.00075     0.40658
      H   14    0.10531      0.00000     0.39378    0.00092     0.39469
      H   15    0.09982      0.00000     0.39947    0.00071     0.40018
      H   16    0.09605      0.00000     0.40238    0.00157     0.40395
      H   17    0.09826      0.00000     0.40094    0.00079     0.40174
      H   18    0.09889      0.00000     0.40009    0.00102     0.40111
      H   19    0.10458      0.00000     0.39418    0.00123     0.39542
      H   20    0.07952      0.00000     0.41891    0.00157     0.42048
      H   21    0.08033      0.00000     0.41843    0.00124     0.41967
 =======================================================================
   * Total *   -0.00000     11.99533    29.85284    0.15183    42.00000

 Normal termination of Gaussian 16 at Wed Dec  9 18:08:43 2020.
