 Gaussian 16, Revision A.03,

 -----------------------------------------------------------
 # opt freq B3LYP/6-31G(d) empiricaldispersion=gd3bj scf=xqc
 -----------------------------------------------------------

 ----------------------------
 CID_126341_JID_5557_neutraal
 ----------------------------
 Symbolic Z-matrix:
 Charge =  0 Multiplicity = 1

 SCF Done:  E(RB3LYP) =  -1461.03706364     A.U. after   16 cycles
 SCF Done:  E(RB3LYP) =  -1461.04593430     A.U. after   15 cycles
 SCF Done:  E(RB3LYP) =  -1461.04567045     A.U. after   17 cycles
 SCF Done:  E(RB3LYP) =  -1461.04356269     A.U. after   15 cycles
 SCF Done:  E(RB3LYP) =  -1461.04074033     A.U. after   14 cycles
 SCF Done:  E(RB3LYP) =  -1461.04618986     A.U. after   11 cycles
 SCF Done:  E(RB3LYP) =  -1461.04881961     A.U. after   15 cycles
 SCF Done:  E(RB3LYP) =  -1461.04884776     A.U. after   13 cycles
 SCF Done:  E(RB3LYP) =  -1461.04872159     A.U. after   14 cycles
 SCF Done:  E(RB3LYP) =  -1461.04881793     A.U. after   14 cycles
 SCF Done:  E(RB3LYP) =  -1461.04993363     A.U. after   11 cycles
 SCF Done:  E(RB3LYP) =  -1461.04993508     A.U. after    9 cycles
 SCF Done:  E(RB3LYP) =  -1461.04993527     A.U. after    9 cycles
 SCF Done:  E(RB3LYP) =  -1461.04993533     A.U. after    8 cycles
 SCF Done:  E(RB3LYP) =  -1461.04993533     A.U. after    8 cycles
 Optimization completed.
    -- Stationary point found.
 Normal termination of Gaussian 16 at Thu Dec 10 15:54:23 2020.

 --------------------------------------------------------------------
 #N Geom=AllCheck Guess=TCheck SCRF=Check GenChk RB3LYP/6-31G(d) Freq
 --------------------------------------------------------------------

 Structure from the checkpoint file:  "JID_5557.chk"
 ----------------------------
 CID_126341_JID_5557_neutraal
 ----------------------------
 Charge =  0 Multiplicity = 1

 SCF Done:  E(RB3LYP) =  -1461.04993533     A.U. after    1 cycles

  Exact polarizability: 225.482   3.403 127.262   4.283   9.083  78.430
 Approx polarizability: 296.440   7.030 257.386  15.391  24.504 127.297

                      1                      2                      3
                      A                      A                      A
 Frequencies --     17.6592                29.8677                52.1639
 Red. masses --      6.1206                 7.6855                 8.4854
 Frc consts  --      0.0011                 0.0040                 0.0136
 IR Inten    --      0.6295                 0.6961                 0.6356

                      4                      5                      6
                      A                      A                      A
 Frequencies --     65.3152                76.9880                96.8893
 Red. masses --      7.6477                 5.1251                 6.9558
 Frc consts  --      0.0192                 0.0179                 0.0385
 IR Inten    --      0.4601                 0.8546                 3.1147

                      7                      8                      9
                      A                      A                      A
 Frequencies --    138.7099               173.1048               191.3613
 Red. masses --      6.7257                 2.1876                 2.4473
 Frc consts  --      0.0762                 0.0386                 0.0528
 IR Inten    --      2.7950                 2.4956                 0.8153

                     10                     11                     12
                      A                      A                      A
 Frequencies --    202.8038               247.7058               263.9451
 Red. masses --      4.1261                 7.7328                 5.4983
 Frc consts  --      0.1000                 0.2796                 0.2257
 IR Inten    --      0.8381                 5.7428                 1.6583

                     13                     14                     15
                      A                      A                      A
 Frequencies --    322.2187               373.8688               415.3032
 Red. masses --      7.7215                 7.3667                 9.8502
 Frc consts  --      0.4723                 0.6067                 1.0010
 IR Inten    --      1.2423                 0.7407                 9.9330

                     16                     17                     18
                      A                      A                      A
 Frequencies --    425.3788               492.7300               510.9634
 Red. masses --      3.1772                 8.8134                 4.1619
 Frc consts  --      0.3387                 1.2607                 0.6402
 IR Inten    --      0.7230                 3.8783                 4.6903

                     19                     20                     21
                      A                      A                      A
 Frequencies --    523.8487               541.1129               642.3172
 Red. masses --     13.3711                 7.3218                 7.2890
 Frc consts  --      2.1619                 1.2631                 1.7718
 IR Inten    --      1.8552                 0.5761                 1.4660

                     22                     23                     24
                      A                      A                      A
 Frequencies --    651.4459               652.8914               691.6218
 Red. masses --      9.7772                10.1787                 5.4801
 Frc consts  --      2.4447                 2.5564                 1.5445
 IR Inten    --      5.6146                 4.0890                 3.9292

                     25                     26                     27
                      A                      A                      A
 Frequencies --    692.5051               755.2164               811.9620
 Red. masses --      4.5074                 5.4889                 7.6310
 Frc consts  --      1.2736                 1.8445                 2.9642
 IR Inten    --      5.2512                27.5289                17.0881

                     28                     29                     30
                      A                      A                      A
 Frequencies --    836.1555               844.7385               877.9534
 Red. masses --      1.2851                 3.6944                 8.0144
 Frc consts  --      0.5294                 1.5532                 3.6397
 IR Inten    --      0.9633                57.0236                48.0254

                     31                     32                     33
                      A                      A                      A
 Frequencies --    886.5183               979.2017               984.4224
 Red. masses --      2.4922                 1.3225                 1.3055
 Frc consts  --      1.1540                 0.7471                 0.7454
 IR Inten    --     37.5759                 0.1083                 1.0775

                     34                     35                     36
                      A                      A                      A
 Frequencies --    998.2670              1002.9552              1036.4848
 Red. masses --      1.2004                 1.2624                 2.7204
 Frc consts  --      0.7048                 0.7482                 1.7219
 IR Inten    --      3.8398                45.7669                 6.1900

                     37                     38                     39
                      A                      A                      A
 Frequencies --   1124.5146              1136.5368              1139.1554
 Red. masses --      9.0330                 1.4214                 2.2882
 Frc consts  --      6.7300                 1.0818                 1.7495
 IR Inten    --   1054.1460                23.0579                14.1566

                     40                     41                     42
                      A                      A                      A
 Frequencies --   1197.9129              1243.1206              1327.3531
 Red. masses --      1.3562                 4.1952                 1.3118
 Frc consts  --      1.1466                 3.8197                 1.3618
 IR Inten    --    133.1683               543.4672                 0.8979

                     43                     44                     45
                      A                      A                      A
 Frequencies --   1380.0677              1381.2385              1400.8240
 Red. masses --      1.1803                 7.9350                14.0393
 Frc consts  --      1.3244                 8.9194                16.2317
 IR Inten    --      2.6016                29.0030               308.5024

                     46                     47                     48
                      A                      A                      A
 Frequencies --   1463.9149              1488.1390              1512.6587
 Red. masses --      3.4862                 1.0512                 1.0547
 Frc consts  --      4.4018                 1.3716                 1.4219
 IR Inten    --      0.7949                10.3990                 9.3824

                     49                     50                     51
                      A                      A                      A
 Frequencies --   1538.1853              1624.7506              1653.1816
 Red. masses --      2.3950                11.1676                 6.0215
 Frc consts  --      3.3387                17.3694                 9.6961
 IR Inten    --     95.2331               120.4620                88.5167

                     52                     53                     54
                      A                      A                      A
 Frequencies --   1677.7521              1831.3043              3073.6099
 Red. masses --      9.2056                12.9799                 1.0295
 Frc consts  --     15.2671                25.6474                 5.7301
 IR Inten    --     89.2718               165.8899                13.1938

                     55                     56                     57
                      A                      A                      A
 Frequencies --   3161.9044              3182.9630              3230.3423
 Red. masses --      1.1041                 1.1092                 1.0911
 Frc consts  --      6.5038                 6.6213                 6.7083
 IR Inten    --      2.9975                 3.0001                 1.0639

                     58                     59                     60
                      A                      A                      A
 Frequencies --   3255.1244              3259.2854              3275.0211
 Red. masses --      1.0904                 1.0931                 1.0939
 Frc consts  --      6.8074                 6.8417                 6.9129
 IR Inten    --      1.2713                 1.9971                 1.4627

 - Thermochemistry -
 -------------------
 Temperature   298.150 Kelvin.  Pressure   1.00000 Atm.
 Atom     1 has atomic number  6 and mass  12.00000

 Molecular mass:   244.98165 amu.
 Principal axes and moments of inertia in atomic units:
                           1         2         3
     Eigenvalues --   987.26299********************
           X            0.99995   0.00544  -0.00859
           Y           -0.00537   0.99995   0.00842
           Z            0.00863  -0.00838   0.99993
 This molecule is an asymmetric top.
 Rotational symmetry number  1.
 Warning -- assumption of classical behavior for rotation
           may cause significant error
 Rotational temperatures (Kelvin)      0.08773     0.00779     0.00746
 Rotational constants (GHZ):           1.82802     0.16228     0.15545
 Zero-point vibrational energy     389177.9 (Joules/Mol)
                                   93.01574 (Kcal/Mol)
 Warning -- explicit consideration of  20 degrees of freedom as
           vibrations may cause significant error
 Vibrational temperatures:     25.41    42.97    75.05    93.97   110.77
          (Kelvin)            139.40   199.57   249.06   275.33   291.79
                              356.39   379.76   463.60   537.91   597.53
                              612.03   708.93   735.16   753.70   778.54
                              924.15   937.29   939.37   995.09   996.36
                             1086.59  1168.23  1203.04  1215.39  1263.18
                             1275.50  1408.85  1416.36  1436.28  1443.03
                             1491.27  1617.93  1635.22  1638.99  1723.53
                             1788.57  1909.77  1985.61  1987.29  2015.47
                             2106.25  2141.10  2176.38  2213.11  2337.65
                             2378.56  2413.91  2634.84  4422.24  4549.28
                             4579.57  4647.74  4683.40  4689.38  4712.02

 Zero-point correction=                           0.148230 (Hartree/Particle)
 Thermal correction to Energy=                    0.162909
 Thermal correction to Enthalpy=                  0.163853
 Thermal correction to Gibbs Free Energy=         0.103001
 Sum of electronic and zero-point Energies=          -1460.901705
 Sum of electronic and thermal Energies=             -1460.887027
 Sum of electronic and thermal Enthalpies=           -1460.886082
 Sum of electronic and thermal Free Energies=        -1460.946935

                     E (Thermal)             CV                S
                      KCal/Mol        Cal/Mol-Kelvin    Cal/Mol-Kelvin
 Total                  102.227             51.647            128.075
 Electronic               0.000              0.000              0.000
 Translational            0.889              2.981             42.389
 Rotational               0.889              2.981             33.210
 Vibrational            100.449             45.685             52.475
 Vibration     1          0.593              1.986              6.881
 Vibration     2          0.594              1.984              5.838
 Vibration     3          0.596              1.977              4.734
 Vibration     4          0.597              1.971              4.290
 Vibration     5          0.599              1.965              3.966
 Vibration     6          0.603              1.951              3.516
 Vibration     7          0.614              1.915              2.822
 Vibration     8          0.627              1.876              2.402
 Vibration     9          0.634              1.852              2.215
 Vibration    10          0.639              1.836              2.108
 Vibration    11          0.661              1.767              1.747
 Vibration    12          0.671              1.739              1.636
 Vibration    13          0.707              1.631              1.299
 Vibration    14          0.745              1.526              1.064
 Vibration    15          0.779              1.437              0.908
 Vibration    16          0.787              1.415              0.874
 Vibration    17          0.848              1.266              0.677
 Vibration    18          0.866              1.226              0.631
 Vibration    19          0.879              1.197              0.601
 Vibration    20          0.896              1.159              0.563

 Optimization completed.
    -- Stationary point found.
 Normal termination of Gaussian 16 at Thu Dec 10 15:59:50 2020.

 ----------------------------------------------------------------------
 # B3LYP/6-311++G(d,p) empiricaldispersion=gd3bj scf=xqc pop=npa geom=c
 heck
 ----------------------------------------------------------------------

 ------------------------------------
 CID_126341_JID_5557_Energie_neutraal
 ------------------------------------
 Structure from the checkpoint file:  "JID_5557.chk"
 Charge =  0 Multiplicity = 1

 SCF Done:  E(RB3LYP) =  -1461.29416188     A.U. after   16 cycles
 Normal termination of Gaussian 16 at Thu Dec 10 16:02:11 2020.

 ----------------------------------------------------------------------
 # B3LYP/6-311++G(d,p) empiricaldispersion=gd3bj scf=xqc pop=npa geom=c
 heck
 ----------------------------------------------------------------------

 ----------------------------------
 CID_126341_JID_5557_Energie_kation
 ----------------------------------
 Structure from the checkpoint file:  "JID_5557.chk"
 Charge =  1 Multiplicity = 2

 SCF Done:  E(UB3LYP) =  -1460.96142815     A.U. after   33 cycles
 SCF Done:  E(UB3LYP) =  -1460.96142815     a.u. after    1 cycles
 Normal termination of Gaussian 16 at Thu Dec 10 16:08:50 2020.
 Gaussian 16:  ES64L-G16RevA.03 25-Dec-2016

 ----------------------------------------------------------------------
 # B3LYP/6-311++G(d,p) empiricaldispersion=gd3bj scf=xqc pop=npa geom=c
 heck
 ----------------------------------------------------------------------

 ---------------------------------
 CID_126341_JID_5557_Energie_anion
 ---------------------------------
 Structure from the checkpoint file:  "JID_5557.chk"
 Charge = -1 Multiplicity = 2

                         Standard orientation:
 ---------------------------------------------------------------------
 Center     Atomic      Atomic             Coordinates (Angstroms)
 Number     Number       Type             X           Y           Z
 ---------------------------------------------------------------------
      1          6           0       -4.711967   -0.777855    1.525394
      2         16           0       -4.676092   -0.462667   -0.278358
      3         16           0       -3.220536    1.005514   -0.421925
      4          6           0       -1.713918    0.032205   -0.207358
      5          8           0       -1.637341   -1.127094    0.091697
      6          8           0       -0.681182    0.896306   -0.409597
      7          6           0        0.644239    0.502859   -0.250583
      8          6           0        1.491880    1.493094    0.248378
      9          6           0        2.847596    1.226058    0.388454
     10          6           0        3.322329   -0.032202    0.023640
     11          6           0        2.481040   -1.020971   -0.480158
     12          6           0        1.123038   -0.754662   -0.624427
     13          7           0        4.753667   -0.322300    0.171795
     14          8           0        5.473634    0.572299    0.614753
     15          8           0        5.146386   -1.441489   -0.155836
     16          1           0       -5.507583   -1.511686    1.686267
     17          1           0       -4.941539    0.136513    2.075859
     18          1           0       -3.757757   -1.199043    1.845376
     19          1           0        1.076841    2.457823    0.517510
     20          1           0        3.535676    1.967609    0.773158
     21          1           0        2.895028   -1.982392   -0.755678
     22          1           0        0.452318   -1.509600   -1.008700
 ---------------------------------------------------------------------

 SCF Done:  E(UB3LYP) =  -1461.34045144     A.U. after   25 cycles

 The electronic state is 2-A.
 Alpha  occ. eigenvalues --  -88.79754 -88.79143 -19.08862 -19.03276 -18.95910
 Alpha  occ. eigenvalues --  -18.95907 -14.33882 -10.23077 -10.12686 -10.11521
 Alpha  occ. eigenvalues --  -10.07269 -10.06158 -10.05964 -10.05320 -10.05191
 Alpha  occ. eigenvalues --   -7.88267  -7.87612  -5.84705  -5.84249  -5.84097
 Alpha  occ. eigenvalues --   -5.83644  -5.83639  -5.82899  -1.03954  -1.02651
 Alpha  occ. eigenvalues --   -0.95058  -0.86831  -0.75234  -0.74206  -0.67910
 Alpha  occ. eigenvalues --   -0.64888  -0.63750  -0.58752  -0.54090  -0.50867
 Alpha  occ. eigenvalues --   -0.48601  -0.44675  -0.40507  -0.40317  -0.38542
 Alpha  occ. eigenvalues --   -0.38382  -0.36558  -0.36268  -0.36107  -0.34834
 Alpha  occ. eigenvalues --   -0.33111  -0.32572  -0.31623  -0.30797  -0.30749
 Alpha  occ. eigenvalues --   -0.28129  -0.27012  -0.26101  -0.23994  -0.22686
 Alpha  occ. eigenvalues --   -0.20284  -0.18949  -0.16576  -0.15269  -0.14114
 Alpha  occ. eigenvalues --   -0.13568  -0.13301  -0.11574   0.01541
 Alpha virt. eigenvalues --    0.03845   0.05759   0.07662   0.08207   0.09034
 Alpha virt. eigenvalues --    0.09424   0.10037   0.10299   0.11334   0.11756
 Alpha virt. eigenvalues --    0.12404   0.12950   0.13129   0.13774   0.14178

  Beta  occ. eigenvalues --  -88.79744 -88.79129 -19.08894 -19.03198 -18.95477
  Beta  occ. eigenvalues --  -18.95475 -14.33347 -10.22940 -10.12676 -10.11227
  Beta  occ. eigenvalues --  -10.07167 -10.06218 -10.06021 -10.05196 -10.05062
  Beta  occ. eigenvalues --   -7.88257  -7.87598  -5.84688  -5.84240  -5.84056
  Beta  occ. eigenvalues --   -5.83635  -5.83627  -5.82892  -1.03031  -1.02537
  Beta  occ. eigenvalues --   -0.94946  -0.86017  -0.75032  -0.74052  -0.67629
  Beta  occ. eigenvalues --   -0.64574  -0.63554  -0.58335  -0.53765  -0.50607
  Beta  occ. eigenvalues --   -0.48251  -0.44435  -0.40359  -0.40159  -0.38053
  Beta  occ. eigenvalues --   -0.37921  -0.36508  -0.36179  -0.34585  -0.33449
  Beta  occ. eigenvalues --   -0.32965  -0.32193  -0.31439  -0.30681  -0.30528
  Beta  occ. eigenvalues --   -0.27873  -0.26698  -0.25954  -0.23647  -0.22383
  Beta  occ. eigenvalues --   -0.20222  -0.18832  -0.16512  -0.14095  -0.13135
  Beta  occ. eigenvalues --   -0.12129  -0.11696  -0.11143
  Beta virt. eigenvalues --    0.04101   0.05710   0.07347   0.08097   0.08681
  Beta virt. eigenvalues --    0.09412   0.09916   0.10202   0.10403   0.11430
  Beta virt. eigenvalues --    0.11838   0.12460   0.12962   0.13314   0.13868

 Mulliken charges and spin densities:
               1          2
     1  C   -0.649411  -0.047225
     2  S    0.170113   0.037756
     3  S   -0.017198   0.021552
     4  C   -0.242471   0.066703
     5  O   -0.185083   0.028984
     6  O    0.034464  -0.017211
     7  C   -0.252020   0.151986
     8  C   -0.129388  -0.023741
     9  C    0.078230   0.142711
    10  C   -0.307151  -0.022552
    11  C   -0.316260   0.137709
    12  C    0.171483  -0.018931
    13  N   -0.233755   0.179018
    14  O   -0.184698   0.164635
    15  O   -0.177926   0.166150
    16  H    0.120768   0.021756
    17  H    0.140528   0.010538
    18  H    0.203618   0.011971
    19  H    0.152446   0.002144
    20  H    0.221723  -0.007941
    21  H    0.216811  -0.007876
    22  H    0.185179   0.001865
 Sum of Mulliken charges =  -1.00000   1.00000

 Dipole moment (field-independent basis, Debye):
    X=            -14.3231    Y=              1.5595    Z=              0.6491  Tot=             14.4223
 Quadrupole moment (field-independent basis, Debye-Ang):
   XX=           -212.7569   YY=           -111.6923   ZZ=           -105.5949
   XY=              8.4391   XZ=            -10.8621   YZ=              0.1135

 Summary of Natural Population Analysis:

                                       Natural Population
                Natural  -----------------------------------------------
    Atom  No    Charge         Core      Valence    Rydberg      Total
 -----------------------------------------------------------------------
      C    1   -0.35166      0.99963     2.34557    0.00646     3.35166
      S    2    0.04730      4.99970     2.92908    0.02392     7.95270
      S    3    0.03855      4.99962     2.94099    0.02084     7.96145
      C    4    0.34253      0.99975     1.62781    0.02990     2.65747
      O    5   -0.28551      0.99986     3.27813    0.00752     4.28551
      O    6   -0.28105      0.99983     3.27070    0.01052     4.28105
      C    7    0.18955      0.99935     1.79974    0.01136     2.81045
      C    8   -0.13673      0.99953     2.12858    0.00861     3.13673
      C    9   -0.06964      0.99954     2.06029    0.00982     3.06964
      C   10    0.05325      0.99940     1.93598    0.01138     2.94675
      C   11   -0.06620      0.99954     2.05681    0.00985     3.06620
      C   12   -0.14044      0.99953     2.13272    0.00819     3.14044
      N   13    0.29517      0.99972     2.17767    0.02744     3.20483
      O   14   -0.19547      0.99990     3.18768    0.00789     4.19547
      O   15   -0.19391      0.99990     3.18615    0.00786     4.19391
      H   16    0.10280      0.00000     0.39538    0.00181     0.39720
      H   17    0.10137      0.00000     0.39639    0.00224     0.39863
      H   18    0.11155      0.00000     0.38641    0.00204     0.38845
      H   19    0.10093      0.00000     0.39806    0.00101     0.39907
      H   20    0.11411      0.00000     0.38462    0.00127     0.38589
      H   21    0.11424      0.00000     0.38450    0.00125     0.38576
      H   22    0.10924      0.00000     0.38963    0.00113     0.39076
 =======================================================================
   * Total *    0.00000     22.99479    39.79289    0.21232    63.00000

 Normal termination of Gaussian 16 at Thu Dec 10 16:13:56 2020.
