 Gaussian 16, Revision A.03,

 -----------------------------------------------------------
 # opt freq B3LYP/6-31G(d) empiricaldispersion=gd3bj scf=xqc
 -----------------------------------------------------------

 --------------------------------
 CID_141969953_JID_10807_neutraal
 --------------------------------
 Symbolic Z-matrix:
 Charge =  0 Multiplicity = 1

 SCF Done:  E(RB3LYP) =  -829.801244592     A.U. after   14 cycles
 SCF Done:  E(RB3LYP) =  -829.806462368     A.U. after   11 cycles
 SCF Done:  E(RB3LYP) =  -829.805713465     A.U. after   12 cycles
 SCF Done:  E(RB3LYP) =  -829.807411020     A.U. after   12 cycles
 SCF Done:  E(RB3LYP) =  -829.807745140     A.U. after   11 cycles
 SCF Done:  E(RB3LYP) =  -829.807821655     A.U. after   10 cycles
 SCF Done:  E(RB3LYP) =  -829.807833887     A.U. after    9 cycles
 SCF Done:  E(RB3LYP) =  -829.807838216     A.U. after    9 cycles
 SCF Done:  E(RB3LYP) =  -829.807842243     A.U. after    9 cycles
 SCF Done:  E(RB3LYP) =  -829.807983761     A.U. after   12 cycles
 SCF Done:  E(RB3LYP) =  -829.813018462     A.U. after    8 cycles
 SCF Done:  E(RB3LYP) =  -829.813018500     A.U. after    8 cycles
 SCF Done:  E(RB3LYP) =  -829.813018479     A.U. after    7 cycles
 SCF Done:  E(RB3LYP) =  -829.813018451     A.U. after    6 cycles
 SCF Done:  E(RB3LYP) =  -829.813018439     A.U. after    6 cycles
 Optimization completed.
    -- Stationary point found.
 Normal termination of Gaussian 16 at Sat Dec 12 17:31:40 2020.

 --------------------------------------------------------------------
 #N Geom=AllCheck Guess=TCheck SCRF=Check GenChk RB3LYP/6-31G(d) Freq
 --------------------------------------------------------------------

 Structure from the checkpoint file:  "JID_10807.chk"
 --------------------------------
 CID_141969953_JID_10807_neutraal
 --------------------------------
 Charge =  0 Multiplicity = 1

 SCF Done:  E(RB3LYP) =  -829.813018439     A.U. after    1 cycles

  Exact polarizability: 232.404   6.207 190.493  -8.887  27.232 142.836
 Approx polarizability: 319.607  11.608 277.303 -14.007  58.807 242.785

                      1                      2                      3
                      A                      A                      A
 Frequencies --     12.3138                18.1155                33.5513
 Red. masses --      1.5448                 1.7593                 4.0043
 Frc consts  --      0.0001                 0.0003                 0.0027
 IR Inten    --      0.0874                 0.1237                 0.0075

                      4                      5                      6
                      A                      A                      A
 Frequencies --     56.3710                63.4351                89.1121
 Red. masses --      4.2710                 3.5347                 3.7336
 Frc consts  --      0.0080                 0.0084                 0.0175
 IR Inten    --      0.1848                 0.0722                 0.1402

                      7                      8                      9
                      A                      A                      A
 Frequencies --     96.4981               107.1454               116.6164
 Red. masses --      3.5148                 1.7384                 3.6681
 Frc consts  --      0.0193                 0.0118                 0.0294
 IR Inten    --      0.1483                 0.9981                 0.0904

                     10                     11                     12
                      A                      A                      A
 Frequencies --    182.9582               189.4872               198.2782
 Red. masses --      2.8429                 4.2791                 3.1760
 Frc consts  --      0.0561                 0.0905                 0.0736
 IR Inten    --      1.4638                 0.3285                 2.3093

                     13                     14                     15
                      A                      A                      A
 Frequencies --    240.1872               262.1929               278.9946
 Red. masses --      3.4037                 1.4503                 2.0278
 Frc consts  --      0.1157                 0.0587                 0.0930
 IR Inten    --      0.5410                 0.9217                 0.1089

                     16                     17                     18
                      A                      A                      A
 Frequencies --    285.4012               322.1943               342.5157
 Red. masses --      3.0028                 3.9507                 2.3444
 Frc consts  --      0.1441                 0.2416                 0.1621
 IR Inten    --      2.2721                 2.3639                 1.6887

                     19                     20                     21
                      A                      A                      A
 Frequencies --    381.4300               404.7120               419.2286
 Red. masses --      2.9873                 3.3063                 3.1649
 Frc consts  --      0.2561                 0.3191                 0.3277
 IR Inten    --      0.1781                 0.5675                 0.9396

                     22                     23                     24
                      A                      A                      A
 Frequencies --    467.0284               486.9234               491.8193
 Red. masses --      3.2196                 3.1201                 3.4339
 Frc consts  --      0.4138                 0.4358                 0.4894
 IR Inten    --      0.7666                 7.7544                 0.9586

                     25                     26                     27
                      A                      A                      A
 Frequencies --    541.7911               571.4457               592.6835
 Red. masses --      3.3014                 3.9130                 3.4153
 Frc consts  --      0.5710                 0.7529                 0.7069
 IR Inten    --      0.6344                 2.2191                 2.2378

                     28                     29                     30
                      A                      A                      A
 Frequencies --    613.9806               619.0303               676.6024
 Red. masses --      3.4628                 2.9848                 4.0508
 Frc consts  --      0.7691                 0.6739                 1.0926
 IR Inten    --      6.0481                 0.8048                 0.5989

                     31                     32                     33
                      A                      A                      A
 Frequencies --    721.8181               729.0471               740.6860
 Red. masses --      2.2355                 1.7114                 3.4184
 Frc consts  --      0.6862                 0.5359                 1.1049
 IR Inten    --     28.4619                13.4285                 8.0835

                     34                     35                     36
                      A                      A                      A
 Frequencies --    759.5550               769.6898               783.9273
 Red. masses --      3.7279                 3.4190                 1.4995
 Frc consts  --      1.2672                 1.1934                 0.5429
 IR Inten    --      1.2977                 2.9494                86.1275

                     37                     38                     39
                      A                      A                      A
 Frequencies --    805.5340               832.6464               836.5841
 Red. masses --      1.3041                 1.1597                 1.3173
 Frc consts  --      0.4986                 0.4737                 0.5432
 IR Inten    --     15.4858                 4.0487                18.2685

                     40                     41                     42
                      A                      A                      A
 Frequencies --    856.8977               881.4865               898.3891
 Red. masses --      1.2817                 2.0037                 1.4784
 Frc consts  --      0.5545                 0.9173                 0.7030
 IR Inten    --      0.2801                 3.1275                 2.5960

                     43                     44                     45
                      A                      A                      A
 Frequencies --    910.3806               923.3314               934.5704
 Red. masses --      5.9696                 2.2495                 1.7583
 Frc consts  --      2.9150                 1.1299                 0.9048
 IR Inten    --      3.8560                 3.8123                 1.9431

                     46                     47                     48
                      A                      A                      A
 Frequencies --    945.1720               948.7307               961.2424
 Red. masses --      2.2142                 2.9826                 1.3382
 Frc consts  --      1.1654                 1.5817                 0.7285
 IR Inten    --      0.6542                13.2033                 0.6311

                     49                     50                     51
                      A                      A                      A
 Frequencies --    975.4635              1001.8432              1013.7759
 Red. masses --      2.6149                 2.4728                 2.3878
 Frc consts  --      1.4660                 1.4623                 1.4459
 IR Inten    --      9.0574                 2.5939                 6.5117

                     52                     53                     54
                      A                      A                      A
 Frequencies --   1036.1723              1042.9244              1054.7281
 Red. masses --      1.5937                 1.4152                 3.0399
 Frc consts  --      1.0081                 0.9069                 1.9925
 IR Inten    --      3.4805                20.4083                 8.3325

                     55                     56                     57
                      A                      A                      A
 Frequencies --   1073.6557              1074.8328              1118.9475
 Red. masses --      1.9232                 1.5924                 2.5313
 Frc consts  --      1.3062                 1.0839                 1.8673
 IR Inten    --      1.6134                10.5904                 5.8971

                     58                     59                     60
                      A                      A                      A
 Frequencies --   1121.6368              1139.3278              1153.0806
 Red. masses --      2.4442                 2.0952                 2.0139
 Frc consts  --      1.8117                 1.6024                 1.5777
 IR Inten    --      6.5631                18.8453                16.0301

                     61                     62                     63
                      A                      A                      A
 Frequencies --   1163.4441              1166.2071              1180.9286
 Red. masses --      2.3203                 1.5221                 1.6577
 Frc consts  --      1.8505                 1.2197                 1.3621
 IR Inten    --     41.7238                 4.2860                 0.1400

                     64                     65                     66
                      A                      A                      A
 Frequencies --   1192.2100              1193.4653              1227.9261
 Red. masses --      1.8638                 1.5261                 1.9109
 Frc consts  --      1.5609                 1.2807                 1.6976
 IR Inten    --     12.3290                 2.7535                 5.0223

                     67                     68                     69
                      A                      A                      A
 Frequencies --   1241.6641              1247.9843              1260.4983
 Red. masses --      1.5105                 1.6557                 2.0850
 Frc consts  --      1.3721                 1.5193                 1.9518
 IR Inten    --      4.1303                 1.5193                 1.5803

                     70                     71                     72
                      A                      A                      A
 Frequencies --   1269.8717              1289.2695              1295.0952
 Red. masses --      2.4200                 1.6867                 1.4680
 Frc consts  --      2.2993                 1.6518                 1.4507
 IR Inten    --      0.8069                 2.9777                 1.8020

                     73                     74                     75
                      A                      A                      A
 Frequencies --   1308.9585              1322.4099              1346.6379
 Red. masses --      1.3068                 1.2989                 1.4622
 Frc consts  --      1.3192                 1.3383                 1.5623
 IR Inten    --      0.6203                 7.8581                 6.6180

                     76                     77                     78
                      A                      A                      A
 Frequencies --   1352.8976              1365.9087              1373.4968
 Red. masses --      2.1288                 1.4577                 1.4710
 Frc consts  --      2.2957                 1.6024                 1.6350
 IR Inten    --      2.6926                 3.0548                 2.7641

                     79                     80                     81
                      A                      A                      A
 Frequencies --   1378.2379              1391.1268              1411.2715
 Red. masses --      1.6950                 1.2716                 1.3832
 Frc consts  --      1.8970                 1.4498                 1.6231
 IR Inten    --      4.3482                17.8399                 0.3713

                     82                     83                     84
                      A                      A                      A
 Frequencies --   1425.9119              1441.8892              1442.2981
 Red. masses --      1.3698                 1.2628                 2.4550
 Frc consts  --      1.6409                 1.5469                 3.0089
 IR Inten    --      1.0366                 0.3425                 1.8383

                     85                     86                     87
                      A                      A                      A
 Frequencies --   1444.9545              1468.7931              1499.6365
 Red. masses --      1.3766                 2.8445                 1.1165
 Frc consts  --      1.6934                 3.6155                 1.4794
 IR Inten    --      5.9359                 1.1624                 2.6042

                     88                     89                     90
                      A                      A                      A
 Frequencies --   1508.1139              1514.5061              1517.1315
 Red. masses --      1.1482                 1.1113                 1.0484
 Frc consts  --      1.5386                 1.5018                 1.4218
 IR Inten    --     21.2107                 7.8863                 5.6976

                     91                     92                     93
                      A                      A                      A
 Frequencies --   1519.9715              1526.9918              1527.1487
 Red. masses --      1.0947                 1.1519                 1.0676
 Frc consts  --      1.4900                 1.5824                 1.4670
 IR Inten    --      0.9708                 9.2840                18.1596

                     94                     95                     96
                      A                      A                      A
 Frequencies --   1530.9838              1548.2076              1552.9719
 Red. masses --      1.0817                 4.7641                 1.1524
 Frc consts  --      1.4938                 6.7280                 1.6375
 IR Inten    --      4.4437                14.0088                 9.3727

                     97                     98                     99
                      A                      A                      A
 Frequencies --   1555.1206              1635.4804              1645.3454
 Red. masses --      2.3427                 6.1828                 6.1022
 Frc consts  --      3.3380                 9.7438                 9.7332
 IR Inten    --     13.8635                 0.4404                 6.5255

                    100                    101                    102
                      A                      A                      A
 Frequencies --   1677.0229              2933.5508              3010.4874
 Red. masses --      6.0861                 1.0734                 1.0708
 Frc consts  --     10.0848                 5.4425                 5.7178
 IR Inten    --      6.8226                78.0973                20.5402

                    103                    104                    105
                      A                      A                      A
 Frequencies --   3015.2145              3038.9537              3039.8292
 Red. masses --      1.0831                 1.0712                 1.0400
 Frc consts  --      5.8016                 5.8288                 5.6622
 IR Inten    --     12.7082                24.5683                44.2287

                    106                    107                    108
                      A                      A                      A
 Frequencies --   3041.1311              3045.0860              3050.0089
 Red. masses --      1.0771                 1.0583                 1.0637
 Frc consts  --      5.8691                 5.7819                 5.8301
 IR Inten    --     32.5064                 8.3090                36.3134

                    109                    110                    111
                      A                      A                      A
 Frequencies --   3054.7999              3084.7958              3094.5460
 Red. masses --      1.0623                 1.0931                 1.0971
 Frc consts  --      5.8406                 6.1288                 6.1898
 IR Inten    --     44.2531                34.9905                22.4268

                    112                    113                    114
                      A                      A                      A
 Frequencies --   3101.1482              3102.6407              3111.0198
 Red. masses --      1.1036                 1.0974                 1.0992
 Frc consts  --      6.2531                 6.2241                 6.2681
 IR Inten    --     18.7142                49.1036                45.4973

                    115                    116                    117
                      A                      A                      A
 Frequencies --   3123.2394              3133.8810              3164.4602
 Red. masses --      1.1019                 1.1031                 1.0896
 Frc consts  --      6.3329                 6.3833                 6.4286
 IR Inten    --     16.7244                26.4669                27.1627

                    118                    119                    120
                      A                      A                      A
 Frequencies --   3173.7009              3194.7100              3257.7210
 Red. masses --      1.0873                 1.0937                 1.0923
 Frc consts  --      6.4524                 6.5770                 6.8299
 IR Inten    --     13.9875                17.3059                 6.4851

                    121                    122                    123
                      A                      A                      A
 Frequencies --   3270.8446              3303.2355              3462.9235
 Red. masses --      1.0961                 1.1042                 1.0733
 Frc consts  --      6.9091                 7.0987                 7.5830
 IR Inten    --      2.9128                 1.6478                 1.3424

 - Thermochemistry -
 -------------------
 Temperature   298.150 Kelvin.  Pressure   1.00000 Atm.
 Atom     1 has atomic number  6 and mass  12.00000

 Molecular mass:   269.17796 amu.
 Principal axes and moments of inertia in atomic units:
                           1         2         3
     Eigenvalues --  4586.696156482.839929705.92288
           X            0.99966   0.02605   0.00239
           Y           -0.02608   0.99957   0.01351
           Z           -0.00204  -0.01357   0.99991
 This molecule is an asymmetric top.
 Rotational symmetry number  1.
 Warning -- assumption of classical behavior for rotation
           may cause significant error
 Rotational temperatures (Kelvin)      0.01888     0.01336     0.00892
 Rotational constants (GHZ):           0.39347     0.27839     0.18594
 Zero-point vibrational energy     986787.8 (Joules/Mol)
                                  235.84795 (Kcal/Mol)
 Warning -- explicit consideration of  29 degrees of freedom as
           vibrations may cause significant error
 Vibrational temperatures:     17.72    26.06    48.27    81.11    91.27
          (Kelvin)            128.21   138.84   154.16   167.78   263.24
                              272.63   285.28   345.58   377.24   401.41
                              410.63   463.57   492.80   548.79   582.29
                              603.18   671.95   700.57   707.62   779.52
                              822.18   852.74   883.38   890.65   973.48
                             1038.54  1048.94  1065.68  1092.83  1107.41
                             1127.90  1158.98  1197.99  1203.66  1232.88
                             1268.26  1292.58  1309.83  1328.47  1344.64
                             1359.89  1365.01  1383.01  1403.47  1441.43
                             1458.60  1490.82  1500.54  1517.52  1544.75
                             1546.44  1609.92  1613.79  1639.24  1659.03
                             1673.94  1677.91  1699.09  1715.32  1717.13
                             1766.71  1786.48  1795.57  1813.58  1827.06
                             1854.97  1863.35  1883.30  1902.65  1937.51
                             1946.52  1965.24  1976.16  1982.98  2001.52
                             2030.50  2051.57  2074.56  2075.15  2078.97
                             2113.27  2157.64  2169.84  2179.04  2182.81
                             2186.90  2197.00  2197.23  2202.74  2227.53
                             2234.38  2237.47  2353.09  2367.29  2412.86
                             4220.73  4331.42  4338.22  4372.38  4373.64
                             4375.51  4381.20  4388.28  4395.18  4438.33
                             4452.36  4461.86  4464.01  4476.06  4493.64
                             4508.96  4552.95  4566.25  4596.48  4687.13
                             4706.02  4752.62  4982.37

 Zero-point correction=                           0.375848 (Hartree/Particle)
 Thermal correction to Energy=                    0.394799
 Thermal correction to Enthalpy=                  0.395743
 Thermal correction to Gibbs Free Energy=         0.325574
 Sum of electronic and zero-point Energies=           -829.437171
 Sum of electronic and thermal Energies=              -829.418220
 Sum of electronic and thermal Enthalpies=            -829.417275
 Sum of electronic and thermal Free Energies=         -829.487444

                     E (Thermal)             CV                S
                      KCal/Mol        Cal/Mol-Kelvin    Cal/Mol-Kelvin
 Total                  247.740             72.803            147.683
 Electronic               0.000              0.000              0.000
 Translational            0.889              2.981             42.670
 Rotational               0.889              2.981             34.022
 Vibrational            245.963             66.842             70.991
 Vibration     1          0.593              1.987              7.598
 Vibration     2          0.593              1.986              6.831
 Vibration     3          0.594              1.983              5.608
 Vibration     4          0.596              1.975              4.580
 Vibration     5          0.597              1.972              4.347
 Vibration     6          0.602              1.957              3.679
 Vibration     7          0.603              1.952              3.524
 Vibration     8          0.606              1.944              3.320
 Vibration     9          0.608              1.936              3.156
 Vibration    10          0.630              1.863              2.298
 Vibration    11          0.633              1.854              2.233
 Vibration    12          0.637              1.842              2.149
 Vibration    13          0.657              1.779              1.801
 Vibration    14          0.669              1.742              1.647
 Vibration    15          0.679              1.712              1.540
 Vibration    16          0.683              1.701              1.501
 Vibration    17          0.707              1.631              1.299
 Vibration    18          0.722              1.590              1.200
 Vibration    19          0.751              1.510              1.033
 Vibration    20          0.770              1.460              0.945
 Vibration    21          0.782              1.428              0.895
 Vibration    22          0.824              1.323              0.746
 Vibration    23          0.843              1.279              0.692
 Vibration    24          0.848              1.268              0.679
 Vibration    25          0.897              1.158              0.561
 Vibration    26          0.928              1.093              0.501
 Vibration    27          0.950              1.047              0.462
 Vibration    28          0.973              1.002              0.426
 Vibration    29          0.979              0.992              0.418

                           ! Non-Optimized Parameters !
 Normal termination of Gaussian 16 at Sat Dec 12 17:56:15 2020.

 ----------------------------------------------------------------------
 # B3LYP/6-311++G(d,p) empiricaldispersion=gd3bj scf=xqc pop=npa geom=c
 heck
 ----------------------------------------------------------------------

 ----------------------------------------
 CID_141969953_JID_10807_Energie_neutraal
 ----------------------------------------
 Structure from the checkpoint file:  "JID_10807.chk"
 Charge =  0 Multiplicity = 1

 SCF Done:  E(RB3LYP) =  -830.033455237     A.U. after   15 cycles
 Normal termination of Gaussian 16 at Sat Dec 12 18:07:38 2020.

 ----------------------------------------------------------------------
 # B3LYP/6-311++G(d,p) empiricaldispersion=gd3bj scf=xqc pop=npa geom=c
 heck
 ----------------------------------------------------------------------

 --------------------------------------
 CID_141969953_JID_10807_Energie_kation
 --------------------------------------
 Structure from the checkpoint file:  "JID_10807.chk"
 Charge =  1 Multiplicity = 2

 SCF Done:  E(UB3LYP) =  -829.762179747     A.U. after   23 cycles
 Normal termination of Gaussian 16 at Sat Dec 12 18:32:03 2020.
 Gaussian 16:  ES64L-G16RevA.03 25-Dec-2016

 ----------------------------------------------------------------------
 # B3LYP/6-311++G(d,p) empiricaldispersion=gd3bj scf=xqc pop=npa geom=c
 heck
 ----------------------------------------------------------------------

 -------------------------------------
 CID_141969953_JID_10807_Energie_anion
 -------------------------------------
 Structure from the checkpoint file:  "JID_10807.chk"
 Charge = -1 Multiplicity = 2

                         Standard orientation:
 ---------------------------------------------------------------------
 Center     Atomic      Atomic             Coordinates (Angstroms)
 Number     Number       Type             X           Y           Z
 ---------------------------------------------------------------------
      1          6           0       -5.201094    0.175103   -1.262261
      2          6           0       -3.971991   -0.046161   -0.385531
      3          7           0       -3.170243    1.170968   -0.309708
      4          6           0       -1.974752    1.083594    0.529497
      5          6           0       -1.397667    2.491149    0.714141
      6          6           0       -0.027090    2.440946    1.397810
      7          6           0        0.941211    1.710473    0.499603
      8          6           0        0.474904    0.597494   -0.215078
      9          6           0       -0.909829    0.035649    0.042256
     10          6           0       -0.840865   -1.142768    1.062800
     11          6           0        0.020665   -2.275970    0.628489
     12          6           0       -0.167449   -3.324511   -0.226740
     13          6           0        1.086343   -4.017359   -0.315467
     14          6           0        1.946737   -3.341947    0.494557
     15          8           0        1.314923   -2.282859    1.077625
     16          6           0        1.336866   -0.027511   -1.123565
     17          6           0        2.641150    0.422476   -1.301716
     18          6           0        3.121731    1.524897   -0.584098
     19          6           0        2.250319    2.158455    0.305488
     20          6           0        4.526755    2.034557   -0.795663
     21          1           0       -5.793433    1.014321   -0.884563
     22          1           0       -5.831373   -0.720406   -1.287191
     23          1           0       -4.909471    0.405006   -2.294957
     24          1           0       -4.285470   -0.296608    0.636918
     25          1           0       -3.411302   -0.923798   -0.760748
     26          1           0       -2.893076    1.451635   -1.250877
     27          1           0       -2.327177    0.752197    1.516741
     28          1           0       -1.281592    2.971181   -0.267459
     29          1           0       -2.114363    3.091581    1.283334
     30          1           0        0.340606    3.450972    1.609834
     31          1           0       -0.122486    1.934174    2.370707
     32          1           0       -1.272418   -0.395306   -0.899387
     33          1           0       -0.473115   -0.761720    2.022325
     34          1           0       -1.860069   -1.510771    1.230198
     35          1           0       -1.089058   -3.571820   -0.735695
     36          1           0        1.308059   -4.900753   -0.897782
     37          1           0        2.982395   -3.476196    0.765260
     38          1           0        0.986418   -0.893041   -1.679562
     39          1           0        3.294374   -0.086010   -2.007195
     40          1           0        2.595109    3.030541    0.858447
     41          1           0        5.245074    1.209693   -0.863802
     42          1           0        4.607571    2.609868   -1.727451
     43          1           0        4.841449    2.689952    0.022732
 ---------------------------------------------------------------------

 SCF Done:  E(UB3LYP) =  -830.019098996     A.U. after   33 cycles
 SCF Done:  E(UB3LYP) =  -830.019098996     a.u. after    1 cycles

 The electronic state is 2-A.
 Alpha  occ. eigenvalues --  -19.09681 -14.20743 -10.13503 -10.13027 -10.11211
 Alpha  occ. eigenvalues --  -10.10098 -10.09487 -10.09194 -10.08986 -10.08722
 Alpha  occ. eigenvalues --  -10.08684 -10.08333 -10.08262 -10.08047 -10.07985
 Alpha  occ. eigenvalues --  -10.07761 -10.07754 -10.07698 -10.07594 -10.06877
 Alpha  occ. eigenvalues --   -1.02092  -0.82410  -0.77714  -0.73070  -0.71299
 Alpha  occ. eigenvalues --   -0.70479  -0.67669  -0.66837  -0.63827  -0.63469
 Alpha  occ. eigenvalues --   -0.59548  -0.57931  -0.53678  -0.51799  -0.51350
 Alpha  occ. eigenvalues --   -0.50910  -0.50566  -0.46426  -0.45807  -0.43591
 Alpha  occ. eigenvalues --   -0.41159  -0.40038  -0.38890  -0.37588  -0.37039
 Alpha  occ. eigenvalues --   -0.36175  -0.36048  -0.35078  -0.34123  -0.33251
 Alpha  occ. eigenvalues --   -0.33173  -0.32305  -0.31650  -0.31247  -0.30843
 Alpha  occ. eigenvalues --   -0.30337  -0.29731  -0.29065  -0.28778  -0.28477
 Alpha  occ. eigenvalues --   -0.27572  -0.26702  -0.26281  -0.25390  -0.25220
 Alpha  occ. eigenvalues --   -0.24721  -0.22893  -0.22563  -0.19271  -0.15650
 Alpha  occ. eigenvalues --   -0.14808  -0.14226  -0.12928   0.04070
 Alpha virt. eigenvalues --    0.05505   0.06082   0.06557   0.07034   0.07288
 Alpha virt. eigenvalues --    0.07678   0.07864   0.08242   0.08550   0.09135
 Alpha virt. eigenvalues --    0.09200   0.09449   0.09752   0.09985   0.10591

  Beta  occ. eigenvalues --  -19.09679 -14.20733 -10.13504 -10.13020 -10.11206
  Beta  occ. eigenvalues --  -10.10076 -10.09480 -10.09190 -10.08980 -10.08720
  Beta  occ. eigenvalues --  -10.08677 -10.08325 -10.08252 -10.08042 -10.07960
  Beta  occ. eigenvalues --  -10.07753 -10.07736 -10.07692 -10.07586 -10.06847
  Beta  occ. eigenvalues --   -1.02087  -0.82390  -0.77698  -0.73054  -0.71283
  Beta  occ. eigenvalues --   -0.70463  -0.67646  -0.66816  -0.63805  -0.63442
  Beta  occ. eigenvalues --   -0.59514  -0.57904  -0.53652  -0.51740  -0.51320
  Beta  occ. eigenvalues --   -0.50884  -0.50538  -0.46395  -0.45781  -0.43559
  Beta  occ. eigenvalues --   -0.41136  -0.40016  -0.38862  -0.37564  -0.37027
  Beta  occ. eigenvalues --   -0.36151  -0.36026  -0.35049  -0.34103  -0.33221
  Beta  occ. eigenvalues --   -0.33145  -0.32278  -0.31626  -0.31225  -0.30809
  Beta  occ. eigenvalues --   -0.30312  -0.29704  -0.29043  -0.28760  -0.28462
  Beta  occ. eigenvalues --   -0.27527  -0.26683  -0.26246  -0.25364  -0.25199
  Beta  occ. eigenvalues --   -0.24699  -0.22875  -0.22548  -0.19259  -0.15629
  Beta  occ. eigenvalues --   -0.14775  -0.14208  -0.12911
  Beta virt. eigenvalues --    0.05824   0.06358   0.06525   0.06811   0.07318
  Beta virt. eigenvalues --    0.07458   0.08021   0.08223   0.08384   0.08864
  Beta virt. eigenvalues --    0.09222   0.09459   0.09719   0.09932   0.10158

 Mulliken charges and spin densities:
               1          2
     1  C    1.134093  -1.740260
     2  C   -0.488875   0.378255
     3  N    0.134157   0.037743
     4  C   -0.656217  -0.207959
     5  C   -0.465610   0.353810
     6  C   -0.627282   0.214418
     7  C    0.196787  -0.253322
     8  C    1.273347  -0.561811
     9  C    1.058579  -0.571106
    10  C    0.303962  -0.820902
    11  C    0.386788  -0.918786
    12  C   -1.317556   1.421708
    13  C    1.287305  -1.734377
    14  C   -0.381609   0.398486
    15  O    0.093413   0.012905
    16  C   -0.341502   0.031318
    17  C   -1.525726   0.947489
    18  C    0.174610   0.258450
    19  C   -1.139836   0.475587
    20  C    1.628459  -2.229205
    21  H   -0.000885   0.152393
    22  H   -0.299266   0.442316
    23  H   -0.249195   0.372531
    24  H   -0.200264   0.350592
    25  H    0.020160   0.113282
    26  H    0.203514   0.028329
    27  H    0.073532   0.114561
    28  H    0.035590   0.077457
    29  H    0.075503   0.113295
    30  H   -0.066008   0.241329
    31  H    0.145058  -0.008403
    32  H    0.304471  -0.043227
    33  H   -0.004608   0.202705
    34  H    0.176433   0.000008
    35  H   -0.812795   0.987331
    36  H   -0.262006   0.429350
    37  H   -0.192510   0.362345
    38  H   -0.108406   0.239802
    39  H   -0.242753   0.422489
    40  H   -0.035528   0.169564
    41  H   -0.085559   0.231793
    42  H    0.013634   0.149934
    43  H   -0.215400   0.357783
 Sum of Mulliken charges =  -1.00000   1.00000

 Dipole moment (field-independent basis, Debye):
    X=              2.0287    Y=              2.8106    Z=              3.0494  Tot=              4.6167
 Quadrupole moment (field-independent basis, Debye-Ang):
   XX=           -220.0003   YY=           -184.9061   ZZ=           -156.6704
   XY=            -11.1889   XZ=             -4.3900   YZ=             -3.8924

 Summary of Natural Population Analysis:

                                       Natural Population
                Natural  -----------------------------------------------
    Atom  No    Charge         Core      Valence    Rydberg      Total
 -----------------------------------------------------------------------
      C    1   -0.28670      0.99967     2.28148    0.00555     3.28670
      C    2   -0.08789      0.99964     2.07803    0.01021     3.08789
      N    3   -0.33785      0.99973     2.82667    0.01145     3.83785
      C    4    0.00143      0.99957     1.98719    0.01180     2.99857
      C    5   -0.18387      0.99961     2.17610    0.00817     3.18387
      C    6   -0.19773      0.99960     2.18983    0.00830     3.19773
      C    7   -0.01018      0.99947     2.00090    0.00982     3.01018
      C    8   -0.01778      0.99946     2.00771    0.01061     3.01778
      C    9   -0.11854      0.99955     2.10796    0.01103     3.11854
      C   10   -0.20821      0.99957     2.19936    0.00928     3.20821
      C   11    0.15305      0.99947     1.83149    0.01600     2.84695
      C   12   -0.15119      0.99948     2.14228    0.00942     3.15119
      C   13   -0.14988      0.99957     2.14126    0.00905     3.14988
      C   14    0.05518      0.99951     1.93124    0.01407     2.94482
      O   15   -0.23358      0.99986     3.22574    0.00798     4.23358
      C   16   -0.08878      0.99952     2.07946    0.00980     3.08878
      C   17   -0.10057      0.99951     2.09174    0.00932     3.10057
      C   18   -0.01508      0.99952     2.00586    0.00970     3.01508
      C   19   -0.10042      0.99947     2.09217    0.00878     3.10042
      C   20   -0.29055      0.99964     2.28600    0.00491     3.29055
      H   21    0.09853      0.00000     0.40033    0.00113     0.40147
      H   22    0.10198      0.00000     0.39685    0.00117     0.39802
      H   23    0.09526      0.00000     0.40363    0.00111     0.40474
      H   24    0.08893      0.00000     0.40958    0.00149     0.41107
      H   25    0.07960      0.00000     0.41796    0.00244     0.42040
      H   26    0.16847      0.00000     0.32848    0.00305     0.33153
      H   27    0.08809      0.00000     0.41003    0.00188     0.41191
      H   28    0.09615      0.00000     0.40255    0.00129     0.40385
      H   29    0.10281      0.00000     0.39604    0.00115     0.39719
      H   30    0.10238      0.00000     0.39665    0.00098     0.39762
      H   31    0.09962      0.00000     0.39914    0.00124     0.40038
      H   32    0.10517      0.00000     0.39253    0.00231     0.39483
      H   33    0.10752      0.00000     0.39105    0.00143     0.39248
      H   34    0.11018      0.00000     0.38857    0.00125     0.38982
      H   35    0.11253      0.00000     0.38572    0.00175     0.38747
      H   36    0.10884      0.00000     0.39021    0.00095     0.39116
      H   37    0.09578      0.00000     0.40323    0.00100     0.40422
      H   38    0.10422      0.00000     0.39387    0.00192     0.39578
      H   39    0.09890      0.00000     0.39972    0.00138     0.40110
      H   40    0.09599      0.00000     0.40257    0.00144     0.40401
      H   41    0.10338      0.00000     0.39546    0.00116     0.39662
      H   42    0.10385      0.00000     0.39488    0.00127     0.39615
      H   43    0.10095      0.00000     0.39804    0.00101     0.39905
 =======================================================================
   * Total *   -0.00000     19.99139    52.77956    0.22906    73.00000

 Normal termination of Gaussian 16 at Sat Dec 12 19:07:14 2020.
