 Gaussian 16, Revision A.03,

 -----------------------------------------------------------
 # opt freq B3LYP/6-31G(d) empiricaldispersion=gd3bj scf=xqc
 -----------------------------------------------------------

 ------------------------------
 CID_57374249_JID_2726_neutraal
 ------------------------------
 Symbolic Z-matrix:
 Charge =  0 Multiplicity = 1

 SCF Done:  E(RB3LYP) =  -533.697642854     A.U. after   14 cycles
 SCF Done:  E(RB3LYP) =  -533.700985961     A.U. after   12 cycles
 SCF Done:  E(RB3LYP) =  -533.701283748     A.U. after   11 cycles
 SCF Done:  E(RB3LYP) =  -533.701335775     A.U. after   11 cycles
 SCF Done:  E(RB3LYP) =  -533.701374545     A.U. after   12 cycles
 SCF Done:  E(RB3LYP) =  -533.701397254     A.U. after   11 cycles
 SCF Done:  E(RB3LYP) =  -533.701435031     A.U. after   11 cycles
 SCF Done:  E(RB3LYP) =  -533.701484421     A.U. after   12 cycles
 SCF Done:  E(RB3LYP) =  -533.701523934     A.U. after   11 cycles
 SCF Done:  E(RB3LYP) =  -533.701537549     A.U. after   12 cycles
 SCF Done:  E(RB3LYP) =  -533.701549472     A.U. after   12 cycles
 SCF Done:  E(RB3LYP) =  -533.701550014     A.U. after   10 cycles
 SCF Done:  E(RB3LYP) =  -533.701550884     A.U. after    9 cycles
 SCF Done:  E(RB3LYP) =  -533.701551466     A.U. after   10 cycles
 SCF Done:  E(RB3LYP) =  -533.701551469     A.U. after    8 cycles
 Optimization completed.
    -- Stationary point found.
 Normal termination of Gaussian 16 at Wed Dec  9 17:55:19 2020.

 --------------------------------------------------------------------
 #N Geom=AllCheck Guess=TCheck SCRF=Check GenChk RB3LYP/6-31G(d) Freq
 --------------------------------------------------------------------

 Structure from the checkpoint file:  "JID_2726.chk"
 ------------------------------
 CID_57374249_JID_2726_neutraal
 ------------------------------
 Charge =  0 Multiplicity = 1

 SCF Done:  E(RB3LYP) =  -533.701551469     A.U. after    1 cycles

  Exact polarizability: 131.828   6.666 102.019  -1.730  -4.522  65.335
 Approx polarizability: 184.147   9.966 191.748  -6.518 -12.216  94.999

                      1                      2                      3
                      A                      A                      A
 Frequencies --     26.3537                79.5665               141.3515
 Red. masses --      4.7562                 3.7683                 3.1910
 Frc consts  --      0.0019                 0.0141                 0.0376
 IR Inten    --      0.2585                 0.2346                 0.3351

                      4                      5                      6
                      A                      A                      A
 Frequencies --    175.1794               280.7348               292.7390
 Red. masses --      4.5045                 2.8390                 1.0488
 Frc consts  --      0.0814                 0.1318                 0.0530
 IR Inten    --      0.9043                 0.1395                 0.1230

                      7                      8                      9
                      A                      A                      A
 Frequencies --    314.9535               321.9236               412.3155
 Red. masses --      3.2431                 4.0840                 3.7175
 Frc consts  --      0.1895                 0.2494                 0.3724
 IR Inten    --      0.4669                 0.2442                13.2724

                     10                     11                     12
                      A                      A                      A
 Frequencies --    434.0762               449.1958               497.5803
 Red. masses --      2.8748                 4.2149                 3.7598
 Frc consts  --      0.3191                 0.5011                 0.5485
 IR Inten    --      1.9358                 1.2996                23.8315

                     13                     14                     15
                      A                      A                      A
 Frequencies --    588.6356               630.0962               714.9220
 Red. masses --      4.3718                 9.1694                 1.4787
 Frc consts  --      0.8925                 2.1449                 0.4453
 IR Inten    --      2.6957                 0.2441                28.9397

                     16                     17                     18
                      A                      A                      A
 Frequencies --    733.3248               779.4576               790.4474
 Red. masses --      3.0175                 4.8853                 2.7033
 Frc consts  --      0.9561                 1.7487                 0.9952
 IR Inten    --      3.0181                 5.9505                 4.8074

                     19                     20                     21
                      A                      A                      A
 Frequencies --    835.7762               867.3120               901.1661
 Red. masses --      4.9626                 1.5487                 2.5547
 Frc consts  --      2.0424                 0.6864                 1.2224
 IR Inten    --      4.1680                10.9389                12.2448

                     22                     23                     24
                      A                      A                      A
 Frequencies --    913.7690               938.2692               956.9390
 Red. masses --      1.4409                 2.0666                 1.7499
 Frc consts  --      0.7089                 1.0719                 0.9441
 IR Inten    --      4.5163                14.6990                 3.6779

                     25                     26                     27
                      A                      A                      A
 Frequencies --    959.5537               985.8509              1005.1690
 Red. masses --      1.4540                 1.4559                 1.8633
 Frc consts  --      0.7888                 0.8337                 1.1092
 IR Inten    --      2.1101                 0.0642                 8.0588

                     28                     29                     30
                      A                      A                      A
 Frequencies --   1037.4991              1084.9690              1094.8928
 Red. masses --      5.5424                 2.7288                 2.2438
 Frc consts  --      3.5150                 1.8926                 1.5848
 IR Inten    --     25.4634                10.3571                75.6620

                     31                     32                     33
                      A                      A                      A
 Frequencies --   1106.1777              1131.9088              1176.2959
 Red. masses --      2.0982                 1.9754                 2.2948
 Frc consts  --      1.5127                 1.4912                 1.8708
 IR Inten    --      7.3568                66.2868                 3.0578

                     34                     35                     36
                      A                      A                      A
 Frequencies --   1198.7944              1216.4840              1242.6077
 Red. masses --      1.8484                 1.6637                 1.8608
 Frc consts  --      1.5651                 1.4505                 1.6928
 IR Inten    --     37.2246                25.2267                 8.2782

                     37                     38                     39
                      A                      A                      A
 Frequencies --   1251.0946              1307.3335              1337.8346
 Red. masses --      5.0338                 1.9508                 1.4558
 Frc consts  --      4.6422                 1.9644                 1.5351
 IR Inten    --     17.4981                11.0303                 1.1639

                     40                     41                     42
                      A                      A                      A
 Frequencies --   1356.5572              1378.8536              1423.4005
 Red. masses --      2.1308                 1.7033                 1.2384
 Frc consts  --      2.3103                 1.9080                 1.4783
 IR Inten    --     32.7277                 6.6686                 7.6945

                     43                     44                     45
                      A                      A                      A
 Frequencies --   1448.4394              1511.4559              1518.3690
 Red. masses --      1.9529                 1.1771                 1.2903
 Frc consts  --      2.4139                 1.5843                 1.7527
 IR Inten    --     24.3263                 1.9392                 6.1320

                     46                     47                     48
                      A                      A                      A
 Frequencies --   1526.9507              1529.0508              1596.3784
 Red. masses --      1.3150                 1.1630                 8.1577
 Frc consts  --      1.8064                 1.6021                12.2487
 IR Inten    --      8.7838                 2.1025                 3.9278

                     49                     50                     51
                      A                      A                      A
 Frequencies --   1630.3727              1702.8482              3035.8135
 Red. masses --      4.8964                 5.5737                 1.0628
 Frc consts  --      7.6683                 9.5224                 5.7708
 IR Inten    --      3.3803                60.3562                32.9389

                     52                     53                     54
                      A                      A                      A
 Frequencies --   3057.9121              3075.0683              3129.2947
 Red. masses --      1.0356                 1.0997                 1.1025
 Frc consts  --      5.7056                 6.1269                 6.3610
 IR Inten    --     10.3768                28.9491                21.8319

                     55                     56                     57
                      A                      A                      A
 Frequencies --   3153.5328              3174.9197              3192.8783
 Red. masses --      1.1032                 1.0877                 1.0933
 Frc consts  --      6.4642                 6.4597                 6.5666
 IR Inten    --      9.8289                 6.5673                63.3375

                     58                     59                     60
                      A                      A                      A
 Frequencies --   3198.3495              3244.9425              3271.3921
 Red. masses --      1.0939                 1.0885                 1.1057
 Frc consts  --      6.5928                 6.7528                 6.9718
 IR Inten    --      1.1489                 4.9188                12.1890

 - Thermochemistry -
 -------------------
 Temperature   298.150 Kelvin.  Pressure   1.00000 Atm.
 Atom     1 has atomic number  6 and mass  12.00000

 Molecular mass:   162.07931 amu.
 Principal axes and moments of inertia in atomic units:
                           1         2         3
     Eigenvalues --   816.336492769.219592997.24802
           X            0.99987   0.01515  -0.00586
           Y           -0.01508   0.99981   0.01252
           Z            0.00604  -0.01243   0.99990
 This molecule is an asymmetric top.
 Rotational symmetry number  1.
 Warning -- assumption of classical behavior for rotation
           may cause significant error
 Rotational temperatures (Kelvin)      0.10610     0.03128     0.02890
 Rotational constants (GHZ):           2.21078     0.65171     0.60213
 Zero-point vibrational energy     468752.7 (Joules/Mol)
                                  112.03458 (Kcal/Mol)
 Warning -- explicit consideration of  13 degrees of freedom as
           vibrations may cause significant error
 Vibrational temperatures:     37.92   114.48   203.37   252.04   403.91
          (Kelvin)            421.19   453.15   463.18   593.23   624.54
                              646.29   715.91   846.92   906.57  1028.61
                             1055.09  1121.47  1137.28  1202.50  1247.87
                             1296.58  1314.71  1349.96  1376.82  1380.58
                             1418.42  1446.21  1492.73  1561.03  1575.31
                             1591.54  1628.56  1692.43  1724.80  1750.25
                             1787.84  1800.05  1880.96  1924.85  1951.78
                             1983.86  2047.96  2083.98  2174.65  2184.59
                             2196.94  2199.96  2296.83  2345.74  2450.02
                             4367.86  4399.65  4424.34  4502.36  4537.23
                             4568.00  4593.84  4601.71  4668.75  4706.80

 Zero-point correction=                           0.178538 (Hartree/Particle)
 Thermal correction to Energy=                    0.188436
 Thermal correction to Enthalpy=                  0.189381
 Thermal correction to Gibbs Free Energy=         0.142262
 Sum of electronic and zero-point Energies=           -533.523013
 Sum of electronic and thermal Energies=              -533.513115
 Sum of electronic and thermal Enthalpies=            -533.512171
 Sum of electronic and thermal Free Energies=         -533.559289

                     E (Thermal)             CV                S
                      KCal/Mol        Cal/Mol-Kelvin    Cal/Mol-Kelvin
 Total                  118.246             38.485             99.169
 Electronic               0.000              0.000              0.000
 Translational            0.889              2.981             41.157
 Rotational               0.889              2.981             30.295
 Vibrational            116.468             32.523             27.717
 Vibration     1          0.593              1.985              6.087
 Vibration     2          0.600              1.963              3.902
 Vibration     3          0.615              1.912              2.785
 Vibration     4          0.627              1.873              2.379
 Vibration     5          0.680              1.709              1.529
 Vibration     6          0.688              1.687              1.458
 Vibration     7          0.702              1.645              1.336
 Vibration     8          0.707              1.632              1.300
 Vibration     9          0.776              1.443              0.918
 Vibration    10          0.795              1.396              0.845
 Vibration    11          0.808              1.363              0.798
 Vibration    12          0.853              1.255              0.664
 Vibration    13          0.946              1.056              0.470

 Optimization completed.
    -- Stationary point found.
 Normal termination of Gaussian 16 at Wed Dec  9 18:00:43 2020.

 ----------------------------------------------------------------------
 # B3LYP/6-311++G(d,p) empiricaldispersion=gd3bj scf=xqc pop=npa geom=c
 heck
 ----------------------------------------------------------------------

 --------------------------------------
 CID_57374249_JID_2726_Energie_neutraal
 --------------------------------------
 Structure from the checkpoint file:  "JID_2726.chk"
 Charge =  0 Multiplicity = 1

 SCF Done:  E(RB3LYP) =  -533.844064014     A.U. after   15 cycles
 Normal termination of Gaussian 16 at Wed Dec  9 18:03:06 2020.

 ----------------------------------------------------------------------
 # B3LYP/6-311++G(d,p) empiricaldispersion=gd3bj scf=xqc pop=npa geom=c
 heck
 ----------------------------------------------------------------------

 ------------------------------------
 CID_57374249_JID_2726_Energie_kation
 ------------------------------------
 Structure from the checkpoint file:  "JID_2726.chk"
 Charge =  1 Multiplicity = 2

 SCF Done:  E(UB3LYP) =  -533.545079828     A.U. after   22 cycles
 Normal termination of Gaussian 16 at Wed Dec  9 18:08:08 2020.
 Gaussian 16:  ES64L-G16RevA.03 25-Dec-2016

 ----------------------------------------------------------------------
 # B3LYP/6-311++G(d,p) empiricaldispersion=gd3bj scf=xqc pop=npa geom=c
 heck
 ----------------------------------------------------------------------

 -----------------------------------
 CID_57374249_JID_2726_Energie_anion
 -----------------------------------
 Structure from the checkpoint file:  "JID_2726.chk"
 Charge = -1 Multiplicity = 2

                         Standard orientation:
 ---------------------------------------------------------------------
 Center     Atomic      Atomic             Coordinates (Angstroms)
 Number     Number       Type             X           Y           Z
 ---------------------------------------------------------------------
      1          6           0       -1.118691    0.487973    1.828254
      2          6           0       -0.895169    0.041595    0.379728
      3          6           0       -1.695585   -1.253784    0.052168
      4          6           0       -2.910420   -0.689320   -0.644283
      5          6           0       -2.676134    0.594406   -0.917103
      6          8           0       -1.481379    1.081463   -0.469882
      7          6           0        0.593744   -0.013353    0.087441
      8          7           0        1.218516    1.164165   -0.059075
      9          6           0        2.533654    1.126427   -0.277076
     10          6           0        3.242638   -0.075481   -0.327449
     11          7           0        2.637633   -1.252938   -0.150100
     12          6           0        1.316098   -1.212544    0.054239
     13          1           0       -0.648604    1.461566    1.988255
     14          1           0       -0.685121   -0.237347    2.525725
     15          1           0       -2.192671    0.568104    2.024537
     16          1           0       -1.144465   -1.932508   -0.612122
     17          1           0       -1.926415   -1.812022    0.967178
     18          1           0       -3.784968   -1.255475   -0.933532
     19          1           0       -3.281896    1.320455   -1.445792
     20          1           0        3.039562    2.081242   -0.406340
     21          1           0        4.315998   -0.089387   -0.503871
     22          1           0        0.825762   -2.170440    0.203730
 ---------------------------------------------------------------------

 SCF Done:  E(UB3LYP) =  -533.842053916     A.U. after   33 cycles
 SCF Done:  E(UB3LYP) =  -533.842053916     a.u. after    1 cycles

 The electronic state is 2-A.
 Alpha  occ. eigenvalues --  -19.01530 -14.10843 -14.10637 -10.10535 -10.10362
 Alpha  occ. eigenvalues --  -10.05616 -10.04707 -10.03573 -10.03170 -10.02580
 Alpha  occ. eigenvalues --  -10.02226 -10.02025  -0.93834  -0.78791  -0.71573
 Alpha  occ. eigenvalues --   -0.67603  -0.65221  -0.58417  -0.55629  -0.49148
 Alpha  occ. eigenvalues --   -0.48142  -0.45653  -0.42090  -0.39435  -0.34974
 Alpha  occ. eigenvalues --   -0.33391  -0.32738  -0.32134  -0.29443  -0.28340
 Alpha  occ. eigenvalues --   -0.28291  -0.25813  -0.24652  -0.23908  -0.23662
 Alpha  occ. eigenvalues --   -0.22775  -0.21293  -0.19595  -0.15080  -0.11652
 Alpha  occ. eigenvalues --   -0.10098  -0.09512  -0.06140   0.06824
 Alpha virt. eigenvalues --    0.07948   0.09658   0.09921   0.10712   0.11633
 Alpha virt. eigenvalues --    0.12452   0.12779   0.13018   0.13127   0.14804
 Alpha virt. eigenvalues --    0.14875   0.15243   0.16842   0.17913   0.17967

  Beta  occ. eigenvalues --  -19.01509 -14.10070 -14.09863 -10.10533 -10.10366
  Beta  occ. eigenvalues --  -10.05606 -10.04704 -10.03561 -10.03111 -10.02566
  Beta  occ. eigenvalues --  -10.02184 -10.01962  -0.93793  -0.77842  -0.70321
  Beta  occ. eigenvalues --   -0.67519  -0.65074  -0.58069  -0.55578  -0.49023
  Beta  occ. eigenvalues --   -0.47381  -0.45458  -0.41920  -0.39327  -0.34857
  Beta  occ. eigenvalues --   -0.33163  -0.32533  -0.31849  -0.29310  -0.28290
  Beta  occ. eigenvalues --   -0.28115  -0.25766  -0.24549  -0.23791  -0.22809
  Beta  occ. eigenvalues --   -0.21907  -0.20980  -0.19407  -0.11480  -0.10638
  Beta  occ. eigenvalues --   -0.09969  -0.08343  -0.05320
  Beta virt. eigenvalues --    0.07855   0.09559   0.09855   0.10659   0.11552
  Beta virt. eigenvalues --    0.12382   0.12705   0.12918   0.13026   0.14457
  Beta virt. eigenvalues --    0.14796   0.14980   0.15472   0.16860   0.17892

 Mulliken charges and spin densities:
               1          2
     1  C   -0.556231  -0.138789
     2  C    0.045697   0.336740
     3  C   -0.201244  -0.326224
     4  C   -0.255946   0.175990
     5  C   -0.118443  -0.095084
     6  O    0.047738  -0.013160
     7  C   -0.345711  -0.033214
     8  N   -0.095302   0.337609
     9  C    0.040840   0.140993
    10  C   -0.267374   0.086559
    11  N   -0.119566   0.321403
    12  C   -0.340151   0.067386
    13  H    0.180977  -0.015224
    14  H    0.112996   0.026453
    15  H    0.071058   0.040916
    16  H    0.049513   0.084211
    17  H    0.138546   0.000769
    18  H    0.115929   0.022068
    19  H    0.124913   0.003079
    20  H    0.113512  -0.005169
    21  H    0.109370  -0.008326
    22  H    0.148879  -0.008987
 Sum of Mulliken charges =  -1.00000   1.00000

 Dipole moment (field-independent basis, Debye):
    X=             -6.5526    Y=             -0.3996    Z=              0.8819  Tot=              6.6238
 Quadrupole moment (field-independent basis, Debye-Ang):
   XX=           -102.4863   YY=            -87.4614   ZZ=            -81.4539
   XY=              6.1678   XZ=              2.4462   YZ=             -1.3613

 Summary of Natural Population Analysis:

                                       Natural Population
                Natural  -----------------------------------------------
    Atom  No    Charge         Core      Valence    Rydberg      Total
 -----------------------------------------------------------------------
      C    1   -0.29010      0.99961     2.28428    0.00621     3.29010
      C    2    0.13194      0.99951     1.85189    0.01667     2.86806
      C    3   -0.21003      0.99960     2.20094    0.00949     3.21003
      C    4   -0.16466      0.99955     2.15641    0.00870     3.16466
      C    5    0.08121      0.99945     1.90573    0.01361     2.91879
      O    6   -0.27303      0.99988     3.26242    0.01073     4.27303
      C    7    0.07116      0.99947     1.91206    0.01732     2.92884
      N    8   -0.12908      0.99967     2.61752    0.01189     3.62908
      C    9    0.00124      0.99960     1.98284    0.01633     2.99876
      C   10   -0.00177      0.99960     1.98450    0.01767     3.00177
      N   11   -0.13386      0.99971     2.62015    0.01400     3.63386
      C   12   -0.00507      0.99954     1.99038    0.01516     3.00507
      H   13    0.11074      0.00000     0.38789    0.00137     0.38926
      H   14    0.09898      0.00000     0.39994    0.00108     0.40102
      H   15    0.09230      0.00000     0.40654    0.00117     0.40770
      H   16    0.10653      0.00000     0.39173    0.00175     0.39347
      H   17    0.09799      0.00000     0.40103    0.00098     0.40201
      H   18    0.09812      0.00000     0.40099    0.00089     0.40188
      H   19    0.08695      0.00000     0.41205    0.00100     0.41305
      H   20    0.07654      0.00000     0.42225    0.00121     0.42346
      H   21    0.07651      0.00000     0.42230    0.00120     0.42349
      H   22    0.07741      0.00000     0.42092    0.00167     0.42259
 =======================================================================
   * Total *    0.00000     11.99517    30.83475    0.17008    43.00000

 Normal termination of Gaussian 16 at Wed Dec  9 18:15:33 2020.
