 Gaussian 16, Revision A.03,

 -----------------------------------------------------------
 # opt freq B3LYP/6-31G(d) empiricaldispersion=gd3bj scf=xqc
 -----------------------------------------------------------

 ------------------------------
 CID_103455689_JID_268_neutraal
 ------------------------------
 Symbolic Z-matrix:
 Charge =  0 Multiplicity = 1

 SCF Done:  E(RB3LYP) =  -499.600080549     A.U. after   14 cycles
 SCF Done:  E(RB3LYP) =  -499.599781061     A.U. after   13 cycles
 SCF Done:  E(RB3LYP) =  -499.601141019     A.U. after   12 cycles
 SCF Done:  E(RB3LYP) =  -499.600976781     A.U. after   12 cycles
 SCF Done:  E(RB3LYP) =  -499.603232808     A.U. after   12 cycles
 SCF Done:  E(RB3LYP) =  -499.603505058     A.U. after   12 cycles
 SCF Done:  E(RB3LYP) =  -499.603514954     A.U. after   11 cycles
 SCF Done:  E(RB3LYP) =  -499.603581234     A.U. after   10 cycles
 SCF Done:  E(RB3LYP) =  -499.603602172     A.U. after   11 cycles
 SCF Done:  E(RB3LYP) =  -499.603606151     A.U. after    8 cycles
 SCF Done:  E(RB3LYP) =  -499.603607019     A.U. after    8 cycles
 SCF Done:  E(RB3LYP) =  -499.603607210     A.U. after    7 cycles
 SCF Done:  E(RB3LYP) =  -499.603607258     A.U. after    7 cycles
 Optimization completed.
    -- Stationary point found.

 1\1\GINC-NODE112\FOpt\RB3LYP\6-31G(d)\C7H12O3\VSC10255\08-Dec-2020\0\\
 # opt freq B3LYP/6-31G(d) empiricaldispersion=gd3bj scf=xqc\\CID_10345
 5689_JID_268_neutraal\\0,1\C,0.8551483964,-0.0890428066,-0.0656106093\
 O,0.4516210944,1.0009504551,0.7618338263\C,0.953677859,0.8888276091,2.
 0882993397\C,0.2326414235,-0.127357654,2.9895975701\O,0.8662752685,-0.
 7317836355,3.832814254\C,-1.2965806773,-0.2243047821,2.9228679652\C,-1
 .8680816244,0.931080588,3.7467913817\C,-2.0964410092,2.2852023476,3.11
 82468825\C,-3.2698266466,1.4092032355,3.4834962434\O,-1.8057140177,-0.

 Normal termination of Gaussian 16 at Tue Dec  8 10:22:50 2020.

 --------------------------------------------------------------------
 #N Geom=AllCheck Guess=TCheck SCRF=Check GenChk RB3LYP/6-31G(d) Freq
 --------------------------------------------------------------------

 Structure from the checkpoint file:  "JID_268.chk"
 ------------------------------
 CID_103455689_JID_268_neutraal
 ------------------------------
 Charge =  0 Multiplicity = 1

 SCF Done:  E(RB3LYP) =  -499.603607258     A.U. after    1 cycles

  Exact polarizability:  88.892   1.543  78.192  -0.831  -0.121  69.189
 Approx polarizability: 108.284   4.396 122.306  -1.193   1.508 101.455

                      1                      2                      3
                      A                      A                      A
 Frequencies --     41.6847                70.1044                95.6696
 Red. masses --      4.5184                 3.8577                 2.8637
 Frc consts  --      0.0046                 0.0112                 0.0154
 IR Inten    --      2.0359                 3.3610                 1.0094

                      4                      5                      6
                      A                      A                      A
 Frequencies --    133.9005               162.4158               182.0456
 Red. masses --      2.9766                 3.1845                 1.1105
 Frc consts  --      0.0314                 0.0495                 0.0217
 IR Inten    --      7.1771                 1.3834                 1.6784

                      7                      8                      9
                      A                      A                      A
 Frequencies --    256.4806               285.1812               306.5618
 Red. masses --      4.6612                 4.9547                 3.3081
 Frc consts  --      0.1807                 0.2374                 0.1832
 IR Inten    --     10.2103                 4.0227                 4.2769

                     10                     11                     12
                      A                      A                      A
 Frequencies --    371.6564               421.4306               426.3155
 Red. masses --      3.4043                 5.3946                 2.5306
 Frc consts  --      0.2771                 0.5645                 0.2710
 IR Inten    --     14.1497                23.3090                 3.7723

                     13                     14                     15
                      A                      A                      A
 Frequencies --    525.6080               623.5798               640.9250
 Red. masses --      4.2726                 2.5186                 1.0807
 Frc consts  --      0.6955                 0.5770                 0.2616
 IR Inten    --      4.2890                 2.1128               201.5327

                     16                     17                     18
                      A                      A                      A
 Frequencies --    658.9721               757.6196               802.2499
 Red. masses --      4.6413                 2.7944                 1.0990
 Frc consts  --      1.1875                 0.9450                 0.4168
 IR Inten    --      8.9467                 1.7706                 0.6743

                     19                     20                     21
                      A                      A                      A
 Frequencies --    829.6808               849.4347               917.1998
 Red. masses --      2.2973                 1.5135                 3.3953
 Frc consts  --      0.9317                 0.6434                 1.6829
 IR Inten    --      7.5971                14.9317                 0.6549

                     22                     23                     24
                      A                      A                      A
 Frequencies --    951.1037               987.6072              1038.8668
 Red. masses --      4.0243                 2.6654                 2.4909
 Frc consts  --      2.1449                 1.5317                 1.5839
 IR Inten    --     30.8744                10.9642                19.7774

                     25                     26                     27
                      A                      A                      A
 Frequencies --   1055.8794              1069.3041              1093.2798
 Red. masses --      2.2512                 1.3438                 1.3735
 Frc consts  --      1.4788                 0.9053                 0.9673
 IR Inten    --     11.5464                 6.5256                 1.7894

                     28                     29                     30
                      A                      A                      A
 Frequencies --   1119.2821              1148.1232              1163.6084
 Red. masses --      2.9900                 1.1496                 1.9752
 Frc consts  --      2.2070                 0.8928                 1.5757
 IR Inten    --     81.5282                13.4052                86.4946

                     31                     32                     33
                      A                      A                      A
 Frequencies --   1192.6353              1212.8162              1220.3825
 Red. masses --      1.2921                 1.3938                 1.8931
 Frc consts  --      1.0828                 1.2080                 1.6612
 IR Inten    --      5.0156                 0.5292                29.5638

                     34                     35                     36
                      A                      A                      A
 Frequencies --   1237.3776              1239.4092              1300.4514
 Red. masses --      2.0511                 2.9766                 1.3042
 Frc consts  --      1.8503                 2.6940                 1.2995
 IR Inten    --     13.6828                23.9985                 8.6250

                     37                     38                     39
                      A                      A                      A
 Frequencies --   1318.5138              1330.5403              1381.7647
 Red. masses --      1.2473                 1.3629                 1.3150
 Frc consts  --      1.2776                 1.4215                 1.4792
 IR Inten    --      9.1809                 3.2995                 8.9945

                     40                     41                     42
                      A                      A                      A
 Frequencies --   1404.0955              1473.6158              1485.2193
 Red. masses --      1.5957                 1.1826                 1.0859
 Frc consts  --      1.8535                 1.5131                 1.4113
 IR Inten    --      0.3161                42.7144                 1.8854

                     43                     44                     45
                      A                      A                      A
 Frequencies --   1489.2012              1508.7211              1520.5930
 Red. masses --      1.0928                 1.1428                 1.0524
 Frc consts  --      1.4279                 1.5326                 1.4337
 IR Inten    --      7.8196                10.9637                 8.0870

                     46                     47                     48
                      A                      A                      A
 Frequencies --   1531.2831              1533.5156              1812.5641
 Red. masses --      1.0552                 1.3638                11.6201
 Frc consts  --      1.4577                 1.8896                22.4931
 IR Inten    --     10.7732                 0.5246               130.8525

                     49                     50                     51
                      A                      A                      A
 Frequencies --   3028.5217              3047.0406              3091.4337
 Red. masses --      1.0339                 1.0577                 1.0878
 Frc consts  --      5.5874                 5.7858                 6.1255
 IR Inten    --     39.4272                25.0004                34.9416

                     52                     53                     54
                      A                      A                      A
 Frequencies --   3092.1124              3104.0977              3146.7719
 Red. masses --      1.1053                 1.1061                 1.0536
 Frc consts  --      6.2264                 6.2796                 6.1468
 IR Inten    --     24.4632                15.2855                13.8748

                     55                     56                     57
                      A                      A                      A
 Frequencies --   3156.6411              3157.3049              3163.4199
 Red. masses --      1.1011                 1.0605                 1.0833
 Frc consts  --      6.4642                 6.2287                 6.3872
 IR Inten    --     19.4123                13.8161                 9.7087

                     58                     59                     60
                      A                      A                      A
 Frequencies --   3223.9390              3246.9960              3642.7146
 Red. masses --      1.1182                 1.1169                 1.0657
 Frc consts  --      6.8475                 6.9382                 8.3320
 IR Inten    --      7.2149                 9.4485               163.2919

 - Thermochemistry -
 -------------------
 Temperature   298.150 Kelvin.  Pressure   1.00000 Atm.
 Atom     1 has atomic number  6 and mass  12.00000

 Molecular mass:   144.07864 amu.
 Principal axes and moments of inertia in atomic units:
                           1         2         3
     Eigenvalues --   935.981281842.926532161.43404
           X            0.99983  -0.01508   0.01059
           Y            0.01526   0.99974  -0.01670
           Z           -0.01034   0.01686   0.99980
 This molecule is an asymmetric top.
 Rotational symmetry number  1.
 Warning -- assumption of classical behavior for rotation
           may cause significant error
 Rotational temperatures (Kelvin)      0.09254     0.04700     0.04007
 Rotational constants (GHZ):           1.92818     0.97928     0.83497
 Zero-point vibrational energy     492140.5 (Joules/Mol)
                                  117.62440 (Kcal/Mol)
 Warning -- explicit consideration of  13 degrees of freedom as
           vibrations may cause significant error
 Vibrational temperatures:     59.98   100.86   137.65   192.65   233.68
          (Kelvin)            261.92   369.02   410.31   441.07   534.73
                              606.34   613.37   756.23   897.19   922.15
                              948.11  1090.05  1154.26  1193.73  1222.15
                             1319.65  1368.43  1420.95  1494.70  1519.17
                             1538.49  1572.99  1610.40  1651.89  1674.17
                             1715.94  1744.97  1755.86  1780.31  1783.23
                             1871.06  1897.05  1914.35  1988.05  2020.18
                             2120.20  2136.90  2142.63  2170.71  2187.79
                             2203.17  2206.39  2607.88  4357.37  4384.01
                             4447.88  4448.86  4466.10  4527.50  4541.70
                             4542.66  4551.46  4638.53  4671.70  5241.05

 Zero-point correction=                           0.187446 (Hartree/Particle)
 Thermal correction to Energy=                    0.198189
 Thermal correction to Enthalpy=                  0.199133
 Thermal correction to Gibbs Free Energy=         0.150562
 Sum of electronic and zero-point Energies=           -499.416161
 Sum of electronic and thermal Energies=              -499.405418
 Sum of electronic and thermal Enthalpies=            -499.404474
 Sum of electronic and thermal Free Energies=         -499.453045

                     E (Thermal)             CV                S
                      KCal/Mol        Cal/Mol-Kelvin    Cal/Mol-Kelvin
 Total                  124.366             39.019            102.227
 Electronic               0.000              0.000              0.000
 Translational            0.889              2.981             40.807
 Rotational               0.889              2.981             29.701
 Vibrational            122.588             33.057             31.719
 Vibration     1          0.594              1.981              5.177
 Vibration     2          0.598              1.968              4.150
 Vibration     3          0.603              1.952              3.541
 Vibration     4          0.613              1.919              2.889
 Vibration     5          0.623              1.889              2.521
 Vibration     6          0.630              1.864              2.307
 Vibration     7          0.666              1.752              1.686
 Vibration     8          0.683              1.701              1.502
 Vibration     9          0.697              1.661              1.381
 Vibration    10          0.743              1.530              1.073
 Vibration    11          0.784              1.424              0.887
 Vibration    12          0.788              1.413              0.871
 Vibration    13          0.881              1.193              0.597

 Optimization completed.
    -- Stationary point found.

 1\1\GINC-NODE112\Freq\RB3LYP\6-31G(d)\C7H12O3\VSC10255\08-Dec-2020\0\\
 #N Geom=AllCheck Guess=TCheck SCRF=Check GenChk RB3LYP/6-31G(d) Freq\\
 CID_103455689_JID_268_neutraal\\0,1\C,0.8551483964,-0.0890428066,-0.06
 56106093\O,0.4516210944,1.0009504551,0.7618338263\C,0.953677859,0.8888
 276091,2.0882993397\C,0.2326414235,-0.127357654,2.9895975701\O,0.86627
 52685,-0.7317836355,3.832814254\C,-1.2965806773,-0.2243047821,2.922867
 9652\C,-1.8680816244,0.931080588,3.7467913817\C,-2.0964410092,2.285202
 3476,3.1182468825\C,-3.2698266466,1.4092032355,3.4834962434\O,-1.80571

 Normal termination of Gaussian 16 at Tue Dec  8 10:27:04 2020.

 ----------------------------------------------------------------------
 # B3LYP/6-311++G(d,p) empiricaldispersion=gd3bj scf=xqc pop=npa geom=c
 heck
 ----------------------------------------------------------------------

 --------------------------------------
 CID_103455689_JID_268_Energie_neutraal
 --------------------------------------
 Structure from the checkpoint file:  "JID_268.chk"
 Charge =  0 Multiplicity = 1

 SCF Done:  E(RB3LYP) =  -499.759994061     A.U. after   13 cycles
 Normal termination of Gaussian 16 at Tue Dec  8 10:28:43 2020.

 ----------------------------------------------------------------------
 # B3LYP/6-311++G(d,p) empiricaldispersion=gd3bj scf=xqc pop=npa geom=c
 heck
 ----------------------------------------------------------------------

 ------------------------------------
 CID_103455689_JID_268_Energie_kation
 ------------------------------------
 Structure from the checkpoint file:  "JID_268.chk"
 Charge =  1 Multiplicity = 2

 SCF Done:  E(UB3LYP) =  -499.433765655     A.U. after   20 cycles
 Normal termination of Gaussian 16 at Tue Dec  8 10:32:29 2020.
 Gaussian 16:  ES64L-G16RevA.03 25-Dec-2016

 -----------------------------------
 CID_103455689_JID_268_Energie_anion
 -----------------------------------
 Structure from the checkpoint file:  "JID_268.chk"
 Charge = -1 Multiplicity = 2

                         Standard orientation:
 ---------------------------------------------------------------------
 Center     Atomic      Atomic             Coordinates (Angstroms)
 Number     Number       Type             X           Y           Z
 ---------------------------------------------------------------------
      1          6           0        2.728044   -1.060189    0.318898
      2          8           0        1.654878   -0.993927   -0.618922
      3          6           0        1.339602    0.343526   -0.987655
      4          6           0        0.546404    1.151797    0.052729
      5          8           0        0.737132    2.348442    0.150191
      6          6           0       -0.590149    0.462816    0.818186
      7          6           0       -1.810871    0.426801   -0.103182
      8          6           0       -2.006269   -0.710493   -1.077474
      9          6           0       -2.893504   -0.589499    0.137347
     10          8           0       -0.240584   -0.816311    1.323537
     11          1           0        2.927257   -2.119785    0.491626
     12          1           0        2.456840   -0.583140    1.269649
     13          1           0        3.627720   -0.580556   -0.088747
     14          1           0        2.242933    0.912715   -1.242558
     15          1           0        0.710664    0.267534   -1.882608
     16          1           0       -0.815286    1.093312    1.684074
     17          1           0       -2.122553    1.414896   -0.435872
     18          1           0       -2.420971   -0.480561   -2.054625
     19          1           0       -1.278235   -1.517625   -1.082495
     20          1           0       -2.723109   -1.298023    0.941433
     21          1           0       -3.925685   -0.280582    0.001458
     22          1           0        0.229472   -1.282367    0.607122
 ---------------------------------------------------------------------

 SCF Done:  E(UB3LYP) =  -499.750495393     A.U. after   31 cycles

 The electronic state is 2-A.
 Alpha  occ. eigenvalues --  -19.02681 -18.99703 -18.96664 -10.10376 -10.10150
 Alpha  occ. eigenvalues --  -10.10126 -10.09993 -10.06188 -10.05545 -10.05371
 Alpha  occ. eigenvalues --   -0.93757  -0.90702  -0.89706  -0.74193  -0.63003
 Alpha  occ. eigenvalues --   -0.59454  -0.54427  -0.48814  -0.46145  -0.44529
 Alpha  occ. eigenvalues --   -0.39040  -0.38774  -0.37512  -0.36193  -0.34542
 Alpha  occ. eigenvalues --   -0.32648  -0.31428  -0.28689  -0.27917  -0.27074
 Alpha  occ. eigenvalues --   -0.25685  -0.24692  -0.22676  -0.22010  -0.18614
 Alpha  occ. eigenvalues --   -0.18208  -0.17684  -0.16107  -0.10309   0.05165
 Alpha virt. eigenvalues --    0.07535   0.08186   0.09324   0.09815   0.10711
 Alpha virt. eigenvalues --    0.11166   0.11576   0.13005   0.13158   0.13689
 Alpha virt. eigenvalues --    0.14358   0.14863   0.17190   0.17672   0.17986

  Beta  occ. eigenvalues --  -19.02656 -18.99667 -18.96336 -10.10328 -10.10156
  Beta  occ. eigenvalues --  -10.10004 -10.09806 -10.06166 -10.05519 -10.05343
  Beta  occ. eigenvalues --   -0.93681  -0.90427  -0.89293  -0.74133  -0.62773
  Beta  occ. eigenvalues --   -0.59298  -0.54197  -0.48722  -0.46008  -0.44223
  Beta  occ. eigenvalues --   -0.38912  -0.38597  -0.37307  -0.36128  -0.34423
  Beta  occ. eigenvalues --   -0.32553  -0.31138  -0.28249  -0.27736  -0.26939
  Beta  occ. eigenvalues --   -0.25551  -0.24465  -0.21979  -0.21454  -0.18482
  Beta  occ. eigenvalues --   -0.18041  -0.17590  -0.16021  -0.10082
  Beta virt. eigenvalues --    0.07888   0.08413   0.09811   0.09939   0.10999
  Beta virt. eigenvalues --    0.11176   0.11458   0.12076   0.13165   0.13371
  Beta virt. eigenvalues --    0.13845   0.14616   0.15045   0.17216   0.17648

 Mulliken charges and spin densities:
               1          2
     1  C    0.684775  -0.988915
     2  O   -0.236707   0.078539
     3  C    0.382565  -0.768856
     4  C   -0.718207   0.780118
     5  O   -0.326338   0.117836
     6  C    0.496818  -0.748641
     7  C   -1.098381   1.392891
     8  C    0.479527  -0.926681
     9  C    0.764721  -1.184003
    10  O   -0.251966   0.006964
    11  H   -0.452657   0.612811
    12  H   -0.041554   0.210078
    13  H   -0.147433   0.256362
    14  H    0.061546   0.099051
    15  H   -0.402525   0.618072
    16  H    0.222132  -0.033065
    17  H   -0.185696   0.418284
    18  H   -0.345841   0.497968
    19  H    0.046504   0.100234
    20  H    0.045990   0.102942
    21  H   -0.173460   0.308107
    22  H    0.196188   0.049904
 Sum of Mulliken charges =  -1.00000   1.00000

 Dipole moment (field-independent basis, Debye):
    X=              0.2315    Y=              0.0092    Z=              2.3140  Tot=              2.3256
 Quadrupole moment (field-independent basis, Debye-Ang):
   XX=           -102.7312   YY=            -95.9761   ZZ=            -88.5591
   XY=              1.6062   XZ=             -4.1550   YZ=              0.0325

 Summary of Natural Population Analysis:

                                       Natural Population
                Natural  -----------------------------------------------
    Atom  No    Charge         Core      Valence    Rydberg      Total
 -----------------------------------------------------------------------
      C    1   -0.10112      0.99961     2.09194    0.00957     3.10112
      O    2   -0.30570      0.99989     3.29446    0.01134     4.30570
      C    3   -0.05811      0.99954     2.04434    0.01423     3.05811
      C    4    0.30660      0.99965     1.67175    0.02199     2.69340
      O    5   -0.26684      0.99987     3.26022    0.00675     4.26684
      C    6    0.02773      0.99950     1.95759    0.01519     2.97227
      C    7   -0.12408      0.99957     2.11340    0.01111     3.12408
      C    8   -0.20300      0.99962     2.19306    0.01033     3.20300
      C    9   -0.19897      0.99962     2.19122    0.00813     3.19897
      O   10   -0.38025      0.99990     3.37386    0.00650     4.38025
      H   11    0.09099      0.00000     0.40729    0.00172     0.40901
      H   12    0.08744      0.00000     0.41121    0.00136     0.41256
      H   13    0.07978      0.00000     0.41885    0.00137     0.42022
      H   14    0.08892      0.00000     0.40966    0.00142     0.41108
      H   15    0.10755      0.00000     0.38920    0.00325     0.39245
      H   16    0.09186      0.00000     0.40660    0.00154     0.40814
      H   17    0.10749      0.00000     0.39136    0.00115     0.39251
      H   18    0.10334      0.00000     0.39485    0.00181     0.39666
      H   19    0.10214      0.00000     0.39623    0.00163     0.39786
      H   20    0.10676      0.00000     0.39215    0.00110     0.39324
      H   21    0.09926      0.00000     0.39967    0.00107     0.40074
      H   22    0.23822      0.00000     0.25747    0.00431     0.26178
 =======================================================================
   * Total *    0.00000      9.99677    28.86636    0.13687    39.00000

 Normal termination of Gaussian 16 at Tue Dec  8 10:42:27 2020.
