 Gaussian 16, Revision A.03,

 -----------------------------------------------------------
 # opt freq B3LYP/6-31G(d) empiricaldispersion=gd3bj scf=xqc
 -----------------------------------------------------------

 -------------------------------
 CID_122197695_JID_3985_neutraal
 -------------------------------
 Symbolic Z-matrix:
 Charge =  0 Multiplicity = 1

 SCF Done:  E(RB3LYP) =  -613.781511719     A.U. after   14 cycles
 SCF Done:  E(RB3LYP) =  -613.784716431     A.U. after   12 cycles
 SCF Done:  E(RB3LYP) =  -613.786255276     A.U. after   12 cycles
 SCF Done:  E(RB3LYP) =  -613.787161657     A.U. after   12 cycles
 SCF Done:  E(RB3LYP) =  -613.787707122     A.U. after   11 cycles
 SCF Done:  E(RB3LYP) =  -613.787814976     A.U. after   10 cycles
 SCF Done:  E(RB3LYP) =  -613.787848168     A.U. after    9 cycles
 SCF Done:  E(RB3LYP) =  -613.787864293     A.U. after   10 cycles
 SCF Done:  E(RB3LYP) =  -613.787883685     A.U. after    9 cycles
 SCF Done:  E(RB3LYP) =  -613.787910529     A.U. after   10 cycles
 SCF Done:  E(RB3LYP) =  -613.788097603     A.U. after    8 cycles
 SCF Done:  E(RB3LYP) =  -613.788100781     A.U. after    8 cycles
 SCF Done:  E(RB3LYP) =  -613.788105223     A.U. after    9 cycles
 SCF Done:  E(RB3LYP) =  -613.788106681     A.U. after    8 cycles
 SCF Done:  E(RB3LYP) =  -613.788107072     A.U. after    7 cycles
 SCF Done:  E(RB3LYP) =  -613.788107150     A.U. after    7 cycles
 Optimization completed.
    -- Stationary point found.
 Normal termination of Gaussian 16 at Sun Dec 13 16:10:34 2020.

 --------------------------------------------------------------------
 #N Geom=AllCheck Guess=TCheck SCRF=Check GenChk RB3LYP/6-31G(d) Freq
 --------------------------------------------------------------------

 Structure from the checkpoint file:  "JID_3985.chk"
 -------------------------------
 CID_122197695_JID_3985_neutraal
 -------------------------------
 Charge =  0 Multiplicity = 1

 SCF Done:  E(RB3LYP) =  -613.788107150     A.U. after    1 cycles

  Exact polarizability: 124.227  -4.378  98.384  -1.717  -0.434 106.494
 Approx polarizability: 158.626  -8.473 139.353  -4.543   0.293 164.404

                      1                      2                      3
                      A                      A                      A
 Frequencies --     59.4234                68.5211                72.0613
 Red. masses --      3.5755                 3.1882                 5.4240
 Frc consts  --      0.0074                 0.0088                 0.0166
 IR Inten    --      6.4991                 4.1178                 2.5684

                      4                      5                      6
                      A                      A                      A
 Frequencies --    116.5980               137.0678               178.5099
 Red. masses --      3.1139                 3.9627                 2.0559
 Frc consts  --      0.0249                 0.0439                 0.0386
 IR Inten    --      0.3851                 0.2550                 0.8825

                      7                      8                      9
                      A                      A                      A
 Frequencies --    200.9214               222.3938               229.6355
 Red. masses --      3.6026                 1.4423                 1.2890
 Frc consts  --      0.0857                 0.0420                 0.0400
 IR Inten    --      4.7935                26.0952                 1.9577

                     10                     11                     12
                      A                      A                      A
 Frequencies --    243.1552               270.8691               280.1939
 Red. masses --      1.6598                 1.4127                 1.2809
 Frc consts  --      0.0578                 0.0611                 0.0592
 IR Inten    --      3.3152                 2.5203                 1.4642

                     13                     14                     15
                      A                      A                      A
 Frequencies --    303.0269               312.9535               341.4738
 Red. masses --      2.7881                 2.2702                 2.0808
 Frc consts  --      0.1508                 0.1310                 0.1430
 IR Inten    --      3.7366                 4.9300                 1.0416

                     16                     17                     18
                      A                      A                      A
 Frequencies --    367.0605               372.9839               395.8268
 Red. masses --      1.2394                 2.3197                 2.1674
 Frc consts  --      0.0984                 0.1901                 0.2001
 IR Inten    --    270.9603                 0.8035                 1.3264

                     19                     20                     21
                      A                      A                      A
 Frequencies --    427.1097               459.4812               499.0828
 Red. masses --      2.5284                 3.4183                 2.8994
 Frc consts  --      0.2718                 0.4252                 0.4255
 IR Inten    --      2.9422                 2.4662                 3.6162

                     22                     23                     24
                      A                      A                      A
 Frequencies --    507.8499               530.0739               578.7760
 Red. masses --      2.0942                 1.2708                 2.5994
 Frc consts  --      0.3182                 0.2104                 0.5130
 IR Inten    --      2.2380                 6.9808                 3.0806

                     25                     26                     27
                      A                      A                      A
 Frequencies --    658.8340               709.4990               770.3033
 Red. masses --      4.7973                 2.6098                10.4450
 Frc consts  --      1.2269                 0.7740                 3.6516
 IR Inten    --     10.8493                 1.0062                20.4595

                     28                     29                     30
                      A                      A                      A
 Frequencies --    786.8149               846.6339               864.1149
 Red. masses --      3.2417                 2.1895                 1.9036
 Frc consts  --      1.1824                 0.9247                 0.8375
 IR Inten    --     19.4714                21.2857                 2.9887

                     31                     32                     33
                      A                      A                      A
 Frequencies --    895.3101               941.3006               948.4778
 Red. masses --      1.4904                 1.7649                 1.7984
 Frc consts  --      0.7039                 0.9213                 0.9532
 IR Inten    --      9.0824                 7.5543                 1.2866

                     34                     35                     36
                      A                      A                      A
 Frequencies --    961.7229               971.4580               980.5789
 Red. masses --      1.9247                 1.2262                 1.6022
 Frc consts  --      1.0488                 0.6818                 0.9077
 IR Inten    --    185.6914                 0.8175                 2.0266

                     37                     38                     39
                      A                      A                      A
 Frequencies --   1011.0084              1028.9524              1054.4375
 Red. masses --      1.9895                 3.9655                 1.3874
 Frc consts  --      1.1981                 2.4736                 0.9088
 IR Inten    --     12.2080                39.4314                 2.9953

                     40                     41                     42
                      A                      A                      A
 Frequencies --   1059.5407              1076.7625              1085.5867
 Red. masses --      1.9057                 1.5953                 2.1717
 Frc consts  --      1.2605                 1.0898                 1.5079
 IR Inten    --     40.3576                 4.2870                50.5047

                     43                     44                     45
                      A                      A                      A
 Frequencies --   1129.1012              1132.9261              1147.5161
 Red. masses --      1.8759                 1.8244                 1.9706
 Frc consts  --      1.4090                 1.3797                 1.5289
 IR Inten    --      5.4179                33.0484                32.7577

                     46                     47                     48
                      A                      A                      A
 Frequencies --   1182.9237              1229.3179              1256.5266
 Red. masses --      1.4060                 1.8349                 2.8259
 Frc consts  --      1.1591                 1.6338                 2.6287
 IR Inten    --     22.2151                27.5980                 1.0857

                     49                     50                     51
                      A                      A                      A
 Frequencies --   1267.6957              1305.2242              1352.0214
 Red. masses --      2.0490                 2.9598                 1.8166
 Frc consts  --      1.9401                 2.9709                 1.9564
 IR Inten    --     80.1521                19.8342                 6.1868

                     52                     53                     54
                      A                      A                      A
 Frequencies --   1384.8513              1403.2454              1421.6608
 Red. masses --      3.3389                 1.3716                 1.3516
 Frc consts  --      3.7728                 1.5913                 1.6095
 IR Inten    --    351.5430                48.1602                 9.3785

                     55                     56                     57
                      A                      A                      A
 Frequencies --   1427.0120              1430.0130              1443.6354
 Red. masses --      1.2435                 1.2431                 1.3729
 Frc consts  --      1.4920                 1.4977                 1.6858
 IR Inten    --      4.3667                 1.3097                15.5625

                     58                     59                     60
                      A                      A                      A
 Frequencies --   1465.9715              1499.1068              1510.7147
 Red. masses --      1.2569                 1.1006                 1.0780
 Frc consts  --      1.5914                 1.4573                 1.4495
 IR Inten    --      6.9497                 3.3930                 2.1870

                     61                     62                     63
                      A                      A                      A
 Frequencies --   1513.0779              1516.3337              1522.3530
 Red. masses --      1.1520                 1.1524                 1.1127
 Frc consts  --      1.5539                 1.5612                 1.5193
 IR Inten    --      2.9388                 0.5449                 3.9463

                     64                     65                     66
                      A                      A                      A
 Frequencies --   1533.0765              1541.6538              1548.7623
 Red. masses --      1.0610                 1.0579                 1.0697
 Frc consts  --      1.4692                 1.4814                 1.5117
 IR Inten    --      5.2953                 6.3286                10.4199

                     67                     68                     69
                      A                      A                      A
 Frequencies --   1639.3275              1728.1014              1823.5174
 Red. masses --      1.2422                 1.0816                 9.5352
 Frc consts  --      1.9669                 1.9031                18.6810
 IR Inten    --    137.9442                20.1879               350.4281

                     70                     71                     72
                      A                      A                      A
 Frequencies --   3041.0401              3048.2245              3049.8794
 Red. masses --      1.0345                 1.0686                 1.0380
 Frc consts  --      5.6368                 5.8502                 5.6887
 IR Inten    --     26.7086                36.1112                35.4437

                     73                     74                     75
                      A                      A                      A
 Frequencies --   3058.6154              3107.6811              3110.4453
 Red. masses --      1.0384                 1.1026                 1.1022
 Frc consts  --      5.7238                 6.2738                 6.2829
 IR Inten    --     17.0997                 3.4342                 2.5229

                     76                     77                     78
                      A                      A                      A
 Frequencies --   3113.2571              3115.3196              3117.4123
 Red. masses --      1.1014                 1.0968                 1.1001
 Frc consts  --      6.2894                 6.2717                 6.2988
 IR Inten    --     19.4424                68.5251                54.1035

                     79                     80                     81
                      A                      A                      A
 Frequencies --   3139.2027              3140.1739              3144.8557
 Red. masses --      1.0958                 1.0897                 1.0979
 Frc consts  --      6.3622                 6.3311                 6.3975
 IR Inten    --     10.9346                13.7947                43.0945

                     82                     83                     84
                      A                      A                      A
 Frequencies --   3151.0621              3233.3287              3483.6995
 Red. masses --      1.0549                 1.1174                 1.0503
 Frc consts  --      6.1711                 6.8825                 7.5100
 IR Inten    --     14.6471                 9.3167                12.9491

                     85                     86                     87
                      A                      A                      A
 Frequencies --   3558.5120              3605.7577              3729.2887
 Red. masses --      1.0901                 1.0456                 1.1043
 Frc consts  --      8.1330                 8.0093                 9.0489
 IR Inten    --     13.6717                53.9693                44.9736

 - Thermochemistry -
 -------------------
 Temperature   298.150 Kelvin.  Pressure   1.00000 Atm.
 Atom     1 has atomic number  6 and mass  12.00000

 Molecular mass:   186.13683 amu.
 Principal axes and moments of inertia in atomic units:
                           1         2         3
     Eigenvalues --  1558.529813245.409553429.53877
           X            0.99995   0.00586  -0.00784
           Y           -0.00596   0.99990  -0.01262
           Z            0.00777   0.01267   0.99989
 This molecule is an asymmetric top.
 Rotational symmetry number  1.
 Warning -- assumption of classical behavior for rotation
           may cause significant error
 Rotational temperatures (Kelvin)      0.05557     0.02669     0.02526
 Rotational constants (GHZ):           1.15798     0.55609     0.52623
 Zero-point vibrational energy     718535.8 (Joules/Mol)
                                  171.73418 (Kcal/Mol)
 Warning -- explicit consideration of  24 degrees of freedom as
           vibrations may cause significant error
 Vibrational temperatures:     85.50    98.59   103.68   167.76   197.21
          (Kelvin)            256.84   289.08   319.98   330.39   349.85
                              389.72   403.14   435.99   450.27   491.30
                              528.12   536.64   569.51   614.52   661.09
                              718.07   730.68   762.66   832.73   947.92
                             1020.81  1108.29  1132.05  1218.12  1243.27
                             1288.15  1354.32  1364.65  1383.70  1397.71
                             1410.83  1454.62  1480.43  1517.10  1524.44
                             1549.22  1561.92  1624.52  1630.03  1651.02
                             1701.96  1768.71  1807.86  1823.93  1877.93
                             1945.26  1992.49  2018.96  2045.45  2053.15
                             2057.47  2077.07  2109.21  2156.88  2173.58
                             2176.98  2181.67  2190.33  2205.76  2218.10
                             2228.32  2358.63  2486.35  2623.63  4375.38
                             4385.72  4388.10  4400.67  4471.26  4475.24
                             4479.28  4482.25  4485.26  4516.61  4518.01
                             4524.75  4533.68  4652.04  5012.27  5119.91
                             5187.88  5365.61

 Zero-point correction=                           0.273676 (Hartree/Particle)
 Thermal correction to Energy=                    0.288637
 Thermal correction to Enthalpy=                  0.289581
 Thermal correction to Gibbs Free Energy=         0.233035
 Sum of electronic and zero-point Energies=           -613.514431
 Sum of electronic and thermal Energies=              -613.499470
 Sum of electronic and thermal Enthalpies=            -613.498526
 Sum of electronic and thermal Free Energies=         -613.555072

                     E (Thermal)             CV                S
                      KCal/Mol        Cal/Mol-Kelvin    Cal/Mol-Kelvin
 Total                  181.123             57.080            119.012
 Electronic               0.000              0.000              0.000
 Translational            0.889              2.981             41.570
 Rotational               0.889              2.981             31.229
 Vibrational            179.345             51.118             46.214
 Vibration     1          0.597              1.974              4.476
 Vibration     2          0.598              1.969              4.195
 Vibration     3          0.598              1.967              4.096
 Vibration     4          0.608              1.936              3.156
 Vibration     5          0.614              1.916              2.844
 Vibration     6          0.629              1.869              2.344
 Vibration     7          0.638              1.839              2.125
 Vibration     8          0.648              1.807              1.940
 Vibration     9          0.652              1.796              1.882
 Vibration    10          0.659              1.774              1.780
 Vibration    11          0.675              1.727              1.591
 Vibration    12          0.680              1.710              1.532
 Vibration    13          0.694              1.668              1.400
 Vibration    14          0.701              1.649              1.347
 Vibration    15          0.721              1.593              1.205
 Vibration    16          0.740              1.540              1.092
 Vibration    17          0.744              1.528              1.067
 Vibration    18          0.763              1.479              0.978
 Vibration    19          0.789              1.411              0.868
 Vibration    20          0.817              1.340              0.768
 Vibration    21          0.855              1.252              0.660
 Vibration    22          0.863              1.233              0.639
 Vibration    23          0.885              1.183              0.587
 Vibration    24          0.935              1.077              0.488

 Optimization completed.
    -- Stationary point found.
 Normal termination of Gaussian 16 at Sun Dec 13 16:19:33 2020.

 ----------------------------------------------------------------------
 # B3LYP/6-311++G(d,p) empiricaldispersion=gd3bj scf=xqc pop=npa geom=c
 heck
 ----------------------------------------------------------------------

 ---------------------------------------
 CID_122197695_JID_3985_Energie_neutraal
 ---------------------------------------
 Structure from the checkpoint file:  "JID_3985.chk"
 Charge =  0 Multiplicity = 1

 SCF Done:  E(RB3LYP) =  -613.979293225     A.U. after   14 cycles
 Normal termination of Gaussian 16 at Sun Dec 13 16:23:32 2020.

 ----------------------------------------------------------------------
 # B3LYP/6-311++G(d,p) empiricaldispersion=gd3bj scf=xqc pop=npa geom=c
 heck
 ----------------------------------------------------------------------

 -------------------------------------
 CID_122197695_JID_3985_Energie_kation
 -------------------------------------
 Structure from the checkpoint file:  "JID_3985.chk"
 Charge =  1 Multiplicity = 2

 SCF Done:  E(UB3LYP) =  -613.666714819     A.U. after   24 cycles
 Normal termination of Gaussian 16 at Sun Dec 13 16:33:14 2020.
 Gaussian 16:  ES64L-G16RevA.03 25-Dec-2016

 ----------------------------------------------------------------------
 # B3LYP/6-311++G(d,p) empiricaldispersion=gd3bj scf=xqc pop=npa geom=c
 heck
 ----------------------------------------------------------------------

 ------------------------------------
 CID_122197695_JID_3985_Energie_anion
 ------------------------------------
 Structure from the checkpoint file:  "JID_3985.chk"
 Charge = -1 Multiplicity = 2

                         Standard orientation:
 ---------------------------------------------------------------------
 Center     Atomic      Atomic             Coordinates (Angstroms)
 Number     Number       Type             X           Y           Z
 ---------------------------------------------------------------------
      1          6           0       -2.889712   -1.574193   -0.233531
      2          6           0       -1.954344   -0.440709    0.234599
      3          6           0       -2.682758    0.895655    0.019090
      4          6           0       -1.639896   -0.625444    1.730138
      5          6           0       -0.652358   -0.592587   -0.557848
      6          6           0       -0.421344   -0.102625   -1.971422
      7          6           0        0.420364    0.426681   -0.839687
      8          6           0        0.425535    1.912003   -0.499927
      9          7           0        0.562196    2.318819    0.898141
     10          8           0        1.749849   -0.128479   -0.881541
     11          6           0        2.302465   -0.549052    0.285321
     12          8           0        1.841153   -0.376634    1.399665
     13          7           0        3.458086   -1.230749    0.024257
     14          1           0       -3.827929   -1.562616    0.333436
     15          1           0       -2.422413   -2.555512   -0.090402
     16          1           0       -3.132272   -1.468548   -1.297177
     17          1           0       -3.654518    0.867590    0.524559
     18          1           0       -2.132076    1.746433    0.428762
     19          1           0       -2.872635    1.091009   -1.042069
     20          1           0       -1.181179   -1.603106    1.914926
     21          1           0       -0.931813    0.129565    2.081311
     22          1           0       -2.554867   -0.559135    2.331015
     23          1           0       -0.216054   -1.574552   -0.380431
     24          1           0        0.047703   -0.776742   -2.681612
     25          1           0       -1.136577    0.589282   -2.407691
     26          1           0        1.260497    2.345007   -1.066372
     27          1           0       -0.482878    2.368080   -0.902927
     28          1           0        1.273049    1.739350    1.341754
     29          1           0       -0.296455    2.092887    1.396469
     30          1           0        3.869746   -1.157397   -0.894272
     31          1           0        4.072963   -1.385551    0.808545
 ---------------------------------------------------------------------

 SCF Done:  E(UB3LYP) =  -613.967361971     A.U. after   32 cycles

 The electronic state is 2-A.
 Alpha  occ. eigenvalues --  -19.06395 -18.99783 -14.22772 -14.18996 -10.22203
 Alpha  occ. eigenvalues --  -10.14279 -10.10220 -10.09673 -10.08671 -10.07891
 Alpha  occ. eigenvalues --  -10.06825 -10.06427 -10.06028  -1.00972  -0.92119
 Alpha  occ. eigenvalues --   -0.81366  -0.78716  -0.76659  -0.71208  -0.60208
 Alpha  occ. eigenvalues --   -0.59439  -0.59128  -0.54867  -0.52557  -0.46909
 Alpha  occ. eigenvalues --   -0.45406  -0.43203  -0.41220  -0.40305  -0.39112
 Alpha  occ. eigenvalues --   -0.37469  -0.35467  -0.34905  -0.34318  -0.33333
 Alpha  occ. eigenvalues --   -0.32651  -0.30459  -0.29963  -0.29460  -0.28874
 Alpha  occ. eigenvalues --   -0.28070  -0.27307  -0.24987  -0.24335  -0.23582
 Alpha  occ. eigenvalues --   -0.22325  -0.20506  -0.19201  -0.18371  -0.17598
 Alpha  occ. eigenvalues --   -0.14177   0.04290
 Alpha virt. eigenvalues --    0.05874   0.07530   0.07811   0.08934   0.09264
 Alpha virt. eigenvalues --    0.09707   0.10216   0.10563   0.11046   0.11677
 Alpha virt. eigenvalues --    0.12698   0.13062   0.13430   0.13542   0.14348

  Beta  occ. eigenvalues --  -19.06379 -18.99774 -14.22684 -14.18989 -10.22196
  Beta  occ. eigenvalues --  -10.14277 -10.10211 -10.09671 -10.08662 -10.07874
  Beta  occ. eigenvalues --  -10.06796 -10.06401 -10.06017  -1.00949  -0.92097
  Beta  occ. eigenvalues --   -0.81278  -0.78679  -0.76641  -0.71190  -0.60170
  Beta  occ. eigenvalues --   -0.59400  -0.59088  -0.54805  -0.52513  -0.46833
  Beta  occ. eigenvalues --   -0.45328  -0.43176  -0.41146  -0.40286  -0.39088
  Beta  occ. eigenvalues --   -0.37432  -0.35437  -0.34876  -0.34289  -0.33313
  Beta  occ. eigenvalues --   -0.32624  -0.30435  -0.29937  -0.29432  -0.28852
  Beta  occ. eigenvalues --   -0.28051  -0.27284  -0.24962  -0.24312  -0.23559
  Beta  occ. eigenvalues --   -0.22306  -0.20489  -0.19170  -0.18353  -0.17535
  Beta  occ. eigenvalues --   -0.14166
  Beta virt. eigenvalues --    0.06367   0.07637   0.07992   0.08203   0.09483
  Beta virt. eigenvalues --    0.09859   0.10058   0.10362   0.10695   0.11895
  Beta virt. eigenvalues --    0.12061   0.12910   0.13115   0.13534   0.13646

 Mulliken charges and spin densities:
               1          2
     1  C    0.464511  -1.038224
     2  C   -1.833039   2.368753
     3  C    0.293729  -0.859588
     4  C   -0.064780  -0.493999
     5  C    0.376387  -0.142516
     6  C    0.634575  -1.297757
     7  C   -0.037051  -0.246862
     8  C    0.519658  -0.922542
     9  N   -0.363874   0.043747
    10  O    0.045227  -0.029659
    11  C    0.599312  -0.654732
    12  O   -0.282089  -0.032358
    13  N   -0.453895   0.174809
    14  H   -0.246117   0.393869
    15  H   -0.068205   0.206979
    16  H   -0.057847   0.199147
    17  H   -0.093519   0.251935
    18  H    0.053612   0.067006
    19  H   -0.254179   0.409933
    20  H   -0.079104   0.229502
    21  H    0.206408  -0.095845
    22  H    0.051694   0.098994
    23  H    0.094307   0.179771
    24  H   -0.061453   0.244362
    25  H    0.108548   0.031505
    26  H    0.022400   0.176921
    27  H    0.057468   0.091776
    28  H    0.267030  -0.009477
    29  H    0.104394   0.086456
    30  H   -0.477336   0.754932
    31  H   -0.526770   0.813163
 Sum of Mulliken charges =  -1.00000   1.00000

 Dipole moment (field-independent basis, Debye):
    X=             -4.6939    Y=              2.1968    Z=              0.0710  Tot=              5.1830
 Quadrupole moment (field-independent basis, Debye-Ang):
   XX=           -167.3505   YY=           -121.4400   ZZ=           -113.2063
   XY=              9.2430   XZ=             -0.2882   YZ=             -2.1177

 Summary of Natural Population Analysis:

                                       Natural Population
                Natural  -----------------------------------------------
    Atom  No    Charge         Core      Valence    Rydberg      Total
 -----------------------------------------------------------------------
      C    1   -0.28040      0.99963     2.27362    0.00715     3.28040
      C    2   -0.05189      0.99957     2.03991    0.01242     3.05189
      C    3   -0.28535      0.99962     2.27821    0.00752     3.28535
      C    4   -0.27960      0.99962     2.27408    0.00590     3.27960
      C    5   -0.11084      0.99950     2.09754    0.01380     3.11084
      C    6   -0.19570      0.99956     2.18716    0.00898     3.19570
      C    7    0.12428      0.99941     1.86006    0.01624     2.87572
      C    8   -0.09960      0.99956     2.08956    0.01048     3.09960
      N    9   -0.42190      0.99978     2.91298    0.00914     3.92190
      O   10   -0.29309      0.99985     3.28287    0.01037     4.29309
      C   11    0.45832      0.99971     1.51596    0.02601     2.54168
      O   12   -0.33823      0.99987     3.33287    0.00550     4.33823
      N   13   -0.40221      0.99971     2.89395    0.00855     3.90221
      H   14    0.09908      0.00000     0.39993    0.00099     0.40092
      H   15    0.09959      0.00000     0.39946    0.00095     0.40041
      H   16    0.10095      0.00000     0.39802    0.00103     0.39905
      H   17    0.10250      0.00000     0.39658    0.00092     0.39750
      H   18    0.09639      0.00000     0.40253    0.00109     0.40361
      H   19    0.10058      0.00000     0.39828    0.00114     0.39942
      H   20    0.10271      0.00000     0.39642    0.00087     0.39729
      H   21    0.10332      0.00000     0.39551    0.00117     0.39668
      H   22    0.09544      0.00000     0.40374    0.00083     0.40456
      H   23    0.11231      0.00000     0.38609    0.00160     0.38769
      H   24    0.10956      0.00000     0.38925    0.00119     0.39044
      H   25    0.10308      0.00000     0.39580    0.00112     0.39692
      H   26    0.09725      0.00000     0.40146    0.00129     0.40275
      H   27    0.09664      0.00000     0.40219    0.00117     0.40336
      H   28    0.18559      0.00000     0.31178    0.00263     0.31441
      H   29    0.16865      0.00000     0.32878    0.00256     0.33135
      H   30    0.20213      0.00000     0.28410    0.01377     0.29787
      H   31    0.20047      0.00000     0.29189    0.00764     0.29953
 =======================================================================
   * Total *   -0.00000     12.99539    37.82058    0.18403    51.00000

 Normal termination of Gaussian 16 at Sun Dec 13 16:45:47 2020.
