 Gaussian 16, Revision A.03,

 -----------------------------------------------------------
 # opt freq B3LYP/6-31G(d) empiricaldispersion=gd3bj scf=xqc
 -----------------------------------------------------------

 -------------------------------
 CID_129924775_JID_2703_neutraal
 -------------------------------
 Symbolic Z-matrix:
 Charge =  0 Multiplicity = 1

 SCF Done:  E(RB3LYP) =  -648.932097901     A.U. after   15 cycles
 SCF Done:  E(RB3LYP) =  -648.937586930     A.U. after   12 cycles
 SCF Done:  E(RB3LYP) =  -648.937059671     A.U. after   13 cycles
 SCF Done:  E(RB3LYP) =  -648.938195610     A.U. after   12 cycles
 SCF Done:  E(RB3LYP) =  -648.938498537     A.U. after   12 cycles
 SCF Done:  E(RB3LYP) =  -648.938549662     A.U. after   11 cycles
 SCF Done:  E(RB3LYP) =  -648.938586516     A.U. after   10 cycles
 SCF Done:  E(RB3LYP) =  -648.938607161     A.U. after   11 cycles
 SCF Done:  E(RB3LYP) =  -648.938615641     A.U. after    9 cycles
 SCF Done:  E(RB3LYP) =  -648.938619190     A.U. after    9 cycles
 SCF Done:  E(RB3LYP) =  -648.938619429     A.U. after    8 cycles
 Optimization completed.
    -- Stationary point found.

 1\1\GINC-NODE381\FOpt\RB3LYP\6-31G(d)\C7H10O5\VSC10255\09-Dec-2020\0\\
 # opt freq B3LYP/6-31G(d) empiricaldispersion=gd3bj scf=xqc\\CID_12992
 4775_JID_2703_neutraal\\0,1\C,0.9527403167,-0.0500881971,0.0405376215\
 C,0.6131885145,-0.6929419561,1.3855750506\C,0.9786686768,-2.1781055845
 ,1.4132496457\O,0.8859139601,-2.9716943531,0.5154131998\O,1.4025805288
 ,-2.5333341106,2.6619649958\C,1.4512386607,-1.3941818349,3.529776989\C
 ,1.3996982031,-0.145148746,2.6210765519\C,2.7968886209,0.3186800135,2.
 218712653\O,3.1394470323,1.4822476911,2.2688692965\O,3.5915393601,-0.6

 Normal termination of Gaussian 16 at Wed Dec  9 17:52:39 2020.

 --------------------------------------------------------------------
 #N Geom=AllCheck Guess=TCheck SCRF=Check GenChk RB3LYP/6-31G(d) Freq
 --------------------------------------------------------------------

 Structure from the checkpoint file:  "JID_2703.chk"
 -------------------------------
 CID_129924775_JID_2703_neutraal
 -------------------------------
 Charge =  0 Multiplicity = 1

 SCF Done:  E(RB3LYP) =  -648.938619429     A.U. after    1 cycles

  Exact polarizability:  87.998  -1.420  78.939   2.612  -1.918  77.030
 Approx polarizability: 132.282 -13.220 118.129   6.226  -4.656 112.721

                      1                      2                      3
                      A                      A                      A
 Frequencies --     65.4937                79.9085               152.9816
 Red. masses --      9.0672                 7.0487                 5.6078
 Frc consts  --      0.0229                 0.0265                 0.0773
 IR Inten    --      0.1367                 3.6084                 1.3074

                      4                      5                      6
                      A                      A                      A
 Frequencies --    179.9942               201.8354               210.6499
 Red. masses --      5.3146                 1.3123                 2.0411
 Frc consts  --      0.1014                 0.0315                 0.0534
 IR Inten    --      1.0964                 2.0316                 1.9240

                      7                      8                      9
                      A                      A                      A
 Frequencies --    245.6640               276.2475               290.0189
 Red. masses --      1.3293                 2.4339                 2.4873
 Frc consts  --      0.0473                 0.1094                 0.1233
 IR Inten    --      0.5420                 1.5860                 5.1680

                     10                     11                     12
                      A                      A                      A
 Frequencies --    303.6347               326.7416               391.9836
 Red. masses --      3.8026                 3.5855                 4.7517
 Frc consts  --      0.2066                 0.2255                 0.4302
 IR Inten    --     10.0349                 8.5064                 9.7526

                     13                     14                     15
                      A                      A                      A
 Frequencies --    398.2039               417.0921               450.1381
 Red. masses --      2.7106                 3.5078                 1.3807
 Frc consts  --      0.2532                 0.3595                 0.1648
 IR Inten    --     19.4863                15.8040                43.5298

                     16                     17                     18
                      A                      A                      A
 Frequencies --    527.4738               589.6351               608.7122
 Red. masses --      3.7590                 3.3085                 3.3636
 Frc consts  --      0.6162                 0.6777                 0.7343
 IR Inten    --     10.1805                18.2896                 5.7612

                     19                     20                     21
                      A                      A                      A
 Frequencies --    634.1890               694.5401               705.5356
 Red. masses --      1.8833                 5.5374                 4.1368
 Frc consts  --      0.4463                 1.5738                 1.2133
 IR Inten    --     63.7389                19.2102                42.3655

                     22                     23                     24
                      A                      A                      A
 Frequencies --    749.9816               786.3920               806.4211
 Red. masses --      6.9901                 4.7478                 3.0439
 Frc consts  --      2.3165                 1.7299                 1.1663
 IR Inten    --      4.9288                13.2854                10.6053

                     25                     26                     27
                      A                      A                      A
 Frequencies --    884.1216               965.0562               986.0571
 Red. masses --      2.2850                 1.9155                 1.5859
 Frc consts  --      1.0524                 1.0511                 0.9085
 IR Inten    --     10.2674                 1.5574                 1.1133

                     28                     29                     30
                      A                      A                      A
 Frequencies --   1033.4036              1078.9921              1093.9963
 Red. masses --      1.3684                 6.7451                 3.0861
 Frc consts  --      0.8610                 4.6267                 2.1761
 IR Inten    --      3.0766                87.7163                34.9089

                     31                     32                     33
                      A                      A                      A
 Frequencies --   1109.1027              1128.4666              1165.6755
 Red. masses --      2.5932                 3.5785                 3.6698
 Frc consts  --      1.8795                 2.6849                 2.9380
 IR Inten    --     26.4184               170.4046               246.3549

                     34                     35                     36
                      A                      A                      A
 Frequencies --   1196.1787              1212.2984              1243.2742
 Red. masses --      2.8664                 1.9197                 1.6260
 Frc consts  --      2.4164                 1.6623                 1.4809
 IR Inten    --     56.2433                37.5099                 8.2169

                     37                     38                     39
                      A                      A                      A
 Frequencies --   1270.9964              1298.8686              1365.7308
 Red. masses --      2.1691                 3.2992                 1.8138
 Frc consts  --      2.0645                 3.2794                 1.9933
 IR Inten    --      5.2052                34.1769                84.6344

                     40                     41                     42
                      A                      A                      A
 Frequencies --   1409.8427              1426.0425              1449.8619
 Red. masses --      1.5746                 1.2282                 1.2327
 Frc consts  --      1.8440                 1.4716                 1.5267
 IR Inten    --     26.8022                 2.2344                18.5749

                     43                     44                     45
                      A                      A                      A
 Frequencies --   1460.1493              1510.1974              1518.6972
 Red. masses --      1.8620                 1.0528                 1.0484
 Frc consts  --      2.3389                 1.4147                 1.4248
 IR Inten    --     25.7695                 3.2119                 1.3342

                     46                     47                     48
                      A                      A                      A
 Frequencies --   1528.4342              1541.7890              1549.2009
 Red. masses --      1.0586                 1.0604                 1.0774
 Frc consts  --      1.4571                 1.4852                 1.5235
 IR Inten    --      5.7165                 5.3001                10.7413

                     49                     50                     51
                      A                      A                      A
 Frequencies --   1829.2588              1888.8185              3065.6234
 Red. masses --     10.1667                12.6455                 1.0358
 Frc consts  --     20.0439                26.5807                 5.7351
 IR Inten    --    279.7875               301.6516                18.0310

                     52                     53                     54
                      A                      A                      A
 Frequencies --   3070.9064              3090.6466              3138.0146
 Red. masses --      1.0351                 1.0598                 1.1020
 Frc consts  --      5.7514                 5.9644                 6.3938
 IR Inten    --     10.1388                23.0766                12.8224

                     55                     56                     57
                      A                      A                      A
 Frequencies --   3140.1439              3148.3674              3149.5133
 Red. masses --      1.1028                 1.1021                 1.1090
 Frc consts  --      6.4069                 6.4364                 6.4813
 IR Inten    --     20.5370                15.8426                14.2215

                     58                     59                     60
                      A                      A                      A
 Frequencies --   3158.4529              3646.5826              3679.5827
 Red. masses --      1.1034                 1.0650                 1.0643
 Frc consts  --      6.4851                 8.3442                 8.4899
 IR Inten    --     10.8588                92.7905                73.6088

 - Thermochemistry -
 -------------------
 Temperature   298.150 Kelvin.  Pressure   1.00000 Atm.
 Atom     1 has atomic number  6 and mass  12.00000

 Molecular mass:   174.05282 amu.
 Principal axes and moments of inertia in atomic units:
                           1         2         3
     Eigenvalues --  1342.003732023.457592188.24640
           X            0.99789   0.06396   0.01161
           Y           -0.06449   0.99648   0.05365
           Z           -0.00814  -0.05428   0.99849
 This molecule is an asymmetric top.
 Rotational symmetry number  1.
 Warning -- assumption of classical behavior for rotation
           may cause significant error
 Rotational temperatures (Kelvin)      0.06454     0.04280     0.03958
 Rotational constants (GHZ):           1.34481     0.89191     0.82474
 Zero-point vibrational energy     457726.0 (Joules/Mol)
                                  109.39914 (Kcal/Mol)
 Warning -- explicit consideration of  18 degrees of freedom as
           vibrations may cause significant error
 Vibrational temperatures:     94.23   114.97   220.11   258.97   290.40
          (Kelvin)            303.08   353.46   397.46   417.27   436.86
                              470.11   563.98   572.93   600.10   647.65
                              758.92   848.35   875.80   912.46   999.29
                             1015.11  1079.06  1131.44  1160.26  1272.05
                             1388.50  1418.72  1486.84  1552.43  1574.02
                             1595.75  1623.61  1677.15  1721.03  1744.23
                             1788.79  1828.68  1868.78  1964.98  2028.45
                             2051.76  2086.03  2100.83  2172.84  2185.07
                             2199.08  2218.29  2228.95  2631.90  2717.59
                             4410.75  4418.35  4446.75  4514.90  4517.97
                             4529.80  4531.45  4544.31  5246.62  5294.10

 Zero-point correction=                           0.174339 (Hartree/Particle)
 Thermal correction to Energy=                    0.186009
 Thermal correction to Enthalpy=                  0.186954
 Thermal correction to Gibbs Free Energy=         0.137457
 Sum of electronic and zero-point Energies=           -648.764281
 Sum of electronic and thermal Energies=              -648.752610
 Sum of electronic and thermal Enthalpies=            -648.751666
 Sum of electronic and thermal Free Energies=         -648.801162

                     E (Thermal)             CV                S
                      KCal/Mol        Cal/Mol-Kelvin    Cal/Mol-Kelvin
 Total                  116.723             44.254            104.175
 Electronic               0.000              0.000              0.000
 Translational            0.889              2.981             41.370
 Rotational               0.889              2.981             30.164
 Vibrational            114.945             38.292             32.640
 Vibration     1          0.597              1.971              4.284
 Vibration     2          0.600              1.963              3.893
 Vibration     3          0.619              1.899              2.635
 Vibration     4          0.629              1.867              2.328
 Vibration     5          0.639              1.837              2.116
 Vibration     6          0.643              1.825              2.038
 Vibration     7          0.660              1.770              1.761
 Vibration     8          0.678              1.717              1.557
 Vibration     9          0.686              1.692              1.474
 Vibration    10          0.695              1.667              1.397
 Vibration    11          0.710              1.622              1.276
 Vibration    12          0.759              1.487              0.993
 Vibration    13          0.764              1.474              0.969
 Vibration    14          0.780              1.433              0.902
 Vibration    15          0.809              1.361              0.795
 Vibration    16          0.882              1.189              0.593
 Vibration    17          0.947              1.054              0.468
 Vibration    18          0.968              1.013              0.435

 Optimization completed.
    -- Stationary point found.

 1\1\GINC-NODE381\Freq\RB3LYP\6-31G(d)\C7H10O5\VSC10255\09-Dec-2020\0\\
 #N Geom=AllCheck Guess=TCheck SCRF=Check GenChk RB3LYP/6-31G(d) Freq\\
 CID_129924775_JID_2703_neutraal\\0,1\C,0.9527403167,-0.0500881971,0.04
 05376215\C,0.6131885145,-0.6929419561,1.3855750506\C,0.9786686768,-2.1
 781055845,1.4132496457\O,0.8859139601,-2.9716943531,0.5154131998\O,1.4
 025805288,-2.5333341106,2.6619649958\C,1.4512386607,-1.3941818349,3.52
 9776989\C,1.3996982031,-0.145148746,2.6210765519\C,2.7968886209,0.3186
 800135,2.218712653\O,3.1394470323,1.4822476911,2.2688692965\O,3.591539

 Normal termination of Gaussian 16 at Wed Dec  9 17:57:52 2020.

 ----------------------------------------------------------------------
 # B3LYP/6-311++G(d,p) empiricaldispersion=gd3bj scf=xqc pop=npa geom=c
 heck
 ----------------------------------------------------------------------

 ---------------------------------------
 CID_129924775_JID_2703_Energie_neutraal
 ---------------------------------------
 Structure from the checkpoint file:  "JID_2703.chk"
 Charge =  0 Multiplicity = 1

 SCF Done:  E(RB3LYP) =  -649.147101370     A.U. after   15 cycles
 Normal termination of Gaussian 16 at Wed Dec  9 17:59:58 2020.

 ----------------------------------------------------------------------
 # B3LYP/6-311++G(d,p) empiricaldispersion=gd3bj scf=xqc pop=npa geom=c
 heck
 ----------------------------------------------------------------------

 -------------------------------------
 CID_129924775_JID_2703_Energie_kation
 -------------------------------------
 Structure from the checkpoint file:  "JID_2703.chk"
 Charge =  1 Multiplicity = 2

 SCF Done:  E(UB3LYP) =  -648.788780728     A.U. after   24 cycles
 Normal termination of Gaussian 16 at Wed Dec  9 18:03:48 2020.
 Gaussian 16:  ES64L-G16RevA.03 25-Dec-2016

 ------------------------------------
 CID_129924775_JID_2703_Energie_anion
 ------------------------------------
 Structure from the checkpoint file:  "JID_2703.chk"
 Charge = -1 Multiplicity = 2

                         Standard orientation:
 ---------------------------------------------------------------------
 Center     Atomic      Atomic             Coordinates (Angstroms)
 Number     Number       Type             X           Y           Z
 ---------------------------------------------------------------------
      1          6           0        0.434446    0.609412    1.909486
      2          6           0        0.679495    0.571959    0.400768
      3          6           0        1.534073   -0.629885   -0.005830
      4          8           0        2.456134   -1.110069    0.597266
      5          8           0        1.138589   -1.094347   -1.227732
      6          6           0        0.000480   -0.368234   -1.707939
      7          6           0       -0.590114    0.380439   -0.491730
      8          6           0       -1.644488   -0.455413    0.228563
      9          8           0       -2.716949   -0.001397    0.571269
     10          8           0       -1.262645   -1.722272    0.454686
     11          8           0       -1.199129    1.576577   -0.905834
     12          6           0        1.432389    1.843967   -0.041435
     13          1           0       -0.201206    1.462318    2.169977
     14          1           0        1.389457    0.711168    2.431461
     15          1           0       -0.039232   -0.307432    2.270682
     16          1           0       -0.688679   -1.080848   -2.164642
     17          1           0        0.311623    0.367149   -2.455786
     18          1           0       -1.986851   -2.162641    0.939349
     19          1           0       -2.046982    1.630371   -0.425250
     20          1           0        0.824933    2.725525    0.175096
     21          1           0        2.378370    1.909244    0.503717
     22          1           0        1.652887    1.843731   -1.113143
 ---------------------------------------------------------------------

 SCF Done:  E(UB3LYP) =  -649.137843266     A.U. after   30 cycles

 The electronic state is 2-A.
 Alpha  occ. eigenvalues --  -19.06777 -19.06658 -19.03437 -19.01874 -19.01230
 Alpha  occ. eigenvalues --  -10.20168 -10.19945 -10.15463 -10.13508 -10.10759
 Alpha  occ. eigenvalues --  -10.07333 -10.06476  -1.01631  -1.00605  -0.95015
 Alpha  occ. eigenvalues --   -0.93144  -0.91806  -0.73450  -0.66079  -0.60468
 Alpha  occ. eigenvalues --   -0.59123  -0.54644  -0.49720  -0.46269  -0.44505
 Alpha  occ. eigenvalues --   -0.40673  -0.39311  -0.39094  -0.37586  -0.37049
 Alpha  occ. eigenvalues --   -0.34010  -0.32745  -0.32362  -0.31801  -0.29994
 Alpha  occ. eigenvalues --   -0.29519  -0.29001  -0.27655  -0.26862  -0.25629
 Alpha  occ. eigenvalues --   -0.24345  -0.22794  -0.20722  -0.19748  -0.18929
 Alpha  occ. eigenvalues --   -0.16955   0.04763
 Alpha virt. eigenvalues --    0.07165   0.08057   0.08266   0.09125   0.09890
 Alpha virt. eigenvalues --    0.10453   0.10767   0.11633   0.13007   0.13305
 Alpha virt. eigenvalues --    0.13575   0.14349   0.16109   0.16429   0.17091

  Beta  occ. eigenvalues --  -19.06771 -19.06550 -19.03422 -19.01784 -19.01220
  Beta  occ. eigenvalues --  -10.20055 -10.19939 -10.15458 -10.13465 -10.10750
  Beta  occ. eigenvalues --  -10.07308 -10.06451  -1.01481  -1.00537  -0.94951
  Beta  occ. eigenvalues --   -0.93121  -0.91663  -0.73409  -0.65994  -0.60382
  Beta  occ. eigenvalues --   -0.59049  -0.54477  -0.49640  -0.46178  -0.44399
  Beta  occ. eigenvalues --   -0.40575  -0.39207  -0.39026  -0.37498  -0.36890
  Beta  occ. eigenvalues --   -0.33917  -0.32621  -0.32295  -0.31667  -0.29953
  Beta  occ. eigenvalues --   -0.29478  -0.28963  -0.27612  -0.26803  -0.25595
  Beta  occ. eigenvalues --   -0.24280  -0.22458  -0.20686  -0.19720  -0.18826
  Beta  occ. eigenvalues --   -0.16929
  Beta virt. eigenvalues --    0.07242   0.08617   0.08720   0.08960   0.09752
  Beta virt. eigenvalues --    0.10580   0.11003   0.11165   0.11892   0.13117
  Beta virt. eigenvalues --    0.13569   0.14012   0.14973   0.16099   0.16939

 Mulliken charges and spin densities:
               1          2
     1  C    0.566363  -1.010790
     2  C   -0.191443   0.593401
     3  C   -0.355091   0.210092
     4  O   -0.311488   0.016677
     5  O   -0.065950   0.022643
     6  C    1.312044  -1.702786
     7  C   -1.215108   1.163435
     8  C    0.834587  -0.994028
     9  O   -0.289212   0.061434
    10  O   -0.209079   0.053299
    11  O   -0.218366   0.026783
    12  C    0.647265  -1.028634
    13  H   -0.069595   0.232075
    14  H   -0.006742   0.188421
    15  H   -0.231043   0.427541
    16  H   -0.311823   0.539576
    17  H   -0.128734   0.344152
    18  H   -0.652265   0.985166
    19  H    0.055953   0.211768
    20  H   -0.111339   0.291666
    21  H   -0.044905   0.201783
    22  H   -0.004029   0.166324
 Sum of Mulliken charges =  -1.00000   1.00000

 Dipole moment (field-independent basis, Debye):
    X=              2.2537    Y=              3.8217    Z=             -1.9880  Tot=              4.8618
 Quadrupole moment (field-independent basis, Debye-Ang):
   XX=           -115.3467   YY=           -110.7592   ZZ=           -102.8821
   XY=             -4.5475   XZ=              3.6355   YZ=              5.6737

 Summary of Natural Population Analysis:

                                       Natural Population
                Natural  -----------------------------------------------
    Atom  No    Charge         Core      Valence    Rydberg      Total
 -----------------------------------------------------------------------
      C    1   -0.29023      0.99963     2.28195    0.00865     3.29023
      C    2   -0.08752      0.99950     2.07398    0.01403     3.08752
      C    3    0.42000      0.99960     1.55252    0.02788     2.58000
      O    4   -0.29189      0.99986     3.28546    0.00657     4.29189
      O    5   -0.27359      0.99986     3.26561    0.00812     4.27359
      C    6   -0.01251      0.99954     1.99856    0.01442     3.01251
      C    7    0.08524      0.99943     1.89488    0.02045     2.91476
      C    8    0.41758      0.99964     1.55646    0.02632     2.58242
      O    9   -0.30582      0.99987     3.29896    0.00699     4.30582
      O   10   -0.33962      0.99987     3.33164    0.00811     4.33962
      O   11   -0.37372      0.99989     3.36677    0.00706     4.37372
      C   12   -0.28198      0.99962     2.27410    0.00826     3.28198
      H   13    0.10347      0.00000     0.39542    0.00111     0.39653
      H   14    0.10809      0.00000     0.39090    0.00101     0.39191
      H   15    0.11150      0.00000     0.38678    0.00173     0.38850
      H   16    0.10146      0.00000     0.39683    0.00170     0.39854
      H   17    0.09389      0.00000     0.40449    0.00161     0.40611
      H   18    0.25315      0.00000     0.20493    0.04192     0.24685
      H   19    0.24483      0.00000     0.25160    0.00357     0.25517
      H   20    0.10999      0.00000     0.38895    0.00106     0.39001
      H   21    0.10492      0.00000     0.39404    0.00104     0.39508
      H   22    0.10275      0.00000     0.39605    0.00119     0.39725
 =======================================================================
   * Total *    0.00000     11.99631    33.79088    0.21281    46.00000

 Normal termination of Gaussian 16 at Wed Dec  9 18:08:54 2020.
