 Gaussian 16, Revision A.03,

 -----------------------------------------------------------
 # opt freq B3LYP/6-31G(d) empiricaldispersion=gd3bj scf=xqc
 -----------------------------------------------------------

 ------------------------------
 CID_62901048_JID_6727_neutraal
 ------------------------------
 Symbolic Z-matrix:
 Charge =  0 Multiplicity = 1

 SCF Done:  E(RB3LYP) =  -768.823981535     A.U. after   13 cycles
 SCF Done:  E(RB3LYP) =  -768.829285796     A.U. after   12 cycles
 SCF Done:  E(RB3LYP) =  -768.829391830     A.U. after   12 cycles
 SCF Done:  E(RB3LYP) =  -768.828950699     A.U. after   12 cycles
 SCF Done:  E(RB3LYP) =  -768.829977577     A.U. after   12 cycles
 SCF Done:  E(RB3LYP) =  -768.830582230     A.U. after   12 cycles
 SCF Done:  E(RB3LYP) =  -768.830533077     A.U. after   12 cycles
 SCF Done:  E(RB3LYP) =  -768.830721761     A.U. after   11 cycles
 SCF Done:  E(RB3LYP) =  -768.830728369     A.U. after   10 cycles
 SCF Done:  E(RB3LYP) =  -768.830740553     A.U. after    9 cycles
 SCF Done:  E(RB3LYP) =  -768.830744436     A.U. after    9 cycles
 SCF Done:  E(RB3LYP) =  -768.830746651     A.U. after    8 cycles
 SCF Done:  E(RB3LYP) =  -768.830747367     A.U. after    8 cycles
 SCF Done:  E(RB3LYP) =  -768.830747618     A.U. after    7 cycles
 SCF Done:  E(RB3LYP) =  -768.830747772     A.U. after    7 cycles
 SCF Done:  E(RB3LYP) =  -768.830747785     A.U. after    6 cycles
 Optimization completed.
    -- Stationary point found.
 Normal termination of Gaussian 16 at Fri Dec 11 00:29:29 2020.

 --------------------------------------------------------------------
 #N Geom=AllCheck Guess=TCheck SCRF=Check GenChk RB3LYP/6-31G(d) Freq
 --------------------------------------------------------------------

 Structure from the checkpoint file:  "JID_6727.chk"
 ------------------------------
 CID_62901048_JID_6727_neutraal
 ------------------------------
 Charge =  0 Multiplicity = 1

 SCF Done:  E(RB3LYP) =  -768.830747785     A.U. after    1 cycles

  Exact polarizability: 157.206  -2.588 142.819  -2.740  -1.913 122.452
 Approx polarizability: 193.837  -9.894 191.055  -5.915   3.605 190.062

                      1                      2                      3
                      A                      A                      A
 Frequencies --     20.0511                34.6455                53.6843
 Red. masses --      3.5553                 4.1442                 3.4973
 Frc consts  --      0.0008                 0.0029                 0.0059
 IR Inten    --      0.1700                 0.9472                 0.5270

                      4                      5                      6
                      A                      A                      A
 Frequencies --     57.6445                74.7174                84.9303
 Red. masses --      3.3367                 2.2250                 3.9221
 Frc consts  --      0.0065                 0.0073                 0.0167
 IR Inten    --      1.1335                 1.3577                 2.5453

                      7                      8                      9
                      A                      A                      A
 Frequencies --     94.2812               103.1990               115.4239
 Red. masses --      2.8145                 2.7680                 3.1625
 Frc consts  --      0.0147                 0.0174                 0.0248
 IR Inten    --      1.7631                 2.3028                 0.5054

                     10                     11                     12
                      A                      A                      A
 Frequencies --    131.8884               158.3632               195.2840
 Red. masses --      2.4696                 2.7475                 3.4913
 Frc consts  --      0.0253                 0.0406                 0.0784
 IR Inten    --      6.4006                 2.5762                 0.2475

                     13                     14                     15
                      A                      A                      A
 Frequencies --    199.1004               215.3197               237.8454
 Red. masses --      1.6753                 2.5926                 1.3028
 Frc consts  --      0.0391                 0.0708                 0.0434
 IR Inten    --      0.1496                 2.0156                 1.3413

                     16                     17                     18
                      A                      A                      A
 Frequencies --    246.3715               268.2662               275.6742
 Red. masses --      1.5797                 1.6501                 2.6958
 Frc consts  --      0.0565                 0.0700                 0.1207
 IR Inten    --      4.0293                 2.1953                 3.5455

                     19                     20                     21
                      A                      A                      A
 Frequencies --    302.9929               306.7546               358.5146
 Red. masses --      2.3674                 2.6799                 1.9503
 Frc consts  --      0.1281                 0.1486                 0.1477
 IR Inten    --      9.0388                 9.2075                 2.1514

                     22                     23                     24
                      A                      A                      A
 Frequencies --    368.4885               382.9691               394.7670
 Red. masses --      1.3198                 2.6266                 3.0704
 Frc consts  --      0.1056                 0.2270                 0.2819
 IR Inten    --    173.0752                17.9344                26.1105

                     25                     26                     27
                      A                      A                      A
 Frequencies --    442.7294               451.8679               509.4359
 Red. masses --      2.8426                 2.9208                 2.8890
 Frc consts  --      0.3283                 0.3514                 0.4418
 IR Inten    --      4.9968                14.8568                 2.9267

                     28                     29                     30
                      A                      A                      A
 Frequencies --    555.6385               560.9709               588.6905
 Red. masses --      2.3126                 2.5261                 2.3090
 Frc consts  --      0.4207                 0.4684                 0.4715
 IR Inten    --      3.5303                11.8583                 2.8285

                     31                     32                     33
                      A                      A                      A
 Frequencies --    658.4947               747.8894               775.2834
 Red. masses --      1.1782                 2.2312                 2.0494
 Frc consts  --      0.3010                 0.7353                 0.7258
 IR Inten    --      6.2524                 4.8442                 7.6102

                     34                     35                     36
                      A                      A                      A
 Frequencies --    784.8062               832.7916               853.8152
 Red. masses --      1.5884                 3.0607                 2.3573
 Frc consts  --      0.5764                 1.2507                 1.0125
 IR Inten    --      3.3384                12.2951                 1.7237

                     37                     38                     39
                      A                      A                      A
 Frequencies --    885.7825               896.0642               930.7000
 Red. masses --      1.9600                 2.4534                 2.0904
 Frc consts  --      0.9060                 1.1606                 1.0669
 IR Inten    --      3.7389                 1.7217                10.2274

                     40                     41                     42
                      A                      A                      A
 Frequencies --    968.8080               998.7195              1026.7511
 Red. masses --      2.1981                 2.1648                 3.0814
 Frc consts  --      1.2156                 1.2722                 1.9139
 IR Inten    --      1.7044                 2.9398                71.9454

                     43                     44                     45
                      A                      A                      A
 Frequencies --   1055.7973              1066.9345              1081.9665
 Red. masses --      2.3878                 2.1758                 1.9281
 Frc consts  --      1.5683                 1.4593                 1.3299
 IR Inten    --      5.6485                15.4840                17.5627

                     46                     47                     48
                      A                      A                      A
 Frequencies --   1097.9387              1100.8988              1118.8046
 Red. masses --      2.3038                 2.1755                 2.1359
 Frc consts  --      1.6362                 1.5534                 1.5752
 IR Inten    --     33.3003                20.9350                16.1250

                     49                     50                     51
                      A                      A                      A
 Frequencies --   1127.2641              1143.7863              1155.8280
 Red. masses --      2.0473                 2.0622                 2.1482
 Frc consts  --      1.5328                 1.5895                 1.6909
 IR Inten    --      7.4384                21.8053                 9.2169

                     52                     53                     54
                      A                      A                      A
 Frequencies --   1168.9842              1174.4548              1190.6903
 Red. masses --      4.8802                 3.9684                 1.6141
 Frc consts  --      3.9292                 3.2251                 1.3483
 IR Inten    --    125.1338               138.4625                 4.6704

                     55                     56                     57
                      A                      A                      A
 Frequencies --   1195.4765              1199.9065              1229.6701
 Red. masses --      1.3318                 1.8126                 1.6269
 Frc consts  --      1.1214                 1.5376                 1.4494
 IR Inten    --      4.3940                 4.5388                40.4536

                     58                     59                     60
                      A                      A                      A
 Frequencies --   1243.4298              1268.0483              1285.2111
 Red. masses --      1.8223                 1.2093                 1.2723
 Frc consts  --      1.6600                 1.1457                 1.2382
 IR Inten    --     23.2086                12.8425                 9.3335

                     61                     62                     63
                      A                      A                      A
 Frequencies --   1301.0865              1303.0720              1335.9407
 Red. masses --      1.2353                 1.3642                 1.2720
 Frc consts  --      1.2320                 1.3647                 1.3375
 IR Inten    --      5.5660                 8.1266                29.2628

                     64                     65                     66
                      A                      A                      A
 Frequencies --   1352.6247              1359.8736              1368.9807
 Red. masses --      1.6190                 1.2657                 1.2479
 Frc consts  --      1.7452                 1.3791                 1.3780
 IR Inten    --     28.1877                26.3343                22.6962

                     67                     68                     69
                      A                      A                      A
 Frequencies --   1385.6010              1408.0857              1415.4914
 Red. masses --      1.3867                 1.4519                 1.3677
 Frc consts  --      1.5686                 1.6960                 1.6146
 IR Inten    --      8.3975                24.9596                16.1679

                     70                     71                     72
                      A                      A                      A
 Frequencies --   1426.3801              1441.0190              1449.3240
 Red. masses --      1.4205                 1.2762                 1.2386
 Frc consts  --      1.7028                 1.5614                 1.5328
 IR Inten    --      5.8505                22.1244                 1.3427

                     73                     74                     75
                      A                      A                      A
 Frequencies --   1453.9373              1457.7456              1499.5179
 Red. masses --      1.3186                 1.3223                 1.0957
 Frc consts  --      1.6423                 1.6556                 1.4516
 IR Inten    --      7.2428                 3.2207                 4.0670

                     76                     77                     78
                      A                      A                      A
 Frequencies --   1499.7744              1502.8158              1504.9537
 Red. masses --      1.1422                 1.1497                 1.1071
 Frc consts  --      1.5137                 1.5299                 1.4774
 IR Inten    --      7.6249                 5.8957                 1.5715

                     79                     80                     81
                      A                      A                      A
 Frequencies --   1514.4127              1514.9431              1524.0891
 Red. masses --      1.0477                 1.0486                 1.0727
 Frc consts  --      1.4157                 1.4179                 1.4681
 IR Inten    --      5.4401                 4.9571                 4.0281

                     82                     83                     84
                      A                      A                      A
 Frequencies --   1526.8161              1530.8777              1532.5272
 Red. masses --      1.0714                 1.0427                 1.0588
 Frc consts  --      1.4716                 1.4397                 1.4651
 IR Inten    --      9.7474                 4.8566                 9.4647

                     85                     86                     87
                      A                      A                      A
 Frequencies --   1533.5727              1542.7130              1550.2707
 Red. masses --      1.0609                 1.0937                 1.0950
 Frc consts  --      1.4701                 1.5336                 1.5505
 IR Inten    --      5.8575                 5.6880                 1.4014

                     88                     89                     90
                      A                      A                      A
 Frequencies --   1560.9059              1610.0359              1806.1715
 Red. masses --      1.0877                 1.2948                 9.1987
 Frc consts  --      1.5614                 1.9776                17.6805
 IR Inten    --      3.0935               122.1665               270.5674

                     91                     92                     93
                      A                      A                      A
 Frequencies --   2958.7742              2982.6656              2983.5211
 Red. masses --      1.0611                 1.0827                 1.0497
 Frc consts  --      5.4732                 5.6752                 5.5050
 IR Inten    --     61.4105                42.9177                21.5391

                     94                     95                     96
                      A                      A                      A
 Frequencies --   2986.8675              2994.5717              3002.2173
 Red. masses --      1.0420                 1.0514                 1.0927
 Frc consts  --      5.4773                 5.5552                 5.8025
 IR Inten    --     84.0335                86.0225                71.7351

                     97                     98                     99
                      A                      A                      A
 Frequencies --   3024.7735              3026.8867              3028.5116
 Red. masses --      1.0779                 1.0848                 1.1044
 Frc consts  --      5.8106                 5.8556                 5.9682
 IR Inten    --     57.4678                 8.8936                67.6509

                    100                    101                    102
                      A                      A                      A
 Frequencies --   3035.1684              3035.9456              3049.4646
 Red. masses --      1.1037                 1.0721                 1.0629
 Frc consts  --      5.9906                 5.8218                 5.8237
 IR Inten    --     69.8338                52.1088                37.8992

                    103                    104                    105
                      A                      A                      A
 Frequencies --   3054.9775              3089.8719              3090.4280
 Red. masses --      1.0376                 1.0635                 1.1018
 Frc consts  --      5.7054                 5.9823                 6.1999
 IR Inten    --     31.2506                11.6676                44.9960

                    106                    107                    108
                      A                      A                      A
 Frequencies --   3105.6580              3113.7079              3114.8163
 Red. masses --      1.0943                 1.0961                 1.0974
 Frc consts  --      6.2184                 6.2612                 6.2732
 IR Inten    --     18.0567                15.5028                20.2456

                    109                    110                    111
                      A                      A                      A
 Frequencies --   3128.8189              3138.5620              3140.0746
 Red. masses --      1.1021                 1.0962                 1.0967
 Frc consts  --      6.3566                 6.3624                 6.3712
 IR Inten    --     12.8308                31.7412                28.1260

                    112                    113                    114
                      A                      A                      A
 Frequencies --   3146.8044              3567.0092              3703.5085
 Red. masses --      1.1018                 1.0445                 1.1043
 Frc consts  --      6.4283                 7.8298                 8.9238
 IR Inten    --     35.7807                27.4267                61.4338

 - Thermochemistry -
 -------------------
 Temperature   298.150 Kelvin.  Pressure   1.00000 Atm.
 Atom     1 has atomic number  6 and mass  12.00000

 Molecular mass:   232.17869 amu.
 Principal axes and moments of inertia in atomic units:
                           1         2         3
     Eigenvalues --  3087.584375048.153557116.78688
           X            0.99975   0.02084  -0.00845
           Y           -0.02081   0.99978   0.00411
           Z            0.00853  -0.00393   0.99996
 This molecule is an asymmetric top.
 Rotational symmetry number  1.
 Warning -- assumption of classical behavior for rotation
           may cause significant error
 Rotational temperatures (Kelvin)      0.02805     0.01716     0.01217
 Rotational constants (GHZ):           0.58452     0.35751     0.25359
 Zero-point vibrational energy     943690.1 (Joules/Mol)
                                  225.54736 (Kcal/Mol)
 Warning -- explicit consideration of  30 degrees of freedom as
           vibrations may cause significant error
 Vibrational temperatures:     28.85    49.85    77.24    82.94   107.50
          (Kelvin)            122.20   135.65   148.48   166.07   189.76
                              227.85   280.97   286.46   309.80   342.21
                              354.47   385.98   396.63   435.94   441.35
                              515.82   530.17   551.01   567.98   636.99
                              650.14   732.96   799.44   807.11   846.99
                              947.43  1076.05  1115.46  1129.16  1198.20
                             1228.45  1274.44  1289.24  1339.07  1393.90
                             1436.93  1477.27  1519.06  1535.08  1556.71
                             1579.69  1583.95  1609.71  1621.88  1645.65
                             1662.98  1681.91  1689.78  1713.14  1720.02
                             1726.40  1769.22  1789.02  1824.44  1849.13
                             1871.97  1874.83  1922.12  1946.13  1956.55
                             1969.66  1993.57  2025.92  2036.58  2052.24
                             2073.30  2085.25  2091.89  2097.37  2157.47
                             2157.84  2162.22  2165.29  2178.90  2179.67
                             2192.82  2196.75  2202.59  2204.96  2206.47
                             2219.62  2230.49  2245.80  2316.48  2598.68
                             4257.02  4291.39  4292.62  4297.44  4308.52
                             4319.52  4351.97  4355.01  4357.35  4366.93
                             4368.05  4387.50  4395.43  4445.64  4446.44
                             4468.35  4479.93  4481.53  4501.67  4515.69
                             4517.87  4527.55  5132.13  5328.52

 Zero-point correction=                           0.359433 (Hartree/Particle)
 Thermal correction to Energy=                    0.379073
 Thermal correction to Enthalpy=                  0.380018
 Thermal correction to Gibbs Free Energy=         0.309991
 Sum of electronic and zero-point Energies=           -768.471315
 Sum of electronic and thermal Energies=              -768.451674
 Sum of electronic and thermal Enthalpies=            -768.450730
 Sum of electronic and thermal Free Energies=         -768.520757

                     E (Thermal)             CV                S
                      KCal/Mol        Cal/Mol-Kelvin    Cal/Mol-Kelvin
 Total                  237.872             70.290            147.384
 Electronic               0.000              0.000              0.000
 Translational            0.889              2.981             42.229
 Rotational               0.889              2.981             33.072
 Vibrational            236.095             64.329             72.083
 Vibration     1          0.593              1.986              6.629
 Vibration     2          0.594              1.983              5.544
 Vibration     3          0.596              1.976              4.677
 Vibration     4          0.596              1.974              4.536
 Vibration     5          0.599              1.966              4.025
 Vibration     6          0.601              1.960              3.774
 Vibration     7          0.603              1.953              3.569
 Vibration     8          0.605              1.947              3.393
 Vibration     9          0.608              1.937              3.176
 Vibration    10          0.612              1.921              2.918
 Vibration    11          0.621              1.893              2.569
 Vibration    12          0.636              1.846              2.177
 Vibration    13          0.637              1.841              2.141
 Vibration    14          0.645              1.818              1.998
 Vibration    15          0.656              1.783              1.819
 Vibration    16          0.661              1.769              1.756
 Vibration    17          0.673              1.731              1.607
 Vibration    18          0.677              1.718              1.560
 Vibration    19          0.694              1.668              1.400
 Vibration    20          0.697              1.661              1.380
 Vibration    21          0.733              1.558              1.129
 Vibration    22          0.741              1.537              1.086
 Vibration    23          0.752              1.507              1.027
 Vibration    24          0.762              1.481              0.982
 Vibration    25          0.802              1.377              0.818
 Vibration    26          0.811              1.357              0.790
 Vibration    27          0.865              1.229              0.635
 Vibration    28          0.911              1.127              0.533
 Vibration    29          0.917              1.116              0.522
 Vibration    30          0.946              1.056              0.470

 Optimization completed.
    -- Stationary point found.
 Normal termination of Gaussian 16 at Fri Dec 11 00:44:24 2020.

 ----------------------------------------------------------------------
 # B3LYP/6-311++G(d,p) empiricaldispersion=gd3bj scf=xqc pop=npa geom=c
 heck
 ----------------------------------------------------------------------

 --------------------------------------
 CID_62901048_JID_6727_Energie_neutraal
 --------------------------------------
 Structure from the checkpoint file:  "JID_6727.chk"
 Charge =  0 Multiplicity = 1

 SCF Done:  E(RB3LYP) =  -769.065197076     A.U. after   15 cycles
 Normal termination of Gaussian 16 at Fri Dec 11 00:51:31 2020.

 ----------------------------------------------------------------------
 # B3LYP/6-311++G(d,p) empiricaldispersion=gd3bj scf=xqc pop=npa geom=c
 heck
 ----------------------------------------------------------------------

 ------------------------------------
 CID_62901048_JID_6727_Energie_kation
 ------------------------------------
 Structure from the checkpoint file:  "JID_6727.chk"
 Charge =  1 Multiplicity = 2

 SCF Done:  E(UB3LYP) =  -768.768949710     A.U. after   27 cycles
 Normal termination of Gaussian 16 at Fri Dec 11 01:08:52 2020.
 Gaussian 16:  ES64L-G16RevA.03 25-Dec-2016

 ----------------------------------------------------------------------
 # B3LYP/6-311++G(d,p) empiricaldispersion=gd3bj scf=xqc pop=npa geom=c
 heck
 ----------------------------------------------------------------------

 -----------------------------------
 CID_62901048_JID_6727_Energie_anion
 -----------------------------------
 Structure from the checkpoint file:  "JID_6727.chk"
 Charge = -1 Multiplicity = 2

                         Standard orientation:
 ---------------------------------------------------------------------
 Center     Atomic      Atomic             Coordinates (Angstroms)
 Number     Number       Type             X           Y           Z
 ---------------------------------------------------------------------
      1          6           0        3.852614    0.560575   -0.901474
      2          6           0        2.380693    0.775172   -0.534925
      3          6           0        1.558518   -0.523709   -0.598591
      4          6           0        2.175020   -1.530086    0.389078
      5          8           0        3.003745   -2.365264    0.053991
      6          7           0        1.766436   -1.341870    1.677810
      7          7           0        0.121330   -0.365336   -0.277362
      8          6           0       -0.581247   -1.644333   -0.533133
      9          6           0       -1.621964   -2.025713    0.525589
     10          6           0       -2.783517   -1.059300    0.700688
     11          8           0       -3.429080   -0.872924   -0.548388
     12          6           0       -4.516715    0.022467   -0.465567
     13          6           0       -0.574055    0.767941   -0.915736
     14          6           0       -0.839827    1.965753   -0.008836
     15          8           0        0.311050    2.767095    0.156990
     16          6           0        0.086112    3.863258    1.013488
     17          1           0        4.354891   -0.118180   -0.206945
     18          1           0        4.384993    1.517828   -0.891427
     19          1           0        3.951718    0.129240   -1.904360
     20          1           0        2.290412    1.206067    0.466227
     21          1           0        1.946646    1.511408   -1.215331
     22          1           0        1.693716   -0.967970   -1.599022
     23          1           0        0.942517   -0.774675    1.828794
     24          1           0        2.062901   -2.005394    2.378754
     25          1           0       -1.053312   -1.636100   -1.526005
     26          1           0        0.160141   -2.447966   -0.557182
     27          1           0       -2.025273   -3.010634    0.257368
     28          1           0       -1.121968   -2.135466    1.496039
     29          1           0       -3.499163   -1.460960    1.437434
     30          1           0       -2.427958   -0.093184    1.091113
     31          1           0       -5.287485   -0.340186    0.232775
     32          1           0       -4.194408    1.023127   -0.134254
     33          1           0       -4.949926    0.100790   -1.465737
     34          1           0       -0.054832    1.111677   -1.821438
     35          1           0       -1.555489    0.410775   -1.239092
     36          1           0       -1.649970    2.571582   -0.454046
     37          1           0       -1.195452    1.608682    0.971518
     38          1           0       -0.701340    4.529323    0.624089
     39          1           0       -0.208996    3.536487    2.023937
     40          1           0        1.023767    4.420756    1.079420
 ---------------------------------------------------------------------

 SCF Done:  E(UB3LYP) =  -769.055537046     A.U. after   31 cycles

 The electronic state is 2-A.
 Alpha  occ. eigenvalues --  -19.03628 -19.03193 -19.00038 -14.23637 -14.22300
 Alpha  occ. eigenvalues --  -10.18053 -10.12086 -10.11978 -10.11847 -10.11810
 Alpha  occ. eigenvalues --  -10.11568 -10.10494 -10.10366 -10.07799 -10.07622
 Alpha  occ. eigenvalues --  -10.07157  -0.94927  -0.94877  -0.94732  -0.84135
 Alpha  occ. eigenvalues --   -0.80769  -0.70529  -0.68847  -0.66305  -0.61560
 Alpha  occ. eigenvalues --   -0.60303  -0.57412  -0.55051  -0.53016  -0.50465
 Alpha  occ. eigenvalues --   -0.48887  -0.47566  -0.44843  -0.42200  -0.40749
 Alpha  occ. eigenvalues --   -0.39393  -0.38898  -0.38713  -0.38046  -0.37235
 Alpha  occ. eigenvalues --   -0.36718  -0.35938  -0.34824  -0.33381  -0.32362
 Alpha  occ. eigenvalues --   -0.32230  -0.31404  -0.29858  -0.29255  -0.28717
 Alpha  occ. eigenvalues --   -0.28232  -0.28015  -0.27439  -0.26844  -0.25057
 Alpha  occ. eigenvalues --   -0.24860  -0.23760  -0.23269  -0.22594  -0.18515
 Alpha  occ. eigenvalues --   -0.17455  -0.16965  -0.16544  -0.13768   0.04011
 Alpha virt. eigenvalues --    0.06250   0.06397   0.07144   0.08058   0.08412
 Alpha virt. eigenvalues --    0.08902   0.09371   0.09576   0.09803   0.10263
 Alpha virt. eigenvalues --    0.11018   0.11589   0.11731   0.12073   0.12340

  Beta  occ. eigenvalues --  -19.03619 -19.03185 -19.00035 -14.23608 -14.22290
  Beta  occ. eigenvalues --  -10.18050 -10.12060 -10.11951 -10.11808 -10.11808
  Beta  occ. eigenvalues --  -10.11528 -10.10494 -10.10364 -10.07784 -10.07619
  Beta  occ. eigenvalues --  -10.07155  -0.94912  -0.94867  -0.94717  -0.84120
  Beta  occ. eigenvalues --   -0.80733  -0.70516  -0.68825  -0.66280  -0.61534
  Beta  occ. eigenvalues --   -0.60261  -0.57351  -0.54988  -0.52986  -0.50410
  Beta  occ. eigenvalues --   -0.48845  -0.47533  -0.44817  -0.42176  -0.40701
  Beta  occ. eigenvalues --   -0.39344  -0.38868  -0.38685  -0.38019  -0.37218
  Beta  occ. eigenvalues --   -0.36689  -0.35913  -0.34808  -0.33357  -0.32346
  Beta  occ. eigenvalues --   -0.32205  -0.31389  -0.29846  -0.29237  -0.28689
  Beta  occ. eigenvalues --   -0.28199  -0.27996  -0.27410  -0.26827  -0.25048
  Beta  occ. eigenvalues --   -0.24830  -0.23744  -0.23215  -0.22536  -0.18491
  Beta  occ. eigenvalues --   -0.17433  -0.16942  -0.16524  -0.13722
  Beta virt. eigenvalues --    0.06351   0.06967   0.07147   0.07370   0.08428
  Beta virt. eigenvalues --    0.08645   0.09192   0.09681   0.09947   0.10115
  Beta virt. eigenvalues --    0.10626   0.11289   0.11745   0.11987   0.12219

 Mulliken charges and spin densities:
               1          2
     1  C   -0.864258  -0.033238
     2  C   -0.258660   0.155036
     3  C    0.323326  -0.566452
     4  C   -0.149811  -0.016421
     5  O   -0.303778   0.013938
     6  N   -0.325902  -0.006745
     7  N    0.459960   0.073382
     8  C   -0.777028   0.463515
     9  C    0.417298  -0.913624
    10  C    0.106300  -0.303668
    11  O   -0.142172   0.042449
    12  C    0.844450  -1.119635
    13  C   -0.443841  -0.225266
    14  C   -0.323562   0.156326
    15  O   -0.135741   0.043687
    16  C    0.885630  -1.146221
    17  H    0.157881   0.018157
    18  H    0.095348   0.041979
    19  H    0.118970   0.005511
    20  H    0.264903  -0.046011
    21  H    0.162495   0.027216
    22  H    0.239383  -0.015785
    23  H    0.058422   0.207824
    24  H    0.002143   0.317900
    25  H    0.133835   0.048688
    26  H    0.164279   0.004310
    27  H    0.117871   0.038596
    28  H   -0.099921   0.251222
    29  H   -0.530819   0.709793
    30  H   -0.502809   0.628335
    31  H   -0.344477   0.476673
    32  H   -0.430215   0.583528
    33  H   -0.125883   0.262022
    34  H    0.124038   0.034399
    35  H    0.397145  -0.233534
    36  H   -0.124540   0.262819
    37  H    0.867689  -0.688040
    38  H   -0.301143   0.427946
    39  H   -0.553836   0.693896
    40  H   -0.202971   0.325496
 Sum of Mulliken charges =  -1.00000   1.00000

 Dipole moment (field-independent basis, Debye):
    X=              4.5407    Y=             -1.9935    Z=             -5.0412  Tot=              7.0714
 Quadrupole moment (field-independent basis, Debye-Ang):
   XX=           -182.5556   YY=           -162.2117   ZZ=           -138.2650
   XY=             12.1945   XZ=              7.0237   YZ=             -4.2997

 Summary of Natural Population Analysis:

                                       Natural Population
                Natural  -----------------------------------------------
    Atom  No    Charge         Core      Valence    Rydberg      Total
 -----------------------------------------------------------------------
      C    1   -0.28544      0.99966     2.28154    0.00424     3.28544
      C    2   -0.19893      0.99961     2.18987    0.00945     3.19893
      C    3   -0.03366      0.99953     2.02210    0.01203     3.03366
      C    4    0.33579      0.99966     1.63791    0.02664     2.66421
      O    5   -0.32555      0.99987     3.31975    0.00593     4.32555
      N    6   -0.40548      0.99969     2.89723    0.00856     3.90548
      N    7   -0.29728      0.99970     2.78430    0.01328     3.79728
      C    8   -0.08257      0.99960     2.07313    0.00984     3.08257
      C    9   -0.20055      0.99961     2.19047    0.01047     3.20055
      C   10   -0.01224      0.99957     1.99982    0.01285     3.01224
      O   11   -0.30324      0.99988     3.29436    0.00900     4.30324
      C   12   -0.09710      0.99962     2.08833    0.00915     3.09710
      C   13   -0.10066      0.99959     2.08982    0.01125     3.10066
      C   14   -0.01097      0.99957     1.99837    0.01304     3.01097
      O   15   -0.30147      0.99988     3.29105    0.01053     4.30147
      C   16   -0.09635      0.99962     2.08751    0.00922     3.09635
      H   17    0.10307      0.00000     0.39606    0.00087     0.39693
      H   18    0.09690      0.00000     0.40243    0.00068     0.40310
      H   19    0.09497      0.00000     0.40415    0.00088     0.40503
      H   20    0.10754      0.00000     0.39070    0.00175     0.39246
      H   21    0.10509      0.00000     0.39345    0.00146     0.39491
      H   22    0.09061      0.00000     0.40786    0.00152     0.40939
      H   23    0.20423      0.00000     0.29226    0.00351     0.29577
      H   24    0.19463      0.00000     0.30328    0.00209     0.30537
      H   25    0.09182      0.00000     0.40698    0.00120     0.40818
      H   26    0.09860      0.00000     0.40029    0.00111     0.40140
      H   27    0.09800      0.00000     0.40098    0.00102     0.40200
      H   28    0.10218      0.00000     0.39625    0.00157     0.39782
      H   29    0.08462      0.00000     0.41345    0.00193     0.41538
      H   30    0.08097      0.00000     0.41631    0.00273     0.41903
      H   31    0.08109      0.00000     0.41717    0.00174     0.41891
      H   32    0.08143      0.00000     0.41678    0.00179     0.41857
      H   33    0.08841      0.00000     0.41057    0.00102     0.41159
      H   34    0.09118      0.00000     0.40754    0.00128     0.40882
      H   35    0.10941      0.00000     0.38850    0.00208     0.39059
      H   36    0.07873      0.00000     0.41963    0.00163     0.42127
      H   37    0.08249      0.00000     0.41429    0.00322     0.41751
      H   38    0.07907      0.00000     0.41906    0.00187     0.42093
      H   39    0.08236      0.00000     0.41560    0.00204     0.41764
      H   40    0.08829      0.00000     0.41065    0.00106     0.41171
 =======================================================================
   * Total *    0.00000     15.99466    47.78981    0.21553    64.00000

 Normal termination of Gaussian 16 at Fri Dec 11 01:29:17 2020.
