 Gaussian 16, Revision A.03,

 -----------------------------------------------------------
 # opt freq B3LYP/6-31G(d) empiricaldispersion=gd3bj scf=xqc
 -----------------------------------------------------------

 -------------------------------
 CID_145556175_JID_5073_neutraal
 -------------------------------
 Symbolic Z-matrix:
 Charge =  0 Multiplicity = 1

 SCF Done:  E(RB3LYP) =  -1390.14761689     A.U. after   32 cycles
 SCF Done:  E(RB3LYP) =  -1390.22649900     A.U. after   19 cycles
 SCF Done:  E(RB3LYP) =  -1390.32658434     A.U. after   15 cycles
 SCF Done:  E(RB3LYP) =  -1390.38051993     A.U. after   14 cycles
 SCF Done:  E(RB3LYP) =  -1390.39984878     A.U. after   15 cycles
 SCF Done:  E(RB3LYP) =  -1390.40545563     A.U. after   13 cycles
 SCF Done:  E(RB3LYP) =  -1390.40564668     A.U. after    8 cycles
 SCF Done:  E(RB3LYP) =  -1390.41142670     A.U. after   12 cycles
 SCF Done:  E(RB3LYP) =  -1390.41714236     A.U. after   13 cycles
 SCF Done:  E(RB3LYP) =  -1390.42031057     A.U. after   12 cycles
 SCF Done:  E(RB3LYP) =  -1390.43226199     A.U. after   10 cycles
 SCF Done:  E(RB3LYP) =  -1390.43226362     A.U. after    9 cycles
 SCF Done:  E(RB3LYP) =  -1390.43226392     A.U. after    9 cycles
 SCF Done:  E(RB3LYP) =  -1390.43226407     A.U. after    8 cycles
 SCF Done:  E(RB3LYP) =  -1390.43226420     A.U. after    7 cycles
 Optimization completed.
    -- Stationary point found.
 Normal termination of Gaussian 16 at Thu Dec 10 14:59:18 2020.

 --------------------------------------------------------------------
 #N Geom=AllCheck Guess=TCheck SCRF=Check GenChk RB3LYP/6-31G(d) Freq
 --------------------------------------------------------------------

 Structure from the checkpoint file:  "JID_5073.chk"
 -------------------------------
 CID_145556175_JID_5073_neutraal
 -------------------------------
 Charge =  0 Multiplicity = 1

 SCF Done:  E(RB3LYP) =  -1390.43226420     A.U. after    1 cycles

  Exact polarizability: 225.517   2.245 179.717  -9.601   1.906  91.392
 Approx polarizability: 331.355   5.032 319.834 -27.133   9.565 157.791

                      1                      2                      3
                      A                      A                      A
 Frequencies --     32.7088                49.0600                56.5658
 Red. masses --      3.9971                 5.2012                 7.6583
 Frc consts  --      0.0025                 0.0074                 0.0144
 IR Inten    --      1.5128                 0.6176                 2.1870

                      4                      5                      6
                      A                      A                      A
 Frequencies --    122.5256               141.2180               153.6085
 Red. masses --      1.6875                 1.6342                 1.8324
 Frc consts  --      0.0149                 0.0192                 0.0255
 IR Inten    --      1.4355                 1.3447                 2.5380

                      7                      8                      9
                      A                      A                      A
 Frequencies --    158.2201               172.3071               208.1340
 Red. masses --      2.9332                 2.9226                 4.6229
 Frc consts  --      0.0433                 0.0511                 0.1180
 IR Inten    --      0.8391                 3.6304                 6.0876

                     10                     11                     12
                      A                      A                      A
 Frequencies --    227.4195               241.1971               285.5718
 Red. masses --      4.3295                 3.4052                 2.9888
 Frc consts  --      0.1319                 0.1167                 0.1436
 IR Inten    --     17.5469                 3.1359                18.2133

                     13                     14                     15
                      A                      A                      A
 Frequencies --    313.4847               332.3736               368.6536
 Red. masses --      1.6356                 3.3475                 3.9955
 Frc consts  --      0.0947                 0.2179                 0.3199
 IR Inten    --     92.8525                13.2958                53.3097

                     16                     17                     18
                      A                      A                      A
 Frequencies --    395.5781               407.9577               434.1383
 Red. masses --      3.0141                 4.4977                 5.4531
 Frc consts  --      0.2779                 0.4410                 0.6055
 IR Inten    --     15.4256                34.0941                 3.7949

                     19                     20                     21
                      A                      A                      A
 Frequencies --    450.6521               468.7212               517.2021
 Red. masses --      5.1844                 4.6444                 5.9367
 Frc consts  --      0.6203                 0.6012                 0.9356
 IR Inten    --     12.6001                 0.3588                 6.9868

                     22                     23                     24
                      A                      A                      A
 Frequencies --    540.7306               579.9334               590.1644
 Red. masses --      3.9043                 4.2569                 7.3204
 Frc consts  --      0.6726                 0.8435                 1.5022
 IR Inten    --      4.5333                69.4480               244.8372

                     25                     26                     27
                      A                      A                      A
 Frequencies --    611.4000               616.9264               679.1707
 Red. masses --      3.4960                 4.5257                 3.8639
 Frc consts  --      0.7700                 1.0149                 1.0501
 IR Inten    --     45.6295                 9.0176                 5.6358

                     28                     29                     30
                      A                      A                      A
 Frequencies --    694.0127               706.4105               757.9248
 Red. masses --      8.4306                 1.4388                 7.9527
 Frc consts  --      2.3925                 0.4230                 2.6916
 IR Inten    --      1.6395                39.6773                67.4380

                     31                     32                     33
                      A                      A                      A
 Frequencies --    760.3410               775.3270               784.4956
 Red. masses --      7.3178                 1.9270                 1.7054
 Frc consts  --      2.4926                 0.6825                 0.6184
 IR Inten    --     15.8211                15.2834                37.9757

                     34                     35                     36
                      A                      A                      A
 Frequencies --    817.9694               821.7583               861.4179
 Red. masses --      4.1877                 1.7153                 1.1391
 Frc consts  --      1.6508                 0.6825                 0.4980
 IR Inten    --      7.4677                13.8281                74.4725

                     37                     38                     39
                      A                      A                      A
 Frequencies --    912.4493               917.7988               940.9412
 Red. masses --      1.2883                 1.2777                 3.9378
 Frc consts  --      0.6320                 0.6341                 2.0541
 IR Inten    --      1.1047                 0.9651                74.1894

                     40                     41                     42
                      A                      A                      A
 Frequencies --    975.7297               992.0042              1002.3356
 Red. masses --      1.3455                 1.7836                 1.3579
 Frc consts  --      0.7547                 1.0341                 0.8038
 IR Inten    --      4.2994                37.7163                35.0814

                     43                     44                     45
                      A                      A                      A
 Frequencies --   1074.3519              1075.6660              1113.1992
 Red. masses --      1.4761                 2.0218                 1.2007
 Frc consts  --      1.0039                 1.3783                 0.8767
 IR Inten    --      3.2416                20.1320                52.4848

                     46                     47                     48
                      A                      A                      A
 Frequencies --   1133.4246              1166.4972              1209.1882
 Red. masses --      1.1559                 1.9950                 1.6884
 Frc consts  --      0.8749                 1.5994                 1.4545
 IR Inten    --      3.8312                 9.7550                26.2775

                     49                     50                     51
                      A                      A                      A
 Frequencies --   1261.4895              1280.7306              1310.1952
 Red. masses --      1.4900                 2.7903                 1.5815
 Frc consts  --      1.3970                 2.6966                 1.5995
 IR Inten    --     64.1302               110.4205               359.6162

                     52                     53                     54
                      A                      A                      A
 Frequencies --   1334.4914              1355.2793              1380.3119
 Red. masses --      1.5827                 1.2134                 3.4755
 Frc consts  --      1.6606                 1.3132                 3.9014
 IR Inten    --     72.2866                 5.3489                26.8056

                     55                     56                     57
                      A                      A                      A
 Frequencies --   1395.7037              1423.6079              1445.4949
 Red. masses --      2.5184                 3.3562                 1.2823
 Frc consts  --      2.8905                 4.0075                 1.5786
 IR Inten    --     10.2724               100.3452                 1.8615

                     58                     59                     60
                      A                      A                      A
 Frequencies --   1481.8768              1509.8413              1511.0741
 Red. masses --      1.0554                 1.0829                 1.0431
 Frc consts  --      1.3654                 1.4544                 1.4032
 IR Inten    --      2.7424                 6.5681                 7.0749

                     61                     62                     63
                      A                      A                      A
 Frequencies --   1521.2685              1529.5746              1567.0813
 Red. masses --      1.7847                 1.4696                 5.1905
 Frc consts  --      2.4335                 2.0258                 7.5100
 IR Inten    --     48.7935                28.7933                 1.2133

                     64                     65                     66
                      A                      A                      A
 Frequencies --   1623.7993              1639.0195              3033.2213
 Red. masses --      6.5245                 5.9280                 1.0384
 Frc consts  --     10.1359                 9.3826                 5.6288
 IR Inten    --     40.9585                14.0692                41.2852

                     67                     68                     69
                      A                      A                      A
 Frequencies --   3074.3754              3079.7564              3126.6569
 Red. masses --      1.0317                 1.1006                 1.0994
 Frc consts  --      5.7452                 6.1508                 6.3323
 IR Inten    --      4.2408                19.3421                18.3947

                     70                     71                     72
                      A                      A                      A
 Frequencies --   3163.1763              3171.6239              3186.3129
 Red. masses --      1.0871                 1.1041                 1.0929
 Frc consts  --      6.4088                 6.5438                 6.5374
 IR Inten    --     23.9131                 1.9920                29.6373

                     73                     74                     75
                      A                      A                      A
 Frequencies --   3204.2268              3235.8813              3268.6786
 Red. masses --      1.1067                 1.0892                 1.0981
 Frc consts  --      6.6949                 6.7194                 6.9128
 IR Inten    --      1.3200                 1.9550                 2.0528

                     76                     77                     78
                      A                      A                      A
 Frequencies --   3374.6619              3478.3530              3691.1506
 Red. masses --      1.0635                 1.0739                 1.0659
 Frc consts  --      7.1360                 7.6556                 8.5563
 IR Inten    --    201.5928                 1.4394                29.4000

 - Thermochemistry -
 -------------------
 Temperature   298.150 Kelvin.  Pressure   1.00000 Atm.
 Atom     1 has atomic number  6 and mass  12.00000

 Molecular mass:   243.03877 amu.
 Principal axes and moments of inertia in atomic units:
                           1         2         3
     Eigenvalues --  2074.604125916.756617267.15282
           X            0.99998   0.00495  -0.00479
           Y           -0.00502   0.99990  -0.01307
           Z            0.00473   0.01310   0.99990
 This molecule is an asymmetric top.
 Rotational symmetry number  1.
 Warning -- assumption of classical behavior for rotation
           may cause significant error
 Rotational temperatures (Kelvin)      0.04175     0.01464     0.01192
 Rotational constants (GHZ):           0.86992     0.30502     0.24834
 Zero-point vibrational energy     570067.1 (Joules/Mol)
                                  136.24931 (Kcal/Mol)
 Warning -- explicit consideration of  26 degrees of freedom as
           vibrations may cause significant error
 Vibrational temperatures:     47.06    70.59    81.39   176.29   203.18
          (Kelvin)            221.01   227.64   247.91   299.46   327.21
                              347.03   410.87   451.03   478.21   530.41
                              569.15   586.96   624.63   648.39   674.39
                              744.14   777.99   834.39   849.11   879.67
                              887.62   977.18   998.53  1016.37  1090.48
                             1093.96  1115.52  1128.71  1176.88  1182.33
                             1239.39  1312.81  1320.51  1353.80  1403.86
                             1427.27  1442.14  1545.75  1547.64  1601.65
                             1630.75  1678.33  1739.75  1815.00  1842.69
                             1885.08  1920.04  1949.94  1985.96  2008.11
                             2048.25  2079.74  2132.09  2172.32  2174.10
                             2188.77  2200.72  2254.68  2336.29  2358.18
                             4364.13  4423.34  4431.08  4498.56  4551.11
                             4563.26  4584.39  4610.17  4655.71  4702.90
                             4855.39  5004.57  5310.74

 Zero-point correction=                           0.217127 (Hartree/Particle)
 Thermal correction to Energy=                    0.232717
 Thermal correction to Enthalpy=                  0.233661
 Thermal correction to Gibbs Free Energy=         0.173941
 Sum of electronic and zero-point Energies=          -1390.215137
 Sum of electronic and thermal Energies=             -1390.199548
 Sum of electronic and thermal Enthalpies=           -1390.198603
 Sum of electronic and thermal Free Energies=        -1390.258323

                     E (Thermal)             CV                S
                      KCal/Mol        Cal/Mol-Kelvin    Cal/Mol-Kelvin
 Total                  146.032             59.721            125.690
 Electronic               0.000              0.000              0.000
 Translational            0.889              2.981             42.365
 Rotational               0.889              2.981             32.856
 Vibrational            144.254             53.759             50.469
 Vibration     1          0.594              1.983              5.658
 Vibration     2          0.595              1.978              4.855
 Vibration     3          0.596              1.975              4.574
 Vibration     4          0.610              1.930              3.060
 Vibration     5          0.615              1.912              2.787
 Vibration     6          0.619              1.899              2.627
 Vibration     7          0.621              1.893              2.571
 Vibration     8          0.626              1.877              2.410
 Vibration     9          0.641              1.828              2.060
 Vibration    10          0.651              1.799              1.899
 Vibration    11          0.658              1.777              1.794
 Vibration    12          0.683              1.700              1.500
 Vibration    13          0.701              1.648              1.344
 Vibration    14          0.714              1.611              1.249
 Vibration    15          0.741              1.537              1.085
 Vibration    16          0.762              1.480              0.979
 Vibration    17          0.773              1.453              0.934
 Vibration    18          0.795              1.396              0.845
 Vibration    19          0.809              1.359              0.794
 Vibration    20          0.826              1.319              0.741
 Vibration    21          0.872              1.212              0.616
 Vibration    22          0.896              1.160              0.564
 Vibration    23          0.937              1.075              0.485
 Vibration    24          0.948              1.053              0.467
 Vibration    25          0.971              1.008              0.430
 Vibration    26          0.977              0.996              0.421

                           ! Non-Optimized Parameters !
 Normal termination of Gaussian 16 at Thu Dec 10 15:07:35 2020.

 ----------------------------------------------------------------------
 # B3LYP/6-311++G(d,p) empiricaldispersion=gd3bj scf=xqc pop=npa geom=c
 heck
 ----------------------------------------------------------------------

 ---------------------------------------
 CID_145556175_JID_5073_Energie_neutraal
 ---------------------------------------
 Structure from the checkpoint file:  "JID_5073.chk"
 Charge =  0 Multiplicity = 1

 SCF Done:  E(RB3LYP) =  -1390.66689471     A.U. after   16 cycles
 Normal termination of Gaussian 16 at Thu Dec 10 15:11:48 2020.

 ----------------------------------------------------------------------
 # B3LYP/6-311++G(d,p) empiricaldispersion=gd3bj scf=xqc pop=npa geom=c
 heck
 ----------------------------------------------------------------------

 -------------------------------------
 CID_145556175_JID_5073_Energie_kation
 -------------------------------------
 Structure from the checkpoint file:  "JID_5073.chk"
 Charge =  1 Multiplicity = 2

 SCF Done:  E(UB3LYP) =  -1390.41305877     A.U. after   22 cycles
 Normal termination of Gaussian 16 at Thu Dec 10 15:19:38 2020.
 Gaussian 16:  ES64L-G16RevA.03 25-Dec-2016

 ----------------------------------------------------------------------
 # B3LYP/6-311++G(d,p) empiricaldispersion=gd3bj scf=xqc pop=npa geom=c
 heck
 ----------------------------------------------------------------------

 ------------------------------------
 CID_145556175_JID_5073_Energie_anion
 ------------------------------------
 Structure from the checkpoint file:  "JID_5073.chk"
 Charge = -1 Multiplicity = 2

                         Standard orientation:
 ---------------------------------------------------------------------
 Center     Atomic      Atomic             Coordinates (Angstroms)
 Number     Number       Type             X           Y           Z
 ---------------------------------------------------------------------
      1          6           0       -4.147568   -1.172694    0.666412
      2          6           0       -2.713156   -1.103889    0.217386
      3          6           0       -2.068329    0.126936    0.015959
      4          6           0       -0.727053    0.239720   -0.415694
      5          6           0        0.032012   -0.939309   -0.638552
      6          6           0       -0.607248   -2.166168   -0.432789
      7          6           0       -1.947685   -2.241371   -0.028714
      8          7           0        1.367779   -0.831423   -1.037854
      9         16           0        2.516814    0.090531    0.368162
     10          6           0        3.406776   -1.489649    0.588359
     11          8           0        3.163936    0.814642   -0.989694
     12          8           0        3.655503    1.009788    1.323844
     13          6           0       -0.325306    1.612683   -0.581516
     14          6           0       -1.311043    2.495516   -0.275234
     15         16           0       -2.796291    1.714605    0.227674
     16          1           0       -4.289457   -0.670390    1.632452
     17          1           0       -4.478289   -2.209894    0.774488
     18          1           0       -4.816033   -0.678145   -0.050758
     19          1           0       -0.048397   -3.085100   -0.598752
     20          1           0       -2.402449   -3.219347    0.109190
     21          1           0        1.732156   -1.758663   -1.258445
     22          1           0        3.952518   -1.713474   -0.333115
     23          1           0        4.093684   -1.374226    1.425555
     24          1           0        2.667228   -2.266052    0.792787
     25          1           0        2.546799    0.450836   -1.676880
     26          1           0        4.446511    1.205679    0.788964
     27          1           0        0.656415    1.914917   -0.924928
     28          1           0       -1.267418    3.575546   -0.315869
 ---------------------------------------------------------------------

 SCF Done:  E(UB3LYP) =  -1390.66134571     A.U. after   33 cycles
 SCF Done:  E(UB3LYP) =  -1390.66134571     a.u. after    1 cycles

 The electronic state is 2-A.
 Alpha  occ. eigenvalues --  -88.87799 -88.75683 -19.04195 -19.00752 -14.18154
 Alpha  occ. eigenvalues --  -10.09234 -10.08690 -10.08662 -10.07840 -10.07168
 Alpha  occ. eigenvalues --  -10.06463 -10.05966 -10.05896 -10.05523 -10.05139
 Alpha  occ. eigenvalues --   -7.94767  -7.84319  -5.91088  -5.90973  -5.90302
 Alpha  occ. eigenvalues --   -5.80625  -5.80271  -5.79875  -0.96445  -0.87947
 Alpha  occ. eigenvalues --   -0.79001  -0.75857  -0.71040  -0.68004  -0.64692
 Alpha  occ. eigenvalues --   -0.61420  -0.60757  -0.56170  -0.55511  -0.48743
 Alpha  occ. eigenvalues --   -0.47739  -0.44115  -0.42594  -0.41239  -0.37904
 Alpha  occ. eigenvalues --   -0.37046  -0.35177  -0.34828  -0.34100  -0.33520
 Alpha  occ. eigenvalues --   -0.32652  -0.32468  -0.31090  -0.28695  -0.28443
 Alpha  occ. eigenvalues --   -0.27416  -0.26919  -0.25659  -0.25049  -0.24736
 Alpha  occ. eigenvalues --   -0.22754  -0.22373  -0.21291  -0.19190  -0.17929
 Alpha  occ. eigenvalues --   -0.16502  -0.13935  -0.12460  -0.08064   0.04485
 Alpha virt. eigenvalues --    0.06942   0.07327   0.08164   0.08723   0.08908
 Alpha virt. eigenvalues --    0.09419   0.09503   0.10689   0.11318   0.11499
 Alpha virt. eigenvalues --    0.11839   0.12323   0.12791   0.13090   0.13469

  Beta  occ. eigenvalues --  -88.87742 -88.75672 -19.04073 -19.00714 -14.18156
  Beta  occ. eigenvalues --  -10.09165 -10.08671 -10.08604 -10.07649 -10.07172
  Beta  occ. eigenvalues --  -10.06399 -10.05928 -10.05888 -10.05442 -10.05162
  Beta  occ. eigenvalues --   -7.94713  -7.84310  -5.91016  -5.90840  -5.90267
  Beta  occ. eigenvalues --   -5.80623  -5.80269  -5.79837  -0.96224  -0.87811
  Beta  occ. eigenvalues --   -0.78885  -0.75749  -0.70885  -0.67807  -0.64616
  Beta  occ. eigenvalues --   -0.61315  -0.60612  -0.55991  -0.55365  -0.48489
  Beta  occ. eigenvalues --   -0.47688  -0.43999  -0.42393  -0.41025  -0.37799
  Beta  occ. eigenvalues --   -0.36970  -0.34993  -0.34735  -0.33905  -0.33444
  Beta  occ. eigenvalues --   -0.32547  -0.32366  -0.30998  -0.28603  -0.28268
  Beta  occ. eigenvalues --   -0.27348  -0.26738  -0.25558  -0.24957  -0.24670
  Beta  occ. eigenvalues --   -0.22489  -0.22281  -0.21028  -0.19012  -0.17695
  Beta  occ. eigenvalues --   -0.16241  -0.13709  -0.11970  -0.07704
  Beta virt. eigenvalues --    0.07132   0.07622   0.08163   0.08280   0.08974
  Beta virt. eigenvalues --    0.09339   0.09715   0.09991   0.11098   0.11321
  Beta virt. eigenvalues --    0.11720   0.12084   0.12609   0.13063   0.13362

 Mulliken charges and spin densities:
               1          2
     1  C   -0.138609  -0.129854
     2  C    1.165434   0.039457
     3  C    0.263170   0.022239
     4  C    1.056937  -0.329549
     5  C   -0.885220   0.068089
     6  C   -0.277450   0.032570
     7  C   -0.629470  -0.048657
     8  N   -0.566634   0.040012
     9  S    0.602548  -0.057943
    10  C    0.757461  -1.322157
    11  O   -0.331027   0.057235
    12  O   -0.410823  -0.036182
    13  C   -0.578185   0.033166
    14  C   -0.106500   0.127121
    15  S   -0.845180   0.017442
    16  H    0.149866  -0.002667
    17  H    0.106709   0.028865
    18  H    0.120238   0.027055
    19  H   -0.410101   0.536361
    20  H    0.053707   0.033287
    21  H    0.236110   0.044383
    22  H   -0.739905   0.981875
    23  H   -0.071166   0.253873
    24  H   -0.281005   0.469275
    25  H    0.299651   0.008947
    26  H    0.174542   0.109154
    27  H    0.074945   0.003239
    28  H    0.209957  -0.006637
 Sum of Mulliken charges =  -1.00000   1.00000

 Dipole moment (field-independent basis, Debye):
    X=             -5.3835    Y=              2.5360    Z=             -0.2040  Tot=              5.9544
 Quadrupole moment (field-independent basis, Debye-Ang):
   XX=           -166.6287   YY=           -136.7418   ZZ=           -127.8998
   XY=             10.9384   XZ=             -4.2104   YZ=             -5.6353

 Summary of Natural Population Analysis:

                                       Natural Population
                Natural  -----------------------------------------------
    Atom  No    Charge         Core      Valence    Rydberg      Total
 -----------------------------------------------------------------------
      C    1   -0.29064      0.99964     2.28638    0.00462     3.29064
      C    2   -0.03908      0.99945     2.02932    0.01031     3.03908
      C    3   -0.08256      0.99937     2.07287    0.01033     3.08256
      C    4   -0.04892      0.99942     2.03864    0.01086     3.04892
      C    5    0.10285      0.99945     1.88422    0.01347     2.89715
      C    6   -0.13372      0.99953     2.12392    0.01027     3.13372
      C    7   -0.08434      0.99953     2.07477    0.01004     3.08434
      N    8   -0.46356      0.99971     2.95050    0.01335     3.96356
      S    9    0.70034      4.99954     2.25601    0.04411     7.29966
      C   10   -0.36667      0.99963     2.35898    0.00805     3.36667
      O   11   -0.43085      0.99992     3.42511    0.00582     4.43085
      O   12   -0.46313      0.99992     3.45687    0.00634     4.46313
      C   13   -0.12274      0.99950     2.11354    0.00970     3.12274
      C   14   -0.14966      0.99953     2.13989    0.01023     3.14966
      S   15    0.16894      4.99947     2.81092    0.02067     7.83106
      H   16    0.10024      0.00000     0.39848    0.00128     0.39976
      H   17    0.09900      0.00000     0.40021    0.00079     0.40100
      H   18    0.10001      0.00000     0.39820    0.00180     0.39999
      H   19    0.09663      0.00000     0.40218    0.00118     0.40337
      H   20    0.09316      0.00000     0.40598    0.00086     0.40684
      H   21    0.17554      0.00000     0.32089    0.00357     0.32446
      H   22    0.11717      0.00000     0.37448    0.00835     0.38283
      H   23    0.11452      0.00000     0.38379    0.00169     0.38548
      H   24    0.11340      0.00000     0.38437    0.00223     0.38660
      H   25    0.25428      0.00000     0.24211    0.00361     0.24572
      H   26    0.22937      0.00000     0.26701    0.00362     0.27063
      H   27    0.10920      0.00000     0.38901    0.00178     0.39080
      H   28    0.10121      0.00000     0.39799    0.00080     0.39879
 =======================================================================
   * Total *   -0.00000     22.99362    40.78665    0.21974    64.00000

 Normal termination of Gaussian 16 at Thu Dec 10 15:30:52 2020.
