 Gaussian 16, Revision A.03,

 -----------------------------------------------------------
 # opt freq B3LYP/6-31G(d) empiricaldispersion=gd3bj scf=xqc
 -----------------------------------------------------------

 -------------------------------
 CID_142924003_JID_5019_neutraal
 -------------------------------
 Symbolic Z-matrix:
 Charge =  0 Multiplicity = 1

 SCF Done:  E(RB3LYP) =  -598.493692594     A.U. after   14 cycles
 SCF Done:  E(RB3LYP) =  -598.497481652     A.U. after   12 cycles
 SCF Done:  E(RB3LYP) =  -598.497808206     A.U. after   11 cycles
 SCF Done:  E(RB3LYP) =  -598.498389172     A.U. after   13 cycles
 SCF Done:  E(RB3LYP) =  -598.494896364     A.U. after   15 cycles
 SCF Done:  E(RB3LYP) =  -598.499173132     A.U. after   12 cycles
 SCF Done:  E(RB3LYP) =  -598.499995331     A.U. after   12 cycles
 SCF Done:  E(RB3LYP) =  -598.500201634     A.U. after   12 cycles
 SCF Done:  E(RB3LYP) =  -598.500267822     A.U. after   11 cycles
 SCF Done:  E(RB3LYP) =  -598.500286443     A.U. after   10 cycles
 SCF Done:  E(RB3LYP) =  -598.500291244     A.U. after   10 cycles
 SCF Done:  E(RB3LYP) =  -598.500291963     A.U. after    8 cycles
 SCF Done:  E(RB3LYP) =  -598.500292143     A.U. after    7 cycles
 SCF Done:  E(RB3LYP) =  -598.500292170     A.U. after    7 cycles
 Optimization completed.
    -- Stationary point found.
 Normal termination of Gaussian 16 at Thu Dec 10 14:46:59 2020.

 --------------------------------------------------------------------
 #N Geom=AllCheck Guess=TCheck SCRF=Check GenChk RB3LYP/6-31G(d) Freq
 --------------------------------------------------------------------

 Structure from the checkpoint file:  "JID_5019.chk"
 -------------------------------
 CID_142924003_JID_5019_neutraal
 -------------------------------
 Charge =  0 Multiplicity = 1

 SCF Done:  E(RB3LYP) =  -598.500292170     A.U. after    1 cycles

  Exact polarizability: 292.321  23.350 171.356   0.078   8.129  89.222
 Approx polarizability: 419.038  61.662 279.067  -0.795  20.633 143.317

                      1                      2                      3
                      A                      A                      A
 Frequencies --     43.3842                47.4386                60.5874
 Red. masses --      2.7372                 3.7022                 3.9036
 Frc consts  --      0.0030                 0.0049                 0.0084
 IR Inten    --      0.0360                 1.2736                 0.3784

                      4                      5                      6
                      A                      A                      A
 Frequencies --     77.4020               114.7470               124.0949
 Red. masses --      3.2627                 1.6151                 1.6514
 Frc consts  --      0.0115                 0.0125                 0.0150
 IR Inten    --      1.2748                 0.0311                 0.0321

                      7                      8                      9
                      A                      A                      A
 Frequencies --    161.2322               177.9274               196.4207
 Red. masses --      2.1416                 1.9871                 2.0131
 Frc consts  --      0.0328                 0.0371                 0.0458
 IR Inten    --      0.8208                 0.5400                 1.0428

                     10                     11                     12
                      A                      A                      A
 Frequencies --    225.3721               246.8082               279.2864
 Red. masses --      2.4590                 4.0832                 3.6217
 Frc consts  --      0.0736                 0.1465                 0.1664
 IR Inten    --      0.0319                 3.4271                 0.6394

                     13                     14                     15
                      A                      A                      A
 Frequencies --    297.9394               348.6789               379.1659
 Red. masses --      1.0420                 3.4434                 3.3234
 Frc consts  --      0.0545                 0.2467                 0.2815
 IR Inten    --     21.4612                 1.7246                 6.4034

                     16                     17                     18
                      A                      A                      A
 Frequencies --    398.1159               411.2807               424.9111
 Red. masses --      2.7261                 2.6891                 3.2092
 Frc consts  --      0.2546                 0.2680                 0.3414
 IR Inten    --      0.4769                 0.4946                 2.3675

                     19                     20                     21
                      A                      A                      A
 Frequencies --    454.8064               471.1884               491.9641
 Red. masses --      1.9241                 3.1036                 2.5945
 Frc consts  --      0.2345                 0.4060                 0.3700
 IR Inten    --      0.2150                13.9951                10.9604

                     22                     23                     24
                      A                      A                      A
 Frequencies --    529.0189               561.9102               605.3586
 Red. masses --      2.4400                 3.0435                 2.4708
 Frc consts  --      0.4023                 0.5662                 0.5335
 IR Inten    --      6.7191                20.0779               292.9411

                     25                     26                     27
                      A                      A                      A
 Frequencies --    638.9171               659.6514               718.9019
 Red. masses --      1.7280                 6.3081                 3.5174
 Frc consts  --      0.4156                 1.6173                 1.0711
 IR Inten    --    193.3748                 1.0458                 0.7733

                     28                     29                     30
                      A                      A                      A
 Frequencies --    755.8611               774.3929               826.6921
 Red. masses --      3.8933                 3.0163                 1.2579
 Frc consts  --      1.3106                 1.0657                 0.5065
 IR Inten    --     21.6496                 3.5229                 1.2893

                     31                     32                     33
                      A                      A                      A
 Frequencies --    837.4304               852.1396               856.7172
 Red. masses --      1.8955                 3.6401                 3.3648
 Frc consts  --      0.7832                 1.5573                 1.4551
 IR Inten    --     37.3089                 9.3856                 6.5908

                     34                     35                     36
                      A                      A                      A
 Frequencies --    897.1250               917.3152               931.3039
 Red. masses --      1.4063                 1.3452                 1.3812
 Frc consts  --      0.6669                 0.6669                 0.7058
 IR Inten    --      4.4281                 6.7204                29.5391

                     37                     38                     39
                      A                      A                      A
 Frequencies --    953.4249               961.7617               969.4529
 Red. masses --      1.3056                 1.3749                 1.8035
 Frc consts  --      0.6992                 0.7493                 0.9986
 IR Inten    --      0.3670                 2.2568                 0.9400

                     40                     41                     42
                      A                      A                      A
 Frequencies --    979.5351              1027.4705              1034.3462
 Red. masses --      1.5350                 1.2394                 1.3977
 Frc consts  --      0.8678                 0.7709                 0.8811
 IR Inten    --      1.4143                 3.6206                 8.0467

                     43                     44                     45
                      A                      A                      A
 Frequencies --   1037.5917              1083.7529              1101.0124
 Red. masses --      1.7523                 1.6470                 1.4701
 Frc consts  --      1.1115                 1.1398                 1.0499
 IR Inten    --      5.9060                24.2373                 1.1859

                     46                     47                     48
                      A                      A                      A
 Frequencies --   1112.7980              1134.8705              1166.3803
 Red. masses --      1.6548                 1.9985                 1.2003
 Frc consts  --      1.2073                 1.5165                 0.9621
 IR Inten    --      0.9173                 2.6920                 5.1865

                     49                     50                     51
                      A                      A                      A
 Frequencies --   1199.0744              1218.2870              1240.3797
 Red. masses --      2.7545                 1.1276                 2.2553
 Frc consts  --      2.3334                 0.9860                 2.0444
 IR Inten    --      5.9789                32.2375                 0.2995

                     52                     53                     54
                      A                      A                      A
 Frequencies --   1309.4785              1325.5091              1335.2476
 Red. masses --      2.1350                 3.2038                 2.1191
 Frc consts  --      2.1570                 3.3165                 2.2260
 IR Inten    --      1.4343                95.8354                 6.6713

                     55                     56                     57
                      A                      A                      A
 Frequencies --   1355.3774              1374.3046              1389.4616
 Red. masses --      1.4436                 2.0594                 1.6569
 Frc consts  --      1.5625                 2.2917                 1.8847
 IR Inten    --      5.2814                 2.1366                 6.0106

                     58                     59                     60
                      A                      A                      A
 Frequencies --   1415.8785              1440.9961              1450.2933
 Red. masses --      1.5207                 1.3711                 1.2522
 Frc consts  --      1.7962                 1.6774                 1.5518
 IR Inten    --      8.9862                10.5276                 7.3991

                     61                     62                     63
                      A                      A                      A
 Frequencies --   1470.3527              1487.0986              1499.1737
 Red. masses --      1.5890                 2.1653                 1.0473
 Frc consts  --      2.0241                 2.8213                 1.3868
 IR Inten    --      3.5611                 3.7821                 0.3550

                     64                     65                     66
                      A                      A                      A
 Frequencies --   1515.6070              1518.1704              1522.9530
 Red. masses --      1.0590                 1.0436                 1.1198
 Frc consts  --      1.4333                 1.4172                 1.5302
 IR Inten    --      8.1299                12.5250                10.2060

                     67                     68                     69
                      A                      A                      A
 Frequencies --   1566.6456              1622.2361              1635.1760
 Red. masses --      2.6451                 5.5014                 5.7087
 Frc consts  --      3.8250                 8.5301                 8.9932
 IR Inten    --     84.4088                 3.5936                10.1615

                     70                     71                     72
                      A                      A                      A
 Frequencies --   1673.4384              1693.9544              1696.0536
 Red. masses --      3.1150                 3.4402                 1.4716
 Frc consts  --      5.1396                 5.8162                 2.4942
 IR Inten    --     43.2838                30.1045               127.1486

                     73                     74                     75
                      A                      A                      A
 Frequencies --   1712.6142              3019.0754              3029.4893
 Red. masses --      5.1589                 1.0395                 1.0422
 Frc consts  --      8.9151                 5.5824                 5.6355
 IR Inten    --     28.0090                53.1636               100.3099

                     76                     77                     78
                      A                      A                      A
 Frequencies --   3060.2919              3068.1929              3123.3987
 Red. masses --      1.0994                 1.0992                 1.0985
 Frc consts  --      6.0665                 6.0966                 6.3138
 IR Inten    --     17.4715                35.0362                21.4487

                     79                     80                     81
                      A                      A                      A
 Frequencies --   3150.5427              3163.2487              3173.1917
 Red. masses --      1.0950                 1.0816                 1.0784
 Frc consts  --      6.4037                 6.3768                 6.3979
 IR Inten    --     16.6101                 2.7402                11.9102

                     82                     83                     84
                      A                      A                      A
 Frequencies --   3173.4859              3173.6914              3185.1736
 Red. masses --      1.0777                 1.0859                 1.0865
 Frc consts  --      6.3945                 6.4443                 6.4943
 IR Inten    --     20.5038                26.8841                14.2888

                     85                     86                     87
                      A                      A                      A
 Frequencies --   3190.8938              3200.6566              3210.5874
 Red. masses --      1.0867                 1.0922                 1.0922
 Frc consts  --      6.5188                 6.5925                 6.6333
 IR Inten    --     34.1585                13.2026                 9.4004

                     88                     89                     90
                      A                      A                      A
 Frequencies --   3256.5964              3548.6405              3647.6377
 Red. masses --      1.1159                 1.0478                 1.0980
 Frc consts  --      6.9728                 7.7742                 8.6078
 IR Inten    --     19.0325                15.9334                 7.6315

 - Thermochemistry -
 -------------------
 Temperature   298.150 Kelvin.  Pressure   1.00000 Atm.
 Atom     1 has atomic number  6 and mass  12.00000

 Molecular mass:   199.13610 amu.
 Principal axes and moments of inertia in atomic units:
                           1         2         3
     Eigenvalues --  1587.819906749.047707981.02252
           X            0.99998   0.00629   0.00109
           Y           -0.00629   0.99998   0.00147
           Z           -0.00108  -0.00148   1.00000
 This molecule is an asymmetric top.
 Rotational symmetry number  1.
 Warning -- assumption of classical behavior for rotation
           may cause significant error
 Rotational temperatures (Kelvin)      0.05455     0.01283     0.01085
 Rotational constants (GHZ):           1.13662     0.26741     0.22613
 Zero-point vibrational energy     720154.6 (Joules/Mol)
                                  172.12107 (Kcal/Mol)
 Warning -- explicit consideration of  24 degrees of freedom as
           vibrations may cause significant error
 Vibrational temperatures:     62.42    68.25    87.17   111.36   165.10
          (Kelvin)            178.54   231.98   256.00   282.61   324.26
                              355.10   401.83   428.67   501.67   545.54
                              572.80   591.74   611.35   654.36   677.94
                              707.83   761.14   808.46   870.98   919.26
                              949.09  1034.34  1087.52  1114.18  1189.43
                             1204.88  1226.04  1232.62  1290.76  1319.81
                             1339.94  1371.77  1383.76  1394.83  1409.33
                             1478.30  1488.19  1492.86  1559.28  1584.11
                             1601.07  1632.83  1678.16  1725.20  1752.84
                             1784.63  1884.05  1907.11  1921.12  1950.09
                             1977.32  1999.13  2037.13  2073.27  2086.65
                             2115.51  2139.60  2156.98  2180.62  2184.31
                             2191.19  2254.05  2334.04  2352.65  2407.70
                             2437.22  2440.24  2464.07  4343.78  4358.76
                             4403.08  4414.45  4493.87  4532.93  4551.21
                             4565.52  4565.94  4566.23  4582.75  4590.98
                             4605.03  4619.32  4685.52  5105.70  5248.14

 Zero-point correction=                           0.274292 (Hartree/Particle)
 Thermal correction to Energy=                    0.289862
 Thermal correction to Enthalpy=                  0.290807
 Thermal correction to Gibbs Free Energy=         0.231126
 Sum of electronic and zero-point Energies=           -598.226000
 Sum of electronic and thermal Energies=              -598.210430
 Sum of electronic and thermal Enthalpies=            -598.209486
 Sum of electronic and thermal Free Energies=         -598.269166

                     E (Thermal)             CV                S
                      KCal/Mol        Cal/Mol-Kelvin    Cal/Mol-Kelvin
 Total                  181.891             59.194            125.608
 Electronic               0.000              0.000              0.000
 Translational            0.889              2.981             41.771
 Rotational               0.889              2.981             32.814
 Vibrational            180.114             53.233             51.022
 Vibration     1          0.595              1.980              5.098
 Vibration     2          0.595              1.979              4.921
 Vibration     3          0.597              1.973              4.438
 Vibration     4          0.599              1.964              3.956
 Vibration     5          0.608              1.937              3.187
 Vibration     6          0.610              1.929              3.036
 Vibration     7          0.622              1.890              2.535
 Vibration     8          0.628              1.869              2.350
 Vibration     9          0.636              1.845              2.166
 Vibration    10          0.650              1.802              1.916
 Vibration    11          0.661              1.768              1.753
 Vibration    12          0.680              1.712              1.538
 Vibration    13          0.691              1.678              1.428
 Vibration    14          0.726              1.578              1.172
 Vibration    15          0.749              1.515              1.042
 Vibration    16          0.764              1.474              0.970
 Vibration    17          0.775              1.446              0.922
 Vibration    18          0.787              1.416              0.875
 Vibration    19          0.813              1.350              0.781
 Vibration    20          0.828              1.314              0.734
 Vibration    21          0.848              1.268              0.679
 Vibration    22          0.884              1.186              0.589
 Vibration    23          0.918              1.114              0.520
 Vibration    24          0.964              1.020              0.441

 Optimization completed.
    -- Stationary point found.
 Normal termination of Gaussian 16 at Thu Dec 10 14:55:45 2020.

 ----------------------------------------------------------------------
 # B3LYP/6-311++G(d,p) empiricaldispersion=gd3bj scf=xqc pop=npa geom=c
 heck
 ----------------------------------------------------------------------

 ---------------------------------------
 CID_142924003_JID_5019_Energie_neutraal
 ---------------------------------------
 Structure from the checkpoint file:  "JID_5019.chk"
 Charge =  0 Multiplicity = 1

 SCF Done:  E(RB3LYP) =  -598.666141723     A.U. after   16 cycles
 Normal termination of Gaussian 16 at Thu Dec 10 14:59:59 2020.

 ----------------------------------------------------------------------
 # B3LYP/6-311++G(d,p) empiricaldispersion=gd3bj scf=xqc pop=npa geom=c
 heck
 ----------------------------------------------------------------------

 -------------------------------------
 CID_142924003_JID_5019_Energie_kation
 -------------------------------------
 Structure from the checkpoint file:  "JID_5019.chk"
 Charge =  1 Multiplicity = 2

 SCF Done:  E(UB3LYP) =  -598.421208863     A.U. after   22 cycles
 Normal termination of Gaussian 16 at Thu Dec 10 15:11:08 2020.
 Gaussian 16:  ES64L-G16RevA.03 25-Dec-2016

 ----------------------------------------------------------------------
 # B3LYP/6-311++G(d,p) empiricaldispersion=gd3bj scf=xqc pop=npa geom=c
 heck
 ----------------------------------------------------------------------

 ------------------------------------
 CID_142924003_JID_5019_Energie_anion
 ------------------------------------
 Structure from the checkpoint file:  "JID_5019.chk"
 Charge = -1 Multiplicity = 2

                         Standard orientation:
 ---------------------------------------------------------------------
 Center     Atomic      Atomic             Coordinates (Angstroms)
 Number     Number       Type             X           Y           Z
 ---------------------------------------------------------------------
      1          6           0       -5.269495   -0.207306   -0.024990
      2          6           0       -3.841491   -0.667139    0.100173
      3          6           0       -2.821316    0.212235   -0.032942
      4          6           0       -1.409278   -0.083822    0.047883
      5          6           0       -0.375872    0.806365   -0.024166
      6          6           0       -0.602086    2.252542   -0.105430
      7          6           0        0.294509    3.174886   -0.487856
      8          6           0        1.015396    0.289519   -0.024089
      9          6           0        1.374023   -0.816032   -0.811857
     10          6           0        2.658917   -1.345924   -0.786152
     11          6           0        3.647020   -0.782399    0.036246
     12          6           0        3.300991    0.326378    0.826408
     13          6           0        2.014598    0.849214    0.790432
     14          7           0        4.956639   -1.270054    0.021267
     15          6           0       -3.678851   -2.137923    0.374661
     16          1           0       -5.338116    0.867080   -0.220871
     17          1           0       -5.836924   -0.424841    0.891395
     18          1           0       -5.785699   -0.736482   -0.839016
     19          1           0       -3.096518    1.244196   -0.238346
     20          1           0       -1.134712   -1.127443    0.172869
     21          1           0       -1.597913    2.595948    0.164331
     22          1           0        0.030207    4.227649   -0.522776
     23          1           0        1.304320    2.911320   -0.785510
     24          1           0        0.630546   -1.255996   -1.470279
     25          1           0        2.909213   -2.193595   -1.420106
     26          1           0        4.050644    0.776581    1.473393
     27          1           0        1.769791    1.698290    1.420485
     28          1           0        5.489290   -1.076156    0.860309
     29          1           0        5.043134   -2.241028   -0.252638
     30          1           0       -4.184492   -2.411558    1.311328
     31          1           0       -4.154313   -2.732858   -0.417661
     32          1           0       -2.637311   -2.454283    0.454299
 ---------------------------------------------------------------------

 SCF Done:  E(UB3LYP) =  -598.665743314     A.U. after   32 cycles

 The electronic state is 2-A.
 Alpha  occ. eigenvalues --  -14.20918 -10.09304 -10.05485 -10.05222 -10.05177
 Alpha  occ. eigenvalues --  -10.05133 -10.04976 -10.04890 -10.04632 -10.03819
 Alpha  occ. eigenvalues --  -10.03636 -10.02941 -10.02813 -10.02109 -10.01790
 Alpha  occ. eigenvalues --   -0.80981  -0.72741  -0.69417  -0.67009  -0.62894
 Alpha  occ. eigenvalues --   -0.61257  -0.60375  -0.58080  -0.54656  -0.49799
 Alpha  occ. eigenvalues --   -0.48339  -0.46240  -0.42442  -0.40236  -0.39858
 Alpha  occ. eigenvalues --   -0.38149  -0.35550  -0.34356  -0.33190  -0.32258
 Alpha  occ. eigenvalues --   -0.31284  -0.30939  -0.30293  -0.29840  -0.27699
 Alpha  occ. eigenvalues --   -0.26985  -0.26811  -0.25944  -0.25132  -0.23626
 Alpha  occ. eigenvalues --   -0.22823  -0.22206  -0.20636  -0.19181  -0.18473
 Alpha  occ. eigenvalues --   -0.14812  -0.13714  -0.10345  -0.06722   0.04274
 Alpha virt. eigenvalues --    0.05893   0.07352   0.08367   0.09159   0.09198
 Alpha virt. eigenvalues --    0.10178   0.10230   0.10512   0.10916   0.11453
 Alpha virt. eigenvalues --    0.11825   0.12703   0.13004   0.13165   0.13404

  Beta  occ. eigenvalues --  -14.20869 -10.09215 -10.05512 -10.05246 -10.05201
  Beta  occ. eigenvalues --  -10.05141 -10.04950 -10.04836 -10.04638 -10.03625
  Beta  occ. eigenvalues --  -10.03460 -10.02993 -10.02641 -10.01907 -10.01564
  Beta  occ. eigenvalues --   -0.80888  -0.72625  -0.69019  -0.66667  -0.62830
  Beta  occ. eigenvalues --   -0.61021  -0.60150  -0.58041  -0.54477  -0.49718
  Beta  occ. eigenvalues --   -0.48147  -0.45771  -0.42231  -0.40089  -0.39774
  Beta  occ. eigenvalues --   -0.37942  -0.35412  -0.34242  -0.33111  -0.31855
  Beta  occ. eigenvalues --   -0.31182  -0.30849  -0.30262  -0.29701  -0.27592
  Beta  occ. eigenvalues --   -0.26815  -0.26676  -0.25872  -0.24973  -0.23480
  Beta  occ. eigenvalues --   -0.22694  -0.22086  -0.20182  -0.19026  -0.17845
  Beta  occ. eigenvalues --   -0.13924  -0.13504  -0.09908  -0.05345
  Beta virt. eigenvalues --    0.06749   0.07298   0.08428   0.08811   0.09156
  Beta virt. eigenvalues --    0.09226   0.10252   0.10315   0.10705   0.11116
  Beta virt. eigenvalues --    0.11740   0.11968   0.12620   0.13032   0.13096

 Mulliken charges and spin densities:
               1          2
     1  C   -0.521985  -0.026587
     2  C    0.599776   0.233528
     3  C    0.007729  -0.066286
     4  C   -1.146353   0.129376
     5  C    0.583805   0.051352
     6  C   -0.059338   0.003163
     7  C   -0.948792   0.188177
     8  C    1.704580  -0.163778
     9  C   -0.279236   0.087530
    10  C   -0.419309  -0.096361
    11  C   -0.105983  -0.177184
    12  C   -0.063508  -0.056312
    13  C   -0.544560  -0.022056
    14  N   -0.268669  -0.044967
    15  C   -0.698836  -0.034243
    16  H    0.130689   0.009160
    17  H    0.074353   0.044503
    18  H    0.103541   0.014719
    19  H    0.048997  -0.012348
    20  H   -0.017110  -0.011399
    21  H    0.089904   0.024571
    22  H    0.088640  -0.004042
    23  H    0.114769  -0.012770
    24  H    0.170381  -0.003548
    25  H    0.077872   0.047707
    26  H   -0.041259   0.181888
    27  H    0.127068   0.040903
    28  H   -0.115203   0.352037
    29  H   -0.024131   0.255804
    30  H    0.073617   0.042270
    31  H    0.102271   0.007502
    32  H    0.156278   0.017694
 Sum of Mulliken charges =  -1.00000   1.00000

 Dipole moment (field-independent basis, Debye):
    X=             -2.4317    Y=             -0.9801    Z=             -0.4702  Tot=              2.6637
 Quadrupole moment (field-independent basis, Debye-Ang):
   XX=           -164.8449   YY=           -114.4147   ZZ=           -108.1357
   XY=              2.7209   XZ=             -0.5651   YZ=              4.4326

 Summary of Natural Population Analysis:

                                       Natural Population
                Natural  -----------------------------------------------
    Atom  No    Charge         Core      Valence    Rydberg      Total
 -----------------------------------------------------------------------
      C    1   -0.29418      0.99964     2.29048    0.00406     3.29418
      C    2    0.05542      0.99954     1.93728    0.00776     2.94458
      C    3   -0.13032      0.99947     2.12324    0.00761     3.13032
      C    4   -0.05426      0.99950     2.04539    0.00937     3.05426
      C    5   -0.01583      0.99947     2.00510    0.01126     3.01583
      C    6   -0.09960      0.99955     2.09134    0.00871     3.09960
      C    7   -0.16275      0.99960     2.15589    0.00726     3.16275
      C    8   -0.03719      0.99949     2.02689    0.01081     3.03719
      C    9   -0.07768      0.99953     2.06939    0.00876     3.07768
      C   10   -0.13631      0.99953     2.12744    0.00934     3.13631
      C   11    0.09015      0.99949     1.89951    0.01085     2.90985
      C   12   -0.13485      0.99952     2.12549    0.00983     3.13485
      C   13   -0.07863      0.99953     2.07027    0.00883     3.07863
      N   14   -0.39969      0.99972     2.88974    0.01023     3.89969
      C   15   -0.29970      0.99964     2.29535    0.00472     3.29970
      H   16    0.09720      0.00000     0.40205    0.00075     0.40280
      H   17    0.09514      0.00000     0.40357    0.00129     0.40486
      H   18    0.09429      0.00000     0.40437    0.00134     0.40571
      H   19    0.08913      0.00000     0.40959    0.00128     0.41087
      H   20    0.08774      0.00000     0.41103    0.00123     0.41226
      H   21    0.08853      0.00000     0.40973    0.00174     0.41147
      H   22    0.08235      0.00000     0.41658    0.00106     0.41765
      H   23    0.08934      0.00000     0.40973    0.00092     0.41066
      H   24    0.09977      0.00000     0.39912    0.00111     0.40023
      H   25    0.09274      0.00000     0.40601    0.00125     0.40726
      H   26    0.09503      0.00000     0.40404    0.00092     0.40497
      H   27    0.10266      0.00000     0.39577    0.00157     0.39734
      H   28    0.18408      0.00000     0.31298    0.00294     0.31592
      H   29    0.18207      0.00000     0.31596    0.00197     0.31793
      H   30    0.09750      0.00000     0.40125    0.00125     0.40250
      H   31    0.09502      0.00000     0.40357    0.00140     0.40498
      H   32    0.10282      0.00000     0.39646    0.00073     0.39718
 =======================================================================
   * Total *    0.00000     14.99321    38.85463    0.15216    54.00000

 Normal termination of Gaussian 16 at Thu Dec 10 15:27:15 2020.
