 Gaussian 16, Revision A.03,

 -----------------------------------------------------------
 # opt freq B3LYP/6-31G(d) empiricaldispersion=gd3bj scf=xqc
 -----------------------------------------------------------

 -------------------------------
 CID_133501719_JID_8527_neutraal
 -------------------------------
 Symbolic Z-matrix:
 Charge =  0 Multiplicity = 1

 SCF Done:  E(RB3LYP) =  -770.848090734     A.U. after   14 cycles
 SCF Done:  E(RB3LYP) =  -770.852698986     A.U. after   13 cycles
 SCF Done:  E(RB3LYP) =  -770.853718102     A.U. after   13 cycles
 SCF Done:  E(RB3LYP) =  -770.853983670     A.U. after   12 cycles
 SCF Done:  E(RB3LYP) =  -770.854497795     A.U. after   12 cycles
 SCF Done:  E(RB3LYP) =  -770.854547293     A.U. after   11 cycles
 SCF Done:  E(RB3LYP) =  -770.854612913     A.U. after   10 cycles
 SCF Done:  E(RB3LYP) =  -770.854651730     A.U. after   10 cycles
 SCF Done:  E(RB3LYP) =  -770.854669507     A.U. after   10 cycles
 SCF Done:  E(RB3LYP) =  -770.854678172     A.U. after   10 cycles
 SCF Done:  E(RB3LYP) =  -770.855178154     A.U. after    9 cycles
 SCF Done:  E(RB3LYP) =  -770.855178535     A.U. after    9 cycles
 SCF Done:  E(RB3LYP) =  -770.855178716     A.U. after    7 cycles
 SCF Done:  E(RB3LYP) =  -770.855178702     A.U. after    7 cycles
 SCF Done:  E(RB3LYP) =  -770.855178680     A.U. after    7 cycles
 Optimization completed.
    -- Stationary point found.
 Normal termination of Gaussian 16 at Fri Dec 11 21:27:17 2020.

 --------------------------------------------------------------------
 #N Geom=AllCheck Guess=TCheck SCRF=Check GenChk RB3LYP/6-31G(d) Freq
 --------------------------------------------------------------------

 Structure from the checkpoint file:  "JID_8527.chk"
 -------------------------------
 CID_133501719_JID_8527_neutraal
 -------------------------------
 Charge =  0 Multiplicity = 1

 SCF Done:  E(RB3LYP) =  -770.855178680     A.U. after    1 cycles

  Exact polarizability: 224.010   5.554 133.683   1.510  -6.376 158.149
 Approx polarizability: 302.094   4.660 186.105  10.799 -12.575 259.366

                      1                      2                      3
                      A                      A                      A
 Frequencies --     20.5254                25.5174                35.8340
 Red. masses --      3.9973                 4.5959                 3.5107
 Frc consts  --      0.0010                 0.0018                 0.0027
 IR Inten    --      0.7670                 0.3991                 0.3715

                      4                      5                      6
                      A                      A                      A
 Frequencies --     68.9548                72.1720               126.4994
 Red. masses --      2.4307                 1.2583                 3.4521
 Frc consts  --      0.0068                 0.0039                 0.0325
 IR Inten    --      0.5532                 0.7796                 2.0884

                      7                      8                      9
                      A                      A                      A
 Frequencies --    146.1607               171.2401               180.7606
 Red. masses --      4.4204                 3.4601                 3.3234
 Frc consts  --      0.0556                 0.0598                 0.0640
 IR Inten    --      2.8271                 0.1398                 0.2154

                     10                     11                     12
                      A                      A                      A
 Frequencies --    215.1149               224.4605               229.5054
 Red. masses --      3.1022                 2.4329                 3.3381
 Frc consts  --      0.0846                 0.0722                 0.1036
 IR Inten    --      3.1669                 9.1039                 9.0455

                     13                     14                     15
                      A                      A                      A
 Frequencies --    247.8529               264.9705               286.5839
 Red. masses --      2.7815                 3.0327                 1.3472
 Frc consts  --      0.1007                 0.1255                 0.0652
 IR Inten    --      3.9758                 4.7269                84.8118

                     16                     17                     18
                      A                      A                      A
 Frequencies --    309.1614               347.2080               373.8695
 Red. masses --      2.1386                 1.7744                 2.4766
 Frc consts  --      0.1204                 0.1260                 0.2040
 IR Inten    --     12.9334                 1.6963                 2.6584

                     19                     20                     21
                      A                      A                      A
 Frequencies --    402.0191               414.3391               438.2458
 Red. masses --      1.7496                 3.4566                 1.6593
 Frc consts  --      0.1666                 0.3496                 0.1878
 IR Inten    --     16.2584                 7.4651                74.3228

                     22                     23                     24
                      A                      A                      A
 Frequencies --    448.7076               455.6437               457.9424
 Red. masses --      1.7787                 2.6654                 2.0682
 Frc consts  --      0.2110                 0.3260                 0.2555
 IR Inten    --     24.5033                 1.8270                33.8206

                     25                     26                     27
                      A                      A                      A
 Frequencies --    502.2292               524.5574               550.9751
 Red. masses --      2.9696                 1.8811                 4.5713
 Frc consts  --      0.4413                 0.3050                 0.8176
 IR Inten    --      1.7982                 4.1735                 1.9378

                     28                     29                     30
                      A                      A                      A
 Frequencies --    600.0125               604.7927               615.6240
 Red. masses --      3.6621                 3.4094                 2.6014
 Frc consts  --      0.7768                 0.7347                 0.5809
 IR Inten    --      1.1474                 1.1769                 6.9969

                     31                     32                     33
                      A                      A                      A
 Frequencies --    717.7451               743.4481               779.9171
 Red. masses --      3.1715                 3.1360                 4.2419
 Frc consts  --      0.9626                 1.0212                 1.5202
 IR Inten    --      5.3599                 0.3943                 8.3684

                     34                     35                     36
                      A                      A                      A
 Frequencies --    793.1468               821.0275               839.7684
 Red. masses --      1.5452                 1.4232                 2.4102
 Frc consts  --      0.5727                 0.5653                 1.0014
 IR Inten    --      1.0074                27.3242                 2.9589

                     37                     38                     39
                      A                      A                      A
 Frequencies --    847.0398               852.6753               862.1129
 Red. masses --      1.4240                 1.7737                 2.4491
 Frc consts  --      0.6019                 0.7598                 1.0725
 IR Inten    --     11.6223                 5.0505                 1.8410

                     40                     41                     42
                      A                      A                      A
 Frequencies --    889.3741               927.9350               941.9808
 Red. masses --      2.1474                 2.0262                 2.2774
 Frc consts  --      1.0008                 1.0279                 1.1906
 IR Inten    --      0.2386                 1.7036                 4.6565

                     43                     44                     45
                      A                      A                      A
 Frequencies --    952.8002               972.6243               983.0501
 Red. masses --      1.6842                 1.3434                 1.9097
 Frc consts  --      0.9009                 0.7488                 1.0873
 IR Inten    --      8.7924                 0.2634                 0.7476

                     46                     47                     48
                      A                      A                      A
 Frequencies --    984.3218              1003.1292              1023.7249
 Red. masses --      2.8092                 5.0807                 1.7775
 Frc consts  --      1.6037                 3.0122                 1.0976
 IR Inten    --     14.7060                18.0602                 2.7270

                     49                     50                     51
                      A                      A                      A
 Frequencies --   1030.6894              1056.6743              1062.6134
 Red. masses --      1.6984                 1.7662                 2.0112
 Frc consts  --      1.0630                 1.1619                 1.3380
 IR Inten    --      1.2527                 0.6921                 0.6569

                     52                     53                     54
                      A                      A                      A
 Frequencies --   1074.2344              1086.2473              1108.9593
 Red. masses --      1.5729                 2.5655                 2.0881
 Frc consts  --      1.0694                 1.7835                 1.5130
 IR Inten    --      4.8338                34.0970                 7.6190

                     55                     56                     57
                      A                      A                      A
 Frequencies --   1125.4987              1128.9637              1142.3531
 Red. masses --      2.6301                 2.3897                 1.5692
 Frc consts  --      1.9629                 1.7945                 1.2065
 IR Inten    --     24.6772                24.0690                 5.2659

                     58                     59                     60
                      A                      A                      A
 Frequencies --   1149.2222              1183.4060              1188.7105
 Red. masses --      1.5368                 1.4956                 1.6000
 Frc consts  --      1.1959                 1.2341                 1.3320
 IR Inten    --      8.1303                 8.1418                 4.2340

                     61                     62                     63
                      A                      A                      A
 Frequencies --   1228.8074              1234.8071              1247.7187
 Red. masses --      1.8067                 1.6175                 1.3507
 Frc consts  --      1.6073                 1.4531                 1.2389
 IR Inten    --     31.5377                38.1164                22.8506

                     64                     65                     66
                      A                      A                      A
 Frequencies --   1276.0677              1298.6837              1306.4678
 Red. masses --      1.2226                 2.4046                 1.4105
 Frc consts  --      1.1730                 2.3895                 1.4184
 IR Inten    --      7.5401                 7.2977                 5.0950

                     67                     68                     69
                      A                      A                      A
 Frequencies --   1318.4882              1322.2089              1339.3358
 Red. masses --      1.2960                 1.2855                 1.6708
 Frc consts  --      1.3274                 1.3241                 1.7659
 IR Inten    --     10.4230                17.8837                30.2830

                     70                     71                     72
                      A                      A                      A
 Frequencies --   1354.6967              1370.2090              1384.7285
 Red. masses --      1.3860                 1.4441                 1.4203
 Frc consts  --      1.4987                 1.5974                 1.6046
 IR Inten    --     12.0198                 1.4754                 6.0472

                     73                     74                     75
                      A                      A                      A
 Frequencies --   1386.8842              1394.1327              1398.2970
 Red. masses --      1.7367                 1.4141                 1.4544
 Frc consts  --      1.9681                 1.6193                 1.6754
 IR Inten    --     70.5537                 0.9927                 9.9857

                     76                     77                     78
                      A                      A                      A
 Frequencies --   1404.7640              1413.6818              1419.6215
 Red. masses --      1.4261                 1.4490                 1.3492
 Frc consts  --      1.6581                 1.7062                 1.6021
 IR Inten    --      0.6678                 1.0322                 1.7131

                     79                     80                     81
                      A                      A                      A
 Frequencies --   1436.3463              1444.3587              1445.9690
 Red. masses --      1.3266                 1.9964                 1.3448
 Frc consts  --      1.6125                 2.4539                 1.6566
 IR Inten    --      1.1716                 2.0353                 2.1809

                     82                     83                     84
                      A                      A                      A
 Frequencies --   1478.7878              1498.6591              1505.3324
 Red. masses --      1.4273                 1.0898                 1.0457
 Frc consts  --      1.8390                 1.4421                 1.3961
 IR Inten    --      2.9198                 2.6191                 4.4388

                     85                     86                     87
                      A                      A                      A
 Frequencies --   1510.4839              1515.2525              1517.1767
 Red. masses --      1.0843                 1.1067                 1.0912
 Frc consts  --      1.4575                 1.4971                 1.4799
 IR Inten    --      0.3782                 7.1440                 7.2573

                     88                     89                     90
                      A                      A                      A
 Frequencies --   1518.2809              1520.4833              1528.2754
 Red. masses --      1.2089                 1.0973                 1.1776
 Frc consts  --      1.6419                 1.4946                 1.6206
 IR Inten    --      7.2006                 5.9958                10.3360

                     91                     92                     93
                      A                      A                      A
 Frequencies --   1532.8752              1537.7480              1556.0033
 Red. masses --      1.8825                 1.0991                 1.0951
 Frc consts  --      2.6061                 1.5313                 1.5622
 IR Inten    --     26.1781                 9.6719                 8.5170

                     94                     95                     96
                      A                      A                      A
 Frequencies --   1573.3969              1627.7629              1664.7800
 Red. masses --      2.3918                 3.7537                 5.3473
 Frc consts  --      3.4886                 5.8600                 8.7317
 IR Inten    --    133.2712                34.8635               484.1115

                     97                     98                     99
                      A                      A                      A
 Frequencies --   2997.7579              3008.0927              3013.9662
 Red. masses --      1.0608                 1.0665                 1.0666
 Frc consts  --      5.6169                 5.6857                 5.7085
 IR Inten    --     65.8331                33.1591                14.7873

                    100                    101                    102
                      A                      A                      A
 Frequencies --   3016.8466              3027.7951              3040.5442
 Red. masses --      1.0669                 1.0882                 1.0727
 Frc consts  --      5.7211                 5.8778                 5.8429
 IR Inten    --     43.9784                27.3835                72.9496

                    103                    104                    105
                      A                      A                      A
 Frequencies --   3045.9120              3052.5150              3054.2637
 Red. masses --      1.0701                 1.0750                 1.0357
 Frc consts  --      5.8494                 5.9019                 5.6926
 IR Inten    --     22.7945                41.9196                23.8260

                    106                    107                    108
                      A                      A                      A
 Frequencies --   3057.8417              3061.5050              3071.4438
 Red. masses --      1.0938                 1.0936                 1.0747
 Frc consts  --      6.0258                 6.0391                 5.9734
 IR Inten    --     66.4610                17.7445                23.1692

                    109                    110                    111
                      A                      A                      A
 Frequencies --   3072.5887              3078.0379              3100.3413
 Red. masses --      1.0925                 1.0933                 1.0967
 Frc consts  --      6.0770                 6.1031                 6.2107
 IR Inten    --     42.6295                66.5482                59.9785

                    112                    113                    114
                      A                      A                      A
 Frequencies --   3114.1157              3133.1272              3133.2211
 Red. masses --      1.1007                 1.0915                 1.1032
 Frc consts  --      6.2894                 6.3131                 6.3810
 IR Inten    --     15.2143                28.0427                18.6709

                    115                    116                    117
                      A                      A                      A
 Frequencies --   3136.9277              3156.6352              3172.3140
 Red. masses --      1.0997                 1.0893                 1.0902
 Frc consts  --      6.3757                 6.3953                 6.4641
 IR Inten    --      5.4037                43.1826                14.7971

                    118                    119                    120
                      A                      A                      A
 Frequencies --   3233.8449              3619.7418              3752.6567
 Red. masses --      1.0909                 1.0762                 1.0664
 Frc consts  --      6.7219                 8.3080                 8.8481
 IR Inten    --     14.5466                16.0633                14.5938

 - Thermochemistry -
 -------------------
 Temperature   298.150 Kelvin.  Pressure   1.00000 Atm.
 Atom     1 has atomic number  6 and mass  12.00000

 Molecular mass:   248.18886 amu.
 Principal axes and moments of inertia in atomic units:
                           1         2         3
     Eigenvalues --  2551.369747893.636968689.46169
           X            0.99996   0.00189  -0.00927
           Y           -0.00198   0.99996  -0.00928
           Z            0.00925   0.00929   0.99991
 This molecule is an asymmetric top.
 Rotational symmetry number  1.
 Warning -- assumption of classical behavior for rotation
           may cause significant error
 Rotational temperatures (Kelvin)      0.03395     0.01097     0.00997
 Rotational constants (GHZ):           0.70736     0.22863     0.20769
 Zero-point vibrational energy     988704.5 (Joules/Mol)
                                  236.30605 (Kcal/Mol)
 Warning -- explicit consideration of  30 degrees of freedom as
           vibrations may cause significant error
 Vibrational temperatures:     29.53    36.71    51.56    99.21   103.84
          (Kelvin)            182.00   210.29   246.38   260.07   309.50
                              322.95   330.21   356.61   381.23   412.33
                              444.81   499.55   537.91   578.42   596.14
                              630.54   645.59   655.57   658.88   722.60
                              754.72   792.73   863.28   870.16   885.75
                             1032.68  1069.66  1122.13  1141.16  1181.28
                             1208.24  1218.70  1226.81  1240.39  1279.61
                             1335.09  1355.30  1370.87  1399.39  1414.39
                             1416.22  1443.28  1472.91  1482.93  1520.32
                             1528.86  1545.58  1562.87  1595.55  1619.34
                             1624.33  1643.59  1653.47  1702.66  1710.29
                             1767.98  1776.61  1795.19  1835.98  1868.52
                             1879.72  1897.01  1902.36  1927.01  1949.11
                             1971.43  1992.32  1995.42  2005.85  2011.84
                             2021.14  2033.97  2042.52  2066.58  2078.11
                             2080.43  2127.65  2156.24  2165.84  2173.25
                             2180.11  2182.88  2184.47  2187.64  2198.85
                             2205.47  2212.48  2238.74  2263.77  2341.99
                             2395.25  4313.11  4327.97  4336.43  4340.57
                             4356.32  4374.66  4382.39  4391.89  4394.40
                             4399.55  4404.82  4419.12  4420.77  4428.61
                             4460.70  4480.52  4507.87  4508.01  4513.34
                             4541.69  4564.25  4652.78  5208.00  5399.24

 Zero-point correction=                           0.376578 (Hartree/Particle)
 Thermal correction to Energy=                    0.394638
 Thermal correction to Enthalpy=                  0.395582
 Thermal correction to Gibbs Free Energy=         0.329283
 Sum of electronic and zero-point Energies=           -770.478601
 Sum of electronic and thermal Energies=              -770.460541
 Sum of electronic and thermal Enthalpies=            -770.459597
 Sum of electronic and thermal Free Energies=         -770.525895

                     E (Thermal)             CV                S
                      KCal/Mol        Cal/Mol-Kelvin    Cal/Mol-Kelvin
 Total                  247.639             70.291            139.537
 Electronic               0.000              0.000              0.000
 Translational            0.889              2.981             42.428
 Rotational               0.889              2.981             33.525
 Vibrational            245.861             64.330             63.584
 Vibration     1          0.593              1.986              6.583
 Vibration     2          0.593              1.985              6.151
 Vibration     3          0.594              1.982              5.477
 Vibration     4          0.598              1.969              4.183
 Vibration     5          0.598              1.967              4.093
 Vibration     6          0.611              1.927              2.999
 Vibration     7          0.617              1.907              2.722
 Vibration     8          0.626              1.878              2.422
 Vibration     9          0.630              1.866              2.321
 Vibration    10          0.645              1.818              2.000
 Vibration    11          0.649              1.804              1.923
 Vibration    12          0.652              1.796              1.883
 Vibration    13          0.661              1.766              1.746
 Vibration    14          0.671              1.737              1.629
 Vibration    15          0.684              1.699              1.494
 Vibration    16          0.699              1.656              1.367
 Vibration    17          0.725              1.581              1.179
 Vibration    18          0.745              1.526              1.064
 Vibration    19          0.768              1.466              0.955
 Vibration    20          0.778              1.439              0.911
 Vibration    21          0.798              1.387              0.832
 Vibration    22          0.808              1.364              0.800
 Vibration    23          0.814              1.348              0.779
 Vibration    24          0.816              1.343              0.772
 Vibration    25          0.858              1.245              0.653
 Vibration    26          0.880              1.196              0.599
 Vibration    27          0.906              1.138              0.542
 Vibration    28          0.958              1.032              0.450
 Vibration    29          0.963              1.022              0.441
 Vibration    30          0.975              0.999              0.424

                           ! Non-Optimized Parameters !
 Normal termination of Gaussian 16 at Fri Dec 11 21:48:25 2020.

 ----------------------------------------------------------------------
 # B3LYP/6-311++G(d,p) empiricaldispersion=gd3bj scf=xqc pop=npa geom=c
 heck
 ----------------------------------------------------------------------

 ---------------------------------------
 CID_133501719_JID_8527_Energie_neutraal
 ---------------------------------------
 Structure from the checkpoint file:  "JID_8527.chk"
 Charge =  0 Multiplicity = 1

 SCF Done:  E(RB3LYP) =  -771.075281774     A.U. after   15 cycles
 Normal termination of Gaussian 16 at Fri Dec 11 21:58:37 2020.

 ----------------------------------------------------------------------
 # B3LYP/6-311++G(d,p) empiricaldispersion=gd3bj scf=xqc pop=npa geom=c
 heck
 ----------------------------------------------------------------------

 -------------------------------------
 CID_133501719_JID_8527_Energie_kation
 -------------------------------------
 Structure from the checkpoint file:  "JID_8527.chk"
 Charge =  1 Multiplicity = 2

 SCF Done:  E(UB3LYP) =  -770.800424053     A.U. after   24 cycles
 Normal termination of Gaussian 16 at Fri Dec 11 22:23:04 2020.
 Gaussian 16:  ES64L-G16RevA.03 25-Dec-2016

 ----------------------------------------------------------------------
 # B3LYP/6-311++G(d,p) empiricaldispersion=gd3bj scf=xqc pop=npa geom=c
 heck
 ----------------------------------------------------------------------

 ------------------------------------
 CID_133501719_JID_8527_Energie_anion
 ------------------------------------
 Structure from the checkpoint file:  "JID_8527.chk"
 Charge = -1 Multiplicity = 2

                         Standard orientation:
 ---------------------------------------------------------------------
 Center     Atomic      Atomic             Coordinates (Angstroms)
 Number     Number       Type             X           Y           Z
 ---------------------------------------------------------------------
      1          6           0        5.202469   -0.058657   -1.225118
      2          6           0        3.965071   -0.315043   -0.402802
      3          7           0        4.167596   -0.546205    0.910721
      4          6           0        3.076959   -0.772440    1.648344
      5          6           0        1.770371   -0.786568    1.170469
      6          6           0        1.555739   -0.552932   -0.200126
      7          6           0        2.703085   -0.310614   -0.984764
      8          7           0        0.313925   -0.520425   -0.782146
      9          6           0       -0.928524   -0.988986   -0.185257
     10          6           0       -1.946621    0.082845    0.296104
     11          6           0       -1.383262    0.959476    1.446329
     12          6           0       -0.405031    2.065302    1.026591
     13          6           0       -1.016743    2.948117   -0.065897
     14          6           0       -1.442313    2.105074   -1.271754
     15          6           0       -2.420845    0.992435   -0.863876
     16          6           0       -3.164295   -0.691547    0.879936
     17          6           0       -4.132034   -1.371272   -0.083892
     18          8           0       -3.481800   -2.435949   -0.777848
     19          1           0        5.883191   -0.915021   -1.162605
     20          1           0        4.964045    0.123746   -2.277361
     21          1           0        5.744735    0.808654   -0.832304
     22          1           0        3.252062   -0.954278    2.708464
     23          1           0        0.948361   -0.963391    1.852552
     24          1           0        2.595979   -0.120469   -2.050370
     25          1           0        0.318488   -0.456017   -1.789273
     26          1           0       -1.434450   -1.622548   -0.916556
     27          1           0       -0.682703   -1.640734    0.659888
     28          1           0       -2.236831    1.448237    1.938518
     29          1           0       -0.928736    0.312581    2.208070
     30          1           0        0.535429    1.638014    0.670264
     31          1           0       -0.157779    2.671438    1.907337
     32          1           0       -0.304556    3.722689   -0.375565
     33          1           0       -1.896789    3.471464    0.337973
     34          1           0       -0.548838    1.674635   -1.735897
     35          1           0       -1.919145    2.738647   -2.030739
     36          1           0       -2.668722    0.372963   -1.735982
     37          1           0       -3.360804    1.473165   -0.552842
     38          1           0       -2.805638   -1.442320    1.597204
     39          1           0       -3.769216    0.019832    1.457323
     40          1           0       -4.979664   -1.759319    0.502567
     41          1           0       -4.538153   -0.635166   -0.793085
     42          1           0       -4.130660   -2.843944   -1.370548
 ---------------------------------------------------------------------

 SCF Done:  E(UB3LYP) =  -771.068004574     A.U. after   33 cycles
 SCF Done:  E(UB3LYP) =  -771.068004574     a.u. after    1 cycles

 The electronic state is 2-A.
 Alpha  occ. eigenvalues --  -19.01882 -14.24154 -14.20565 -10.14108 -10.12444
 Alpha  occ. eigenvalues --  -10.11662 -10.11305 -10.10324 -10.08922 -10.08429
 Alpha  occ. eigenvalues --  -10.08296 -10.08243 -10.07246 -10.07213 -10.07012
 Alpha  occ. eigenvalues --  -10.06844 -10.06635 -10.06601  -0.91889  -0.86253
 Alpha  occ. eigenvalues --   -0.84071  -0.74834  -0.70167  -0.69441  -0.68513
 Alpha  occ. eigenvalues --   -0.64846  -0.62872  -0.61580  -0.58749  -0.54597
 Alpha  occ. eigenvalues --   -0.53394  -0.51740  -0.49899  -0.47723  -0.45222
 Alpha  occ. eigenvalues --   -0.44309  -0.42601  -0.41240  -0.38743  -0.38382
 Alpha  occ. eigenvalues --   -0.36976  -0.35937  -0.35622  -0.34715  -0.34502
 Alpha  occ. eigenvalues --   -0.34178  -0.33612  -0.32882  -0.31957  -0.30501
 Alpha  occ. eigenvalues --   -0.30309  -0.29157  -0.28361  -0.28258  -0.27174
 Alpha  occ. eigenvalues --   -0.26690  -0.26372  -0.25834  -0.24361  -0.24139
 Alpha  occ. eigenvalues --   -0.23523  -0.20912  -0.20653  -0.19765  -0.17427
 Alpha  occ. eigenvalues --   -0.17006  -0.16852  -0.12685   0.03858
 Alpha virt. eigenvalues --    0.05726   0.06396   0.06855   0.06969   0.07499
 Alpha virt. eigenvalues --    0.07618   0.08214   0.08540   0.08952   0.09567
 Alpha virt. eigenvalues --    0.10021   0.10087   0.10755   0.10925   0.11440

  Beta  occ. eigenvalues --  -19.01832 -14.24139 -14.20562 -10.14108 -10.12445
  Beta  occ. eigenvalues --  -10.11662 -10.11268 -10.10314 -10.08924 -10.08422
  Beta  occ. eigenvalues --  -10.08283 -10.08238 -10.07238 -10.07205 -10.07004
  Beta  occ. eigenvalues --  -10.06841 -10.06619 -10.06579  -0.91781  -0.86236
  Beta  occ. eigenvalues --   -0.84058  -0.74816  -0.70151  -0.69433  -0.68483
  Beta  occ. eigenvalues --   -0.64820  -0.62824  -0.61552  -0.58724  -0.54576
  Beta  occ. eigenvalues --   -0.53341  -0.51703  -0.49868  -0.47683  -0.45188
  Beta  occ. eigenvalues --   -0.44282  -0.42537  -0.41149  -0.38718  -0.38349
  Beta  occ. eigenvalues --   -0.36949  -0.35910  -0.35603  -0.34706  -0.34481
  Beta  occ. eigenvalues --   -0.34159  -0.33585  -0.32867  -0.31928  -0.30487
  Beta  occ. eigenvalues --   -0.30297  -0.29130  -0.28327  -0.28233  -0.27145
  Beta  occ. eigenvalues --   -0.26672  -0.26353  -0.25810  -0.24331  -0.24116
  Beta  occ. eigenvalues --   -0.23479  -0.20891  -0.20630  -0.19737  -0.17374
  Beta  occ. eigenvalues --   -0.17001  -0.16844  -0.12669
  Beta virt. eigenvalues --    0.05866   0.06404   0.06845   0.07119   0.07454
  Beta virt. eigenvalues --    0.07564   0.07829   0.08682   0.08925   0.09295
  Beta virt. eigenvalues --    0.09744   0.10143   0.10271   0.10828   0.11185

 Mulliken charges and spin densities:
               1          2
     1  C    0.187346  -0.922569
     2  C   -0.620757   0.438571
     3  N   -0.065239   0.013889
     4  C   -0.907580   0.554042
     5  C    1.410741  -0.977728
     6  C    0.081701  -0.242649
     7  C   -0.343115   0.112399
     8  N   -0.071579   0.066702
     9  C   -0.247815  -0.816276
    10  C    1.247410   0.127033
    11  C   -0.750274   0.209008
    12  C   -0.431502   0.133295
    13  C   -0.146651  -0.341245
    14  C    0.458512  -0.806133
    15  C   -0.086878  -0.471651
    16  C   -1.588649   1.574404
    17  C    1.831896  -2.354408
    18  O   -0.329161   0.071281
    19  H    0.111017   0.037722
    20  H   -0.009602   0.149379
    21  H    0.125155   0.028799
    22  H    0.088686   0.082545
    23  H    0.164636  -0.090251
    24  H   -0.316624   0.453721
    25  H   -0.032569   0.342223
    26  H    0.360471  -0.078957
    27  H    0.124834   0.065525
    28  H   -0.091064   0.225730
    29  H    0.112207   0.035507
    30  H    0.240531  -0.120628
    31  H    0.067333   0.107393
    32  H    0.020603   0.147301
    33  H    0.037538   0.066005
    34  H    0.048781   0.032826
    35  H   -0.272547   0.466899
    36  H   -0.307394   0.494831
    37  H    0.105636   0.053804
    38  H    0.091260   0.080645
    39  H   -0.041101   0.179354
    40  H   -0.512402   0.683494
    41  H   -0.481871   0.650235
    42  H   -0.261917   0.537933
 Sum of Mulliken charges =  -1.00000   1.00000

 Dipole moment (field-independent basis, Debye):
    X=              6.7442    Y=              2.6825    Z=              4.1445  Tot=              8.3581
 Quadrupole moment (field-independent basis, Debye-Ang):
   XX=           -218.3094   YY=           -157.9687   ZZ=           -149.9126
   XY=            -14.7559   XZ=            -15.8688   YZ=             -3.8797

 Summary of Natural Population Analysis:

                                       Natural Population
                Natural  -----------------------------------------------
    Atom  No    Charge         Core      Valence    Rydberg      Total
 -----------------------------------------------------------------------
      C    1   -0.29581      0.99963     2.29071    0.00547     3.29581
      C    2    0.10793      0.99955     1.87755    0.01497     2.89207
      N    3   -0.26788      0.99968     2.75685    0.01135     3.76788
      C    4    0.03783      0.99960     1.94837    0.01421     2.96217
      C    5   -0.16248      0.99951     2.15620    0.00678     3.16248
      C    6    0.11234      0.99949     1.87694    0.01123     2.88766
      C    7   -0.14750      0.99947     2.13916    0.00887     3.14750
      N    8   -0.30063      0.99966     2.79057    0.01040     3.80063
      C    9   -0.09182      0.99954     2.07934    0.01294     3.09182
      C   10   -0.03928      0.99954     2.02648    0.01326     3.03928
      C   11   -0.18861      0.99959     2.17908    0.00993     3.18861
      C   12   -0.19137      0.99962     2.18423    0.00752     3.19137
      C   13   -0.18738      0.99963     2.17991    0.00783     3.18738
      C   14   -0.18811      0.99962     2.18024    0.00825     3.18811
      C   15   -0.19533      0.99959     2.18414    0.01160     3.19533
      C   16   -0.19382      0.99959     2.18314    0.01110     3.19382
      C   17   -0.00812      0.99958     1.99587    0.01267     3.00812
      O   18   -0.37795      0.99989     3.37092    0.00714     4.37795
      H   19    0.10523      0.00000     0.39354    0.00123     0.39477
      H   20    0.09937      0.00000     0.39990    0.00073     0.40063
      H   21    0.10555      0.00000     0.39320    0.00126     0.39445
      H   22    0.08706      0.00000     0.41186    0.00108     0.41294
      H   23    0.10569      0.00000     0.39278    0.00153     0.39431
      H   24    0.10275      0.00000     0.39603    0.00122     0.39725
      H   25    0.19048      0.00000     0.30685    0.00267     0.30952
      H   26    0.11937      0.00000     0.37892    0.00171     0.38063
      H   27    0.09453      0.00000     0.40402    0.00145     0.40547
      H   28    0.09588      0.00000     0.40293    0.00119     0.40412
      H   29    0.09656      0.00000     0.40243    0.00101     0.40344
      H   30    0.10097      0.00000     0.39716    0.00187     0.39903
      H   31    0.09443      0.00000     0.40469    0.00088     0.40557
      H   32    0.09699      0.00000     0.40220    0.00082     0.40301
      H   33    0.09031      0.00000     0.40857    0.00112     0.40969
      H   34    0.09441      0.00000     0.40386    0.00173     0.40559
      H   35    0.09764      0.00000     0.40138    0.00098     0.40236
      H   36    0.10627      0.00000     0.39192    0.00181     0.39373
      H   37    0.09679      0.00000     0.40169    0.00152     0.40321
      H   38    0.09811      0.00000     0.40060    0.00129     0.40189
      H   39    0.10195      0.00000     0.39683    0.00122     0.39805
      H   40    0.07893      0.00000     0.41923    0.00184     0.42107
      H   41    0.08047      0.00000     0.41667    0.00286     0.41953
      H   42    0.23826      0.00000     0.24970    0.01204     0.26174
 =======================================================================
   * Total *    0.00000     17.99279    49.77666    0.23055    68.00000

 Normal termination of Gaussian 16 at Fri Dec 11 22:55:40 2020.
