 Gaussian 16, Revision A.03,

 -----------------------------------------------------------
 # opt freq B3LYP/6-31G(d) empiricaldispersion=gd3bj scf=xqc
 -----------------------------------------------------------

 ------------------------------
 CID_63753271_JID_5604_neutraal
 ------------------------------
 Symbolic Z-matrix:
 Charge =  0 Multiplicity = 1

 SCF Done:  E(RB3LYP) =  -651.671811948     A.U. after   15 cycles
 SCF Done:  E(RB3LYP) =  -651.678974774     A.U. after   12 cycles
 SCF Done:  E(RB3LYP) =  -651.679213066     A.U. after   12 cycles
 SCF Done:  E(RB3LYP) =  -651.680284904     A.U. after   12 cycles
 SCF Done:  E(RB3LYP) =  -651.680656420     A.U. after   12 cycles
 SCF Done:  E(RB3LYP) =  -651.680962115     A.U. after   12 cycles
 SCF Done:  E(RB3LYP) =  -651.681200156     A.U. after   11 cycles
 SCF Done:  E(RB3LYP) =  -651.681391202     A.U. after   12 cycles
 SCF Done:  E(RB3LYP) =  -651.681433269     A.U. after   10 cycles
 SCF Done:  E(RB3LYP) =  -651.681463747     A.U. after   11 cycles
 SCF Done:  E(RB3LYP) =  -651.681641418     A.U. after   10 cycles
 SCF Done:  E(RB3LYP) =  -651.681644035     A.U. after    9 cycles
 SCF Done:  E(RB3LYP) =  -651.681644512     A.U. after    8 cycles
 SCF Done:  E(RB3LYP) =  -651.681644581     A.U. after    7 cycles
 SCF Done:  E(RB3LYP) =  -651.681644588     A.U. after    6 cycles
 Optimization completed.
    -- Stationary point found.
 Normal termination of Gaussian 16 at Thu Dec 10 16:53:32 2020.

 --------------------------------------------------------------------
 #N Geom=AllCheck Guess=TCheck SCRF=Check GenChk RB3LYP/6-31G(d) Freq
 --------------------------------------------------------------------

 Structure from the checkpoint file:  "JID_5604.chk"
 ------------------------------
 CID_63753271_JID_5604_neutraal
 ------------------------------
 Charge =  0 Multiplicity = 1

 SCF Done:  E(RB3LYP) =  -651.681644588     A.U. after    1 cycles

  Exact polarizability: 181.649  -3.748 141.133 -15.319   0.136  93.992
 Approx polarizability: 236.185  -5.199 234.847 -28.165  -8.821 146.220

                      1                      2                      3
                      A                      A                      A
 Frequencies --     29.8206                32.0954                48.9491
 Red. masses --      1.2807                 2.1529                 4.0662
 Frc consts  --      0.0007                 0.0013                 0.0057
 IR Inten    --      0.4501                 0.1158                 1.1452

                      4                      5                      6
                      A                      A                      A
 Frequencies --     77.8244                97.6699               130.6551
 Red. masses --      3.1095                 3.0175                 1.1869
 Frc consts  --      0.0111                 0.0170                 0.0119
 IR Inten    --      0.3820                 2.4273                 0.6596

                      7                      8                      9
                      A                      A                      A
 Frequencies --    136.1881               158.8611               189.7981
 Red. masses --      2.9701                 3.2179                 4.5363
 Frc consts  --      0.0325                 0.0478                 0.0963
 IR Inten    --      0.3802                 7.3694                 1.8520

                     10                     11                     12
                      A                      A                      A
 Frequencies --    226.1934               268.9158               290.0888
 Red. masses --      4.4354                 3.3573                 1.1723
 Frc consts  --      0.1337                 0.1430                 0.0581
 IR Inten    --     16.4311                 0.3953                39.9742

                     13                     14                     15
                      A                      A                      A
 Frequencies --    307.9873               340.5308               367.2779
 Red. masses --      2.9599                 3.1179                 4.5063
 Frc consts  --      0.1654                 0.2130                 0.3581
 IR Inten    --     11.2329                 6.0080                 2.6012

                     16                     17                     18
                      A                      A                      A
 Frequencies --    404.0213               433.5519               442.1430
 Red. masses --      2.8340                 2.4589                 2.8018
 Frc consts  --      0.2726                 0.2723                 0.3227
 IR Inten    --      7.9932                 3.1931                 0.2311

                     19                     20                     21
                      A                      A                      A
 Frequencies --    473.4202               485.7166               541.9037
 Red. masses --      4.2291                 3.1027                 3.5778
 Frc consts  --      0.5585                 0.4313                 0.6190
 IR Inten    --      1.1387                12.0587                 0.8655

                     22                     23                     24
                      A                      A                      A
 Frequencies --    633.1697               690.5540               707.6818
 Red. masses --      4.7854                 6.6418                 4.6096
 Frc consts  --      1.1303                 1.8661                 1.3602
 IR Inten    --      4.0926                14.4749                 1.8430

                     25                     26                     27
                      A                      A                      A
 Frequencies --    743.7695               766.7512               796.7027
 Red. masses --      4.1290                 3.3969                 5.0569
 Frc consts  --      1.3458                 1.1766                 1.8912
 IR Inten    --      8.9108                21.6374                 8.2933

                     28                     29                     30
                      A                      A                      A
 Frequencies --    833.7272               853.2702               868.2143
 Red. masses --      1.3924                 3.0903                 1.4857
 Frc consts  --      0.5702                 1.3256                 0.6598
 IR Inten    --     13.6963                12.7175               151.1871

                     31                     32                     33
                      A                      A                      A
 Frequencies --    885.1665               920.7544               927.4499
 Red. masses --      1.3679                 1.4146                 3.7006
 Frc consts  --      0.6314                 0.7066                 1.8754
 IR Inten    --      8.4875                 2.6800                 2.5889

                     34                     35                     36
                      A                      A                      A
 Frequencies --    963.9306               995.7195              1005.1147
 Red. masses --      1.2992                 2.1650                 1.6824
 Frc consts  --      0.7112                 1.2647                 1.0014
 IR Inten    --      0.1698                 7.9437                19.1245

                     37                     38                     39
                      A                      A                      A
 Frequencies --   1025.2054              1041.3405              1054.5128
 Red. masses --      2.0307                 1.5735                 2.0572
 Frc consts  --      1.2575                 1.0053                 1.3478
 IR Inten    --     11.2503                 5.0927                13.7741

                     40                     41                     42
                      A                      A                      A
 Frequencies --   1072.6565              1078.0653              1131.1063
 Red. masses --      1.5109                 1.5087                 2.0204
 Frc consts  --      1.0242                 1.0331                 1.5230
 IR Inten    --      0.9949                 5.5536                 6.1775

                     43                     44                     45
                      A                      A                      A
 Frequencies --   1138.5064              1155.8545              1168.8780
 Red. masses --      1.2690                 1.9353                 1.5823
 Frc consts  --      0.9691                 1.5234                 1.2738
 IR Inten    --      4.0733                 9.2000                 7.6466

                     46                     47                     48
                      A                      A                      A
 Frequencies --   1183.9619              1203.1726              1240.1452
 Red. masses --      1.8971                 1.7534                 2.1305
 Frc consts  --      1.5668                 1.4955                 1.9305
 IR Inten    --     13.2802                21.7127                 2.5404

                     49                     50                     51
                      A                      A                      A
 Frequencies --   1263.9511              1276.7316              1291.4931
 Red. masses --      3.2218                 1.4485                 1.6210
 Frc consts  --      3.0325                 1.3912                 1.5930
 IR Inten    --      1.7515                 2.0261                 1.5378

                     52                     53                     54
                      A                      A                      A
 Frequencies --   1296.3929              1319.2364              1334.4775
 Red. masses --      1.5645                 1.4449                 1.5222
 Frc consts  --      1.5492                 1.4816                 1.5971
 IR Inten    --      0.9125                 0.9549                 3.0851

                     55                     56                     57
                      A                      A                      A
 Frequencies --   1355.3605              1411.1201              1442.9826
 Red. masses --      6.7765                 3.7981                 1.2559
 Frc consts  --      7.3344                 4.4560                 1.5407
 IR Inten    --      1.3785               252.4027                 3.9111

                     58                     59                     60
                      A                      A                      A
 Frequencies --   1444.9778              1448.0434              1461.8390
 Red. masses --      1.2471                 1.6223                 3.2237
 Frc consts  --      1.5341                 2.0042                 4.0588
 IR Inten    --      4.6050                11.9878               227.0419

                     61                     62                     63
                      A                      A                      A
 Frequencies --   1516.1172              1517.7650              1521.3765
 Red. masses --      1.0495                 1.0964                 1.0721
 Frc consts  --      1.4213                 1.4881                 1.4621
 IR Inten    --      4.6525                 1.4260                15.3304

                     64                     65                     66
                      A                      A                      A
 Frequencies --   1528.3770              1529.7319              1548.0734
 Red. masses --      1.1158                 1.0995                 1.1863
 Frc consts  --      1.5356                 1.5159                 1.6751
 IR Inten    --      5.8666                12.0102                 8.7601

                     67                     68                     69
                      A                      A                      A
 Frequencies --   1552.0800              1627.8497              1674.5876
 Red. masses --      2.2228                 5.2638                 5.9610
 Frc consts  --      3.1548                 8.2183                 9.8488
 IR Inten    --     16.8298                 2.2572                 9.9943

                     70                     71                     72
                      A                      A                      A
 Frequencies --   1699.3939              1741.5771              3043.0569
 Red. masses --      1.0947                11.9374                 1.0388
 Frc consts  --      1.8627                21.3327                 5.6677
 IR Inten    --     31.7140               264.2866                38.9007

                     73                     74                     75
                      A                      A                      A
 Frequencies --   3046.0701              3047.8816              3064.6547
 Red. masses --      1.0456                 1.0601                 1.0583
 Frc consts  --      5.7160                 5.8020                 5.8560
 IR Inten    --     25.4945                55.4404                33.4976

                     76                     77                     78
                      A                      A                      A
 Frequencies --   3095.9062              3096.2267              3099.3611
 Red. masses --      1.0993                 1.0930                 1.0960
 Frc consts  --      6.2078                 6.1738                 6.2032
 IR Inten    --     20.9187                 3.6703                29.6193

                     79                     80                     81
                      A                      A                      A
 Frequencies --   3111.6128              3119.4944              3129.3452
 Red. masses --      1.1034                 1.1046                 1.1010
 Frc consts  --      6.2941                 6.3334                 6.3524
 IR Inten    --      9.0482                43.9574                15.3315

                     82                     83                     84
                      A                      A                      A
 Frequencies --   3158.2243              3169.5005              3187.6466
 Red. masses --      1.0981                 1.0866                 1.0945
 Frc consts  --      6.4533                 6.4314                 6.5525
 IR Inten    --      7.8164                10.8182                30.9031

                     85                     86                     87
                      A                      A                      A
 Frequencies --   3203.1072              3463.5747              3551.9307
 Red. masses --      1.0902                 1.0498                 1.0924
 Frc consts  --      6.5901                 7.4198                 8.1197
 IR Inten    --      4.4415                 0.4858                 0.0632

 - Thermochemistry -
 -------------------
 Temperature   298.150 Kelvin.  Pressure   1.00000 Atm.
 Atom     1 has atomic number  6 and mass  12.00000

 Molecular mass:   204.12626 amu.
 Principal axes and moments of inertia in atomic units:
                           1         2         3
     Eigenvalues --  1589.300875258.631245805.33463
           X            0.99994  -0.00896  -0.00615
           Y            0.00935   0.99766   0.06769
           Z            0.00553  -0.06774   0.99769
 This molecule is an asymmetric top.
 Rotational symmetry number  1.
 Warning -- assumption of classical behavior for rotation
           may cause significant error
 Rotational temperatures (Kelvin)      0.05450     0.01647     0.01492
 Rotational constants (GHZ):           1.13556     0.34320     0.31088
 Zero-point vibrational energy     693595.6 (Joules/Mol)
                                  165.77332 (Kcal/Mol)
 Warning -- explicit consideration of  21 degrees of freedom as
           vibrations may cause significant error
 Vibrational temperatures:     42.91    46.18    70.43   111.97   140.53
          (Kelvin)            187.98   195.94   228.57   273.08   325.44
                              386.91   417.37   443.13   489.95   528.43
                              581.30   623.78   636.15   681.15   698.84
                              779.68   910.99   993.55  1018.20  1070.12
                             1103.18  1146.28  1199.55  1227.67  1249.17
                             1273.56  1324.76  1334.39  1386.88  1432.62
                             1446.14  1475.04  1498.26  1517.21  1543.31
                             1551.10  1627.41  1638.06  1663.02  1681.75
                             1703.46  1731.10  1784.29  1818.54  1836.93
                             1858.17  1865.22  1898.09  1920.02  1950.06
                             2030.29  2076.13  2079.00  2083.41  2103.26
                             2181.35  2183.73  2188.92  2198.99  2200.94
                             2227.33  2233.10  2342.11  2409.36  2445.05
                             2505.74  4378.28  4382.62  4385.22  4409.35
                             4454.32  4454.78  4459.29  4476.92  4488.26
                             4502.43  4543.98  4560.20  4586.31  4608.56
                             4983.31  5110.44

 Zero-point correction=                           0.264177 (Hartree/Particle)
 Thermal correction to Energy=                    0.279259
 Thermal correction to Enthalpy=                  0.280203
 Thermal correction to Gibbs Free Energy=         0.220450
 Sum of electronic and zero-point Energies=           -651.417468
 Sum of electronic and thermal Energies=              -651.402385
 Sum of electronic and thermal Enthalpies=            -651.401441
 Sum of electronic and thermal Free Energies=         -651.461194

                     E (Thermal)             CV                S
                      KCal/Mol        Cal/Mol-Kelvin    Cal/Mol-Kelvin
 Total                  175.238             55.765            125.761
 Electronic               0.000              0.000              0.000
 Translational            0.889              2.981             41.845
 Rotational               0.889              2.981             32.251
 Vibrational            173.460             49.803             51.665
 Vibration     1          0.594              1.984              5.841
 Vibration     2          0.594              1.983              5.696
 Vibration     3          0.595              1.978              4.859
 Vibration     4          0.599              1.964              3.945
 Vibration     5          0.603              1.951              3.500
 Vibration     6          0.612              1.923              2.936
 Vibration     7          0.614              1.917              2.857
 Vibration     8          0.621              1.893              2.563
 Vibration     9          0.633              1.854              2.230
 Vibration    10          0.650              1.801              1.909
 Vibration    11          0.673              1.730              1.603
 Vibration    12          0.686              1.692              1.473
 Vibration    13          0.698              1.659              1.373
 Vibration    14          0.720              1.594              1.210
 Vibration    15          0.740              1.540              1.091
 Vibration    16          0.769              1.461              0.948
 Vibration    17          0.794              1.397              0.847
 Vibration    18          0.802              1.378              0.820
 Vibration    19          0.830              1.309              0.728
 Vibration    20          0.842              1.282              0.695
 Vibration    21          0.897              1.157              0.561

 Optimization completed on the basis of negligible forces.
    -- Stationary point found.
 Normal termination of Gaussian 16 at Thu Dec 10 17:04:42 2020.

 ----------------------------------------------------------------------
 # B3LYP/6-311++G(d,p) empiricaldispersion=gd3bj scf=xqc pop=npa geom=c
 heck
 ----------------------------------------------------------------------

 --------------------------------------
 CID_63753271_JID_5604_Energie_neutraal
 --------------------------------------
 Structure from the checkpoint file:  "JID_5604.chk"
 Charge =  0 Multiplicity = 1

 SCF Done:  E(RB3LYP) =  -651.864527038     A.U. after   16 cycles
 Normal termination of Gaussian 16 at Thu Dec 10 17:10:01 2020.

 ----------------------------------------------------------------------
 # B3LYP/6-311++G(d,p) empiricaldispersion=gd3bj scf=xqc pop=npa geom=c
 heck
 ----------------------------------------------------------------------

 ------------------------------------
 CID_63753271_JID_5604_Energie_kation
 ------------------------------------
 Structure from the checkpoint file:  "JID_5604.chk"
 Charge =  1 Multiplicity = 2

 SCF Done:  E(UB3LYP) =  -651.563697747     A.U. after   30 cycles
 Normal termination of Gaussian 16 at Thu Dec 10 17:27:17 2020.
 Gaussian 16:  ES64L-G16RevA.03 25-Dec-2016

 ----------------------------------------------------------------------
 # B3LYP/6-311++G(d,p) empiricaldispersion=gd3bj scf=xqc pop=npa geom=c
 heck
 ----------------------------------------------------------------------

 -----------------------------------
 CID_63753271_JID_5604_Energie_anion
 -----------------------------------
 Structure from the checkpoint file:  "JID_5604.chk"
 Charge = -1 Multiplicity = 2

                         Standard orientation:
 ---------------------------------------------------------------------
 Center     Atomic      Atomic             Coordinates (Angstroms)
 Number     Number       Type             X           Y           Z
 ---------------------------------------------------------------------
      1          6           0        4.121950   -1.452646   -0.950477
      2          6           0        3.053163   -0.504110   -0.465759
      3          6           0        1.827552   -0.970221    0.001972
      4          6           0        0.813424   -0.098723    0.428326
      5          6           0        1.034881    1.289795    0.440464
      6          6           0        2.278561    1.751577   -0.016245
      7          6           0        3.261954    0.882440   -0.471431
      8          6           0        0.037654    2.297093    0.966669
      9          6           0       -0.451421   -0.765069    0.891071
     10          8           0       -0.440506   -1.750067    1.625699
     11          7           0       -1.627321   -0.249500    0.416737
     12          6           0       -2.897942   -0.986358    0.441710
     13          6           0       -3.247148   -0.366321   -0.954158
     14          6           0       -1.910819    0.418978   -0.868208
     15          7           0       -4.421015    0.462051   -1.135676
     16          1           0        3.861211   -2.491651   -0.727972
     17          1           0        4.266579   -1.370398   -2.035408
     18          1           0        5.088766   -1.239033   -0.479881
     19          1           0        1.633753   -2.037614    0.051352
     20          1           0        2.477475    2.820844    0.001227
     21          1           0        4.211906    1.281248   -0.820367
     22          1           0       -0.433294    2.857618    0.149005
     23          1           0       -0.757326    1.826515    1.547553
     24          1           0        0.541971    3.030854    1.604838
     25          1           0       -2.755687   -2.070832    0.488195
     26          1           0       -3.564599   -0.676540    1.256456
     27          1           0       -3.234928   -1.119240   -1.746928
     28          1           0       -2.052619    1.501451   -0.776074
     29          1           0       -1.171007    0.221668   -1.649999
     30          1           0       -5.262833   -0.110903   -1.144237
     31          1           0       -4.517822    1.110062   -0.354372
 ---------------------------------------------------------------------

 SCF Done:  E(UB3LYP) =  -651.854820327     A.U. after   33 cycles
 SCF Done:  E(UB3LYP) =  -651.854820327     a.u. after    1 cycles

 The electronic state is 2-A.
 Alpha  occ. eigenvalues --  -18.97158 -14.22461 -14.19355 -10.15281 -10.10406
 Alpha  occ. eigenvalues --  -10.09979 -10.09327 -10.07893 -10.07633 -10.07511
 Alpha  occ. eigenvalues --  -10.07160 -10.07005 -10.06695 -10.06693 -10.06666
 Alpha  occ. eigenvalues --   -0.92452  -0.84764  -0.77791  -0.75931  -0.69023
 Alpha  occ. eigenvalues --   -0.65797  -0.62909  -0.62366  -0.58960  -0.56030
 Alpha  occ. eigenvalues --   -0.52106  -0.49085  -0.48100  -0.43514  -0.40831
 Alpha  occ. eigenvalues --   -0.40252  -0.38131  -0.37282  -0.36705  -0.33933
 Alpha  occ. eigenvalues --   -0.33280  -0.32865  -0.32080  -0.30960  -0.30748
 Alpha  occ. eigenvalues --   -0.30017  -0.29830  -0.29292  -0.27937  -0.27447
 Alpha  occ. eigenvalues --   -0.25558  -0.24881  -0.24225  -0.23919  -0.23670
 Alpha  occ. eigenvalues --   -0.15988  -0.14560  -0.14013  -0.13858  -0.13272
 Alpha  occ. eigenvalues --    0.04432
 Alpha virt. eigenvalues --    0.06113   0.06619   0.07246   0.08113   0.08250
 Alpha virt. eigenvalues --    0.08791   0.09927   0.10095   0.10287   0.10794
 Alpha virt. eigenvalues --    0.11550   0.11876   0.12226   0.12863   0.13720

  Beta  occ. eigenvalues --  -18.97070 -14.22449 -14.19294 -10.15225 -10.10386
  Beta  occ. eigenvalues --  -10.09949 -10.09313 -10.07810 -10.07592 -10.07503
  Beta  occ. eigenvalues --  -10.07095 -10.07025 -10.06695 -10.06662 -10.06599
  Beta  occ. eigenvalues --   -0.92311  -0.84694  -0.77684  -0.75806  -0.68892
  Beta  occ. eigenvalues --   -0.65659  -0.62825  -0.62310  -0.58889  -0.55959
  Beta  occ. eigenvalues --   -0.51941  -0.49017  -0.47986  -0.43419  -0.40727
  Beta  occ. eigenvalues --   -0.40167  -0.38049  -0.37188  -0.36629  -0.33813
  Beta  occ. eigenvalues --   -0.33228  -0.32762  -0.31988  -0.30885  -0.30700
  Beta  occ. eigenvalues --   -0.29959  -0.29761  -0.29170  -0.27898  -0.27324
  Beta  occ. eigenvalues --   -0.25370  -0.24797  -0.24047  -0.23840  -0.23541
  Beta  occ. eigenvalues --   -0.15735  -0.14471  -0.13839  -0.13512  -0.12956
  Beta virt. eigenvalues --    0.06466   0.07169   0.07398   0.07544   0.08373
  Beta virt. eigenvalues --    0.08689   0.09138   0.10108   0.10346   0.10570
  Beta virt. eigenvalues --    0.10872   0.11644   0.12060   0.12540   0.13121

 Mulliken charges and spin densities:
               1          2
     1  C    0.079056  -0.726687
     2  C    0.318095   0.095439
     3  C    0.187737  -0.480561
     4  C    0.034636   0.346505
     5  C   -0.314785   0.542305
     6  C    0.154382  -0.301587
     7  C   -0.815812   0.773350
     8  C   -0.247118  -0.508989
     9  C   -0.368318  -0.123529
    10  O   -0.343299   0.031669
    11  N   -0.065089   0.224522
    12  C   -0.037231  -0.165152
    13  C    1.002269  -1.416671
    14  C   -0.049058  -0.182720
    15  N   -0.304663   0.004240
    16  H    0.044330   0.100551
    17  H   -0.070871   0.232010
    18  H    0.122010   0.005434
    19  H    0.170238   0.005990
    20  H    0.035124   0.109691
    21  H   -0.109058   0.246804
    22  H    0.014963   0.155947
    23  H    0.136031   0.046884
    24  H    0.030698   0.115166
    25  H    0.034037   0.114688
    26  H    0.021323   0.145195
    27  H   -0.243400   0.435369
    28  H    0.188879  -0.051982
    29  H   -0.045590   0.193944
    30  H   -0.372795   0.619676
    31  H   -0.186722   0.412500
 Sum of Mulliken charges =  -1.00000   1.00000

 Dipole moment (field-independent basis, Debye):
    X=              6.5413    Y=              1.1514    Z=              1.3987  Tot=              6.7875
 Quadrupole moment (field-independent basis, Debye-Ang):
   XX=           -176.5201   YY=           -118.5937   ZZ=           -123.7198
   XY=              1.1849   XZ=             -5.3737   YZ=              5.9430

 Summary of Natural Population Analysis:

                                       Natural Population
                Natural  -----------------------------------------------
    Atom  No    Charge         Core      Valence    Rydberg      Total
 -----------------------------------------------------------------------
      C    1   -0.28970      0.99964     2.28551    0.00455     3.28970
      C    2   -0.02005      0.99951     2.01130    0.00924     3.02005
      C    3   -0.08275      0.99949     2.07383    0.00944     3.08275
      C    4   -0.04896      0.99942     2.03913    0.01041     3.04896
      C    5    0.00080      0.99949     1.99094    0.00877     2.99920
      C    6   -0.10460      0.99953     2.09543    0.00965     3.10460
      C    7   -0.08092      0.99952     2.07226    0.00914     3.08092
      C    8   -0.29659      0.99964     2.29222    0.00474     3.29659
      C    9    0.34816      0.99958     1.62987    0.02238     2.65184
      O   10   -0.31631      0.99988     3.31151    0.00492     4.31631
      N   11   -0.25975      0.99965     2.75011    0.00999     3.75975
      C   12   -0.08347      0.99964     2.07289    0.01094     3.08347
      C   13   -0.01894      0.99960     2.00579    0.01355     3.01894
      C   14   -0.07718      0.99963     2.06738    0.01017     3.07718
      N   15   -0.41797      0.99976     2.90725    0.01096     3.91797
      H   16    0.10071      0.00000     0.39853    0.00076     0.39929
      H   17    0.10364      0.00000     0.39482    0.00154     0.39636
      H   18    0.09876      0.00000     0.40031    0.00093     0.40124
      H   19    0.10412      0.00000     0.39443    0.00145     0.39588
      H   20    0.09445      0.00000     0.40431    0.00124     0.40555
      H   21    0.09460      0.00000     0.40452    0.00088     0.40540
      H   22    0.10406      0.00000     0.39463    0.00131     0.39594
      H   23    0.10947      0.00000     0.38934    0.00119     0.39053
      H   24    0.09999      0.00000     0.39914    0.00087     0.40001
      H   25    0.10231      0.00000     0.39643    0.00126     0.39769
      H   26    0.09231      0.00000     0.40613    0.00155     0.40769
      H   27    0.09434      0.00000     0.40430    0.00136     0.40566
      H   28    0.09415      0.00000     0.40448    0.00137     0.40585
      H   29    0.10075      0.00000     0.39784    0.00141     0.39925
      H   30    0.18088      0.00000     0.31265    0.00647     0.31912
      H   31    0.17368      0.00000     0.32290    0.00343     0.32632
 =======================================================================
   * Total *   -0.00000     14.99396    39.83019    0.17585    55.00000

 Normal termination of Gaussian 16 at Thu Dec 10 17:45:20 2020.
