 Gaussian 16, Revision A.03,

 -----------------------------------------------------------
 # opt freq B3LYP/6-31G(d) empiricaldispersion=gd3bj scf=xqc
 -----------------------------------------------------------

 -------------------------------
 CID_123213170_JID_9907_neutraal
 -------------------------------
 Symbolic Z-matrix:
 Charge =  0 Multiplicity = 1

 SCF Done:  E(RB3LYP) =  -891.866868372     A.U. after   17 cycles
 SCF Done:  E(RB3LYP) =  -891.871348348     A.U. after   15 cycles
 SCF Done:  E(RB3LYP) =  -891.868298494     A.U. after   15 cycles
 SCF Done:  E(RB3LYP) =  -891.876416111     A.U. after   14 cycles
 SCF Done:  E(RB3LYP) =  -891.877193251     A.U. after   16 cycles
 SCF Done:  E(RB3LYP) =  -891.878727626     A.U. after   14 cycles
 SCF Done:  E(RB3LYP) =  -891.877440942     A.U. after   15 cycles
 SCF Done:  E(RB3LYP) =  -891.880687007     A.U. after   14 cycles
 SCF Done:  E(RB3LYP) =  -891.882799297     A.U. after   16 cycles
 SCF Done:  E(RB3LYP) =  -891.885111416     A.U. after   15 cycles
 SCF Done:  E(RB3LYP) =  -891.889600959     A.U. after    9 cycles
 SCF Done:  E(RB3LYP) =  -891.889601590     A.U. after   10 cycles
 SCF Done:  E(RB3LYP) =  -891.889601632     A.U. after    8 cycles
 SCF Done:  E(RB3LYP) =  -891.889601663     A.U. after    8 cycles
 Optimization completed.
    -- Stationary point found.
 Normal termination of Gaussian 16 at Mon Dec 14 17:39:08 2020.

 --------------------------------------------------------------------
 #N Geom=AllCheck Guess=TCheck SCRF=Check GenChk RB3LYP/6-31G(d) Freq
 --------------------------------------------------------------------

 Structure from the checkpoint file:  "JID_9907.chk"
 -------------------------------
 CID_123213170_JID_9907_neutraal
 -------------------------------
 Charge =  0 Multiplicity = 1

 SCF Done:  E(RB3LYP) =  -891.889601663     A.U. after    1 cycles

  Exact polarizability: 260.626  16.472 167.192  27.088   2.438  93.782
 Approx polarizability: 376.736  37.621 296.877  66.584   1.754 175.258

                      1                      2                      3
                      A                      A                      A
 Frequencies --     18.8854                26.8659                45.2781
 Red. masses --      4.0721                 5.8303                 7.4242
 Frc consts  --      0.0009                 0.0025                 0.0090
 IR Inten    --      0.0733                 0.0764                 0.2099

                      4                      5                      6
                      A                      A                      A
 Frequencies --     74.2299                86.6955               106.0426
 Red. masses --      5.4340                 7.1467                 5.8071
 Frc consts  --      0.0176                 0.0316                 0.0385
 IR Inten    --      0.2111                 0.7176                11.8694

                      7                      8                      9
                      A                      A                      A
 Frequencies --    147.5688               164.0442               178.2451
 Red. masses --      6.9571                 5.9998                 7.9644
 Frc consts  --      0.0893                 0.0951                 0.1491
 IR Inten    --      1.2945                11.6229                 2.0620

                     10                     11                     12
                      A                      A                      A
 Frequencies --    217.6211               248.5581               268.3529
 Red. masses --      3.6199                 6.5564                 4.6646
 Frc consts  --      0.1010                 0.2387                 0.1979
 IR Inten    --      1.7710                 1.1908                 4.0463

                     13                     14                     15
                      A                      A                      A
 Frequencies --    322.6404               328.1387               367.1092
 Red. masses --      4.6517                 3.2472                 5.9412
 Frc consts  --      0.2853                 0.2060                 0.4718
 IR Inten    --      3.9864                 3.0947                 1.3687

                     16                     17                     18
                      A                      A                      A
 Frequencies --    402.4978               415.7979               446.5583
 Red. masses --      4.8570                 2.9723                 4.9221
 Frc consts  --      0.4636                 0.3028                 0.5783
 IR Inten    --      2.7677                 0.2400                 2.3182

                     19                     20                     21
                      A                      A                      A
 Frequencies --    478.5667               491.5596               552.9147
 Red. masses --      4.0720                 3.5941                 3.5153
 Frc consts  --      0.5495                 0.5117                 0.6332
 IR Inten    --      5.9869                 2.7361                11.4654

                     22                     23                     24
                      A                      A                      A
 Frequencies --    576.8360               600.9659               625.9310
 Red. masses --      4.5523                 2.7160                 2.4363
 Frc consts  --      0.8925                 0.5779                 0.5624
 IR Inten    --      7.1544                20.8278                45.6458

                     25                     26                     27
                      A                      A                      A
 Frequencies --    637.6295               659.8953               712.4480
 Red. masses --      6.2843                 3.4695                 3.4965
 Frc consts  --      1.5054                 0.8902                 1.0457
 IR Inten    --      0.4667                32.5839                32.0476

                     28                     29                     30
                      A                      A                      A
 Frequencies --    717.2177               757.0755               766.3709
 Red. masses --      2.9682                 5.2437                 2.0514
 Frc consts  --      0.8996                 1.7708                 0.7099
 IR Inten    --     20.6587                46.4038                 9.6648

                     31                     32                     33
                      A                      A                      A
 Frequencies --    784.4976               810.8410               828.5230
 Red. masses --      7.6362                 5.9832                 6.2531
 Frc consts  --      2.7689                 2.3177                 2.5290
 IR Inten    --     26.8751                23.7993                10.7563

                     34                     35                     36
                      A                      A                      A
 Frequencies --    862.3601               867.2192               930.0906
 Red. masses --      1.2816                 3.5536                 1.3715
 Frc consts  --      0.5615                 1.5746                 0.6990
 IR Inten    --      0.2321                 4.0467                 2.2921

                     37                     38                     39
                      A                      A                      A
 Frequencies --    948.2969               971.1078               979.8150
 Red. masses --      1.4188                 1.3548                 3.5777
 Frc consts  --      0.7517                 0.7527                 2.0237
 IR Inten    --      9.5600                 0.1930                18.1522

                     40                     41                     42
                      A                      A                      A
 Frequencies --    996.4098              1001.4108              1011.9988
 Red. masses --      1.3918                 1.2783                 2.2352
 Frc consts  --      0.8141                 0.7553                 1.3488
 IR Inten    --      1.6363                 0.4942                11.1009

                     43                     44                     45
                      A                      A                      A
 Frequencies --   1023.3478              1031.9038              1060.4892
 Red. masses --      5.4450                 1.7983                 2.2083
 Frc consts  --      3.3596                 1.1282                 1.4633
 IR Inten    --      2.9967                 0.5258                 4.0736

                     46                     47                     48
                      A                      A                      A
 Frequencies --   1104.2064              1114.6695              1129.2089
 Red. masses --      3.0759                 1.9903                 2.5196
 Frc consts  --      2.2097                 1.4570                 1.8929
 IR Inten    --      5.2978                17.1908                 9.0848

                     49                     50                     51
                      A                      A                      A
 Frequencies --   1196.0387              1212.0568              1215.7966
 Red. masses --      1.1014                 2.0576                 1.1637
 Frc consts  --      0.9283                 1.7809                 1.0135
 IR Inten    --      0.0166               122.7361                 1.4202

                     52                     53                     54
                      A                      A                      A
 Frequencies --   1241.0679              1261.3846              1277.1108
 Red. masses --      2.7218                 1.2665                 2.3204
 Frc consts  --      2.4700                 1.1873                 2.2299
 IR Inten    --      7.7084                31.3561                62.1679

                     55                     56                     57
                      A                      A                      A
 Frequencies --   1309.3293              1359.5511              1369.5798
 Red. masses --      2.0742                 2.4985                 1.7561
 Frc consts  --      2.0951                 2.7210                 1.9408
 IR Inten    --    175.1544                 3.2528                 2.4789

                     58                     59                     60
                      A                      A                      A
 Frequencies --   1380.9522              1393.9120              1410.0382
 Red. masses --      5.6737                 1.7527                 1.8130
 Frc consts  --      6.3749                 2.0065                 2.1238
 IR Inten    --    277.2332                56.3344                 8.3903

                     61                     62                     63
                      A                      A                      A
 Frequencies --   1442.1872              1455.1637              1485.9039
 Red. masses --      2.6865                 2.0770                 2.2299
 Frc consts  --      3.2922                 2.5912                 2.9008
 IR Inten    --      3.1179                39.8542                 4.4024

                     64                     65                     66
                      A                      A                      A
 Frequencies --   1504.4549              1525.6288              1550.1889
 Red. masses --      2.1929                 1.1036                 2.2000
 Frc consts  --      2.9243                 1.5134                 3.1149
 IR Inten    --     16.9938                65.7333                 2.4761

                     67                     68                     69
                      A                      A                      A
 Frequencies --   1580.8223              1595.2428              1629.5972
 Red. masses --      5.9707                 3.3676                 9.1370
 Frc consts  --      8.7911                 5.0492                14.2960
 IR Inten    --    376.3943                25.1444               221.7675

                     70                     71                     72
                      A                      A                      A
 Frequencies --   1649.4362              1667.9182              1670.2735
 Red. masses --      5.5811                 6.6368                 6.1213
 Frc consts  --      8.9463                10.8782                10.0616
 IR Inten    --      0.1258               583.8872               249.7470

                     73                     74                     75
                      A                      A                      A
 Frequencies --   1795.4946              2914.5575              3053.3593
 Red. masses --      9.5837                 1.0843                 1.0674
 Frc consts  --     18.2034                 5.4266                 5.8629
 IR Inten    --    261.6958               140.1153                15.3040

                     76                     77                     78
                      A                      A                      A
 Frequencies --   3115.6849              3181.3431              3186.3701
 Red. masses --      1.0966                 1.0870                 1.0872
 Frc consts  --      6.2723                 6.4818                 6.5037
 IR Inten    --      8.3739                 7.2953                 2.3627

                     79                     80                     81
                      A                      A                      A
 Frequencies --   3195.5200              3202.1178              3205.1261
 Red. masses --      1.0902                 1.0912                 1.0940
 Frc consts  --      6.5590                 6.5923                 6.6216
 IR Inten    --      7.2448                 2.7685                29.4690

                     82                     83                     84
                      A                      A                      A
 Frequencies --   3215.4043              3224.9387              3581.2973
 Red. masses --      1.0980                 1.0909                 1.0758
 Frc consts  --      6.6887                 6.6846                 8.1291
 IR Inten    --     20.2587                 1.1996                82.3618

 - Thermochemistry -
 -------------------
 Temperature   298.150 Kelvin.  Pressure   1.00000 Atm.
 Atom     1 has atomic number  6 and mass  12.00000

 Molecular mass:   257.08004 amu.
 Principal axes and moments of inertia in atomic units:
                           1         2         3
     Eigenvalues --  2524.047679662.83284**********
           X            0.99999  -0.00447   0.00153
           Y            0.00446   0.99995   0.00884
           Z           -0.00157  -0.00883   0.99996
 This molecule is an asymmetric top.
 Rotational symmetry number  1.
 Warning -- assumption of classical behavior for rotation
           may cause significant error
 Rotational temperatures (Kelvin)      0.03432     0.00896     0.00754
 Rotational constants (GHZ):           0.71502     0.18677     0.15714
 Zero-point vibrational energy     599052.7 (Joules/Mol)
                                  143.17703 (Kcal/Mol)
 Warning -- explicit consideration of  23 degrees of freedom as
           vibrations may cause significant error
 Vibrational temperatures:     27.17    38.65    65.15   106.80   124.74
          (Kelvin)            152.57   212.32   236.02   256.45   313.11
                              357.62   386.10   464.21   472.12   528.19
                              579.10   598.24   642.50   688.55   707.24
                              795.52   829.94   864.66   900.58   917.41
                              949.44  1025.05  1031.92  1089.26  1102.64
                             1128.72  1166.62  1192.06  1240.74  1247.73
                             1338.19  1364.39  1397.21  1409.74  1433.61
                             1440.81  1456.04  1472.37  1484.68  1525.81
                             1588.71  1603.76  1624.68  1720.83  1743.88
                             1749.26  1785.62  1814.85  1837.48  1883.83
                             1956.09  1970.52  1986.88  2005.53  2028.73
                             2074.99  2093.66  2137.88  2164.58  2195.04
                             2230.38  2274.45  2295.20  2344.63  2373.17
                             2399.76  2403.15  2583.32  4193.40  4393.10
                             4482.78  4577.24  4584.48  4597.64  4607.13
                             4611.46  4626.25  4639.97  5152.69

 Zero-point correction=                           0.228167 (Hartree/Particle)
 Thermal correction to Energy=                    0.244026
 Thermal correction to Enthalpy=                  0.244970
 Thermal correction to Gibbs Free Energy=         0.182131
 Sum of electronic and zero-point Energies=           -891.661435
 Sum of electronic and thermal Energies=              -891.645576
 Sum of electronic and thermal Enthalpies=            -891.644632
 Sum of electronic and thermal Free Energies=         -891.707471

                     E (Thermal)             CV                S
                      KCal/Mol        Cal/Mol-Kelvin    Cal/Mol-Kelvin
 Total                  153.128             59.732            132.255
 Electronic               0.000              0.000              0.000
 Translational            0.889              2.981             42.533
 Rotational               0.889              2.981             33.993
 Vibrational            151.351             53.771             55.730
 Vibration     1          0.593              1.986              6.748
 Vibration     2          0.593              1.984              6.048
 Vibration     3          0.595              1.979              5.014
 Vibration     4          0.599              1.966              4.038
 Vibration     5          0.601              1.958              3.733
 Vibration     6          0.605              1.944              3.340
 Vibration     7          0.617              1.905              2.703
 Vibration     8          0.623              1.887              2.503
 Vibration     9          0.629              1.869              2.347
 Vibration    10          0.646              1.814              1.979
 Vibration    11          0.662              1.765              1.741
 Vibration    12          0.673              1.731              1.607
 Vibration    13          0.708              1.630              1.297
 Vibration    14          0.711              1.619              1.269
 Vibration    15          0.740              1.540              1.092
 Vibration    16          0.768              1.465              0.954
 Vibration    17          0.779              1.436              0.906
 Vibration    18          0.806              1.368              0.806
 Vibration    19          0.835              1.298              0.714
 Vibration    20          0.847              1.269              0.680
 Vibration    21          0.908              1.133              0.538
 Vibration    22          0.933              1.081              0.491
 Vibration    23          0.959              1.030              0.448

 Optimization completed.
    -- Stationary point found.
 Normal termination of Gaussian 16 at Mon Dec 14 17:51:22 2020.

 ----------------------------------------------------------------------
 # B3LYP/6-311++G(d,p) empiricaldispersion=gd3bj scf=xqc pop=npa geom=c
 heck
 ----------------------------------------------------------------------

 ---------------------------------------
 CID_123213170_JID_9907_Energie_neutraal
 ---------------------------------------
 Structure from the checkpoint file:  "JID_9907.chk"
 Charge =  0 Multiplicity = 1

 SCF Done:  E(RB3LYP) =  -892.136749280     A.U. after   20 cycles
 Normal termination of Gaussian 16 at Mon Dec 14 17:58:05 2020.

 ----------------------------------------------------------------------
 # B3LYP/6-311++G(d,p) empiricaldispersion=gd3bj scf=xqc pop=npa geom=c
 heck
 ----------------------------------------------------------------------

 -------------------------------------
 CID_123213170_JID_9907_Energie_kation
 -------------------------------------
 Structure from the checkpoint file:  "JID_9907.chk"
 Charge =  1 Multiplicity = 2

 SCF Done:  E(UB3LYP) =  -891.825165665     A.U. after   33 cycles
 SCF Done:  E(UB3LYP) =  -891.825165665     a.u. after    1 cycles
 Normal termination of Gaussian 16 at Mon Dec 14 18:13:57 2020.
 Gaussian 16:  ES64L-G16RevA.03 25-Dec-2016

 ----------------------------------------------------------------------
 # B3LYP/6-311++G(d,p) empiricaldispersion=gd3bj scf=xqc pop=npa geom=c
 heck
 ----------------------------------------------------------------------

 ------------------------------------
 CID_123213170_JID_9907_Energie_anion
 ------------------------------------
 Structure from the checkpoint file:  "JID_9907.chk"
 Charge = -1 Multiplicity = 2

                         Standard orientation:
 ---------------------------------------------------------------------
 Center     Atomic      Atomic             Coordinates (Angstroms)
 Number     Number       Type             X           Y           Z
 ---------------------------------------------------------------------
      1          6           0        5.249601   -1.284056   -0.391224
      2          6           0        5.216371   -0.091238    0.330331
      3          6           0        4.010404    0.591916    0.495877
      4          6           0        2.830783    0.093682   -0.063064
      5          6           0        2.872249   -1.105229   -0.787273
      6          6           0        4.073829   -1.791283   -0.949703
      7          6           0        1.525948    0.835719    0.113439
      8          7           0        0.560374   -0.015390    0.807688
      9          6           0       -0.767580   -0.116664    0.595554
     10          6           0       -1.598929    0.859966   -0.027174
     11          6           0       -2.891154    0.510057   -0.403440
     12          6           0       -3.390094   -0.744979   -0.073982
     13          6           0       -2.546874   -1.592737    0.677560
     14          7           0       -1.298606   -1.306290    0.988662
     15          6           0       -4.756283   -1.152300   -0.431628
     16          8           0       -5.248316   -2.229068   -0.148138
     17          7           0       -1.223392    2.257082   -0.175328
     18          8           0       -1.775292    2.909547   -1.063972
     19          8           0       -0.418858    2.724324    0.636762
     20          1           0        6.186810   -1.817979   -0.518716
     21          1           0        6.126817    0.306725    0.768950
     22          1           0        3.983335    1.518883    1.062710
     23          1           0        1.958174   -1.499590   -1.224799
     24          1           0        4.094736   -2.718777   -1.514592
     25          1           0        1.677253    1.770409    0.659556
     26          1           0        1.106615    1.103640   -0.864184
     27          1           0        0.936343   -0.837308    1.266914
     28          1           0       -3.499933    1.247725   -0.916286
     29          1           0       -2.934900   -2.548205    1.022701
     30          1           0       -5.333779   -0.388909   -0.998254
 ---------------------------------------------------------------------

 SCF Done:  E(UB3LYP) =  -892.184426702     A.U. after   33 cycles
 SCF Done:  E(UB3LYP) =  -892.184426702     a.u. after    1 cycles

 The electronic state is 2-A.
 Alpha  occ. eigenvalues --  -18.99611 -18.96275 -18.96232 -14.34208 -14.22214
 Alpha  occ. eigenvalues --  -14.18271 -10.13899 -10.13187 -10.10727 -10.10580
 Alpha  occ. eigenvalues --  -10.10506 -10.10479 -10.10449 -10.10021 -10.09950
 Alpha  occ. eigenvalues --  -10.08373 -10.07170 -10.06788 -10.05481  -1.04339
 Alpha  occ. eigenvalues --   -0.92602  -0.87244  -0.86131  -0.80016  -0.78058
 Alpha  occ. eigenvalues --   -0.70213  -0.69360  -0.67601  -0.65477  -0.60401
 Alpha  occ. eigenvalues --   -0.55469  -0.53638  -0.52799  -0.51504  -0.50351
 Alpha  occ. eigenvalues --   -0.45098  -0.43477  -0.42833  -0.40381  -0.39043
 Alpha  occ. eigenvalues --   -0.38411  -0.37214  -0.36634  -0.35626  -0.35267
 Alpha  occ. eigenvalues --   -0.35041  -0.33161  -0.32842  -0.32069  -0.31933
 Alpha  occ. eigenvalues --   -0.29671  -0.29209  -0.28916  -0.27632  -0.27167
 Alpha  occ. eigenvalues --   -0.26543  -0.26443  -0.20056  -0.18532  -0.17893
 Alpha  occ. eigenvalues --   -0.17057  -0.16480  -0.15204  -0.13954  -0.13424
 Alpha  occ. eigenvalues --   -0.12031  -0.10361   0.01458
 Alpha virt. eigenvalues --    0.05323   0.05449   0.05539   0.05989   0.07309
 Alpha virt. eigenvalues --    0.08500   0.09715   0.09882   0.10375   0.10571
 Alpha virt. eigenvalues --    0.11080   0.11713   0.12656   0.13243   0.14193

  Beta  occ. eigenvalues --  -18.99645 -18.95808 -18.95804 -14.33586 -14.22114
  Beta  occ. eigenvalues --  -14.18288 -10.13865 -10.13017 -10.10724 -10.10582
  Beta  occ. eigenvalues --  -10.10499 -10.10471 -10.10443 -10.10011 -10.09950
  Beta  occ. eigenvalues --  -10.08375 -10.06776 -10.06646 -10.05575  -1.03335
  Beta  occ. eigenvalues --   -0.92649  -0.86522  -0.85753  -0.79842  -0.77977
  Beta  occ. eigenvalues --   -0.69975  -0.69252  -0.67588  -0.65168  -0.60262
  Beta  occ. eigenvalues --   -0.54684  -0.53599  -0.52612  -0.51339  -0.50063
  Beta  occ. eigenvalues --   -0.45006  -0.43242  -0.42691  -0.39988  -0.38953
  Beta  occ. eigenvalues --   -0.38323  -0.36843  -0.35590  -0.35266  -0.34849
  Beta  occ. eigenvalues --   -0.34096  -0.32895  -0.32433  -0.31933  -0.31654
  Beta  occ. eigenvalues --   -0.29359  -0.29113  -0.28676  -0.27556  -0.27012
  Beta  occ. eigenvalues --   -0.26464  -0.26076  -0.19471  -0.18481  -0.17755
  Beta  occ. eigenvalues --   -0.16401  -0.16111  -0.13814  -0.13198  -0.12134
  Beta  occ. eigenvalues --   -0.11610  -0.09700
  Beta virt. eigenvalues --    0.05397   0.05503   0.05686   0.06454   0.07302
  Beta virt. eigenvalues --    0.08293   0.08503   0.09679   0.10321   0.10533
  Beta virt. eigenvalues --    0.10960   0.11686   0.12158   0.12759   0.13269

 Mulliken charges and spin densities:
               1          2
     1  C   -0.354575   0.009498
     2  C   -0.302215  -0.001212
     3  C   -0.529437   0.034335
     4  C    0.191377   0.034841
     5  C    0.048482  -0.027048
     6  C   -0.312933   0.000477
     7  C   -0.118621  -0.030967
     8  N   -0.012625   0.043473
     9  C   -0.523602   0.103419
    10  C    0.365506  -0.039846
    11  C   -0.703249   0.166189
    12  C    0.740112  -0.050954
    13  C   -0.291658   0.249790
    14  N   -0.058459  -0.026815
    15  C   -0.289085   0.031472
    16  O   -0.309215  -0.010932
    17  N   -0.309238   0.197228
    18  O   -0.133163   0.166504
    19  O   -0.115209   0.173382
    20  H    0.134060  -0.000624
    21  H    0.153339   0.000214
    22  H    0.152108  -0.000537
    23  H    0.197647   0.000383
    24  H    0.158426  -0.000407
    25  H    0.271509   0.000124
    26  H    0.160282   0.009519
    27  H    0.278032   0.000427
    28  H    0.226943  -0.007135
    29  H    0.188703  -0.023155
    30  H    0.096761  -0.001642
 Sum of Mulliken charges =  -1.00000   1.00000

 Dipole moment (field-independent basis, Debye):
    X=              9.9017    Y=             -3.4281    Z=             -0.5384  Tot=             10.4921
 Quadrupole moment (field-independent basis, Debye-Ang):
   XX=           -157.4095   YY=           -153.4973   ZZ=           -120.2460
   XY=            -11.0096   XZ=              0.8707   YZ=              6.5332

 Summary of Natural Population Analysis:

                                       Natural Population
                Natural  -----------------------------------------------
    Atom  No    Charge         Core      Valence    Rydberg      Total
 -----------------------------------------------------------------------
      C    1   -0.10759      0.99958     2.09894    0.00908     3.10759
      C    2   -0.10357      0.99958     2.09477    0.00922     3.10357
      C    3   -0.09772      0.99952     2.08941    0.00879     3.09772
      C    4   -0.01532      0.99950     2.00703    0.00879     3.01532
      C    5   -0.09792      0.99952     2.08992    0.00848     3.09792
      C    6   -0.10125      0.99958     2.09252    0.00916     3.10125
      C    7   -0.09696      0.99958     2.08639    0.01099     3.09696
      N    8   -0.28067      0.99964     2.76780    0.01322     3.78067
      C    9    0.24735      0.99951     1.73972    0.01342     2.75265
      C   10   -0.01198      0.99938     1.99775    0.01485     3.01198
      C   11   -0.02690      0.99951     2.01859    0.00880     3.02690
      C   12   -0.14897      0.99948     2.14102    0.00847     3.14897
      C   13    0.13939      0.99957     1.84772    0.01332     2.86061
      N   14   -0.26942      0.99968     2.75931    0.01043     3.76942
      C   15    0.21133      0.99968     1.76854    0.02045     2.78867
      O   16   -0.30546      0.99988     3.29794    0.00764     4.30546
      N   17    0.30323      0.99971     2.16987    0.02719     3.19677
      O   18   -0.19933      0.99990     3.19188    0.00755     4.19933
      O   19   -0.19773      0.99990     3.18902    0.00881     4.19773
      H   20    0.09733      0.00000     0.40175    0.00093     0.40267
      H   21    0.09783      0.00000     0.40122    0.00095     0.40217
      H   22    0.10280      0.00000     0.39611    0.00108     0.39720
      H   23    0.10719      0.00000     0.39185    0.00096     0.39281
      H   24    0.09875      0.00000     0.40031    0.00094     0.40125
      H   25    0.11233      0.00000     0.38645    0.00122     0.38767
      H   26    0.10602      0.00000     0.39263    0.00135     0.39398
      H   27    0.19206      0.00000     0.30622    0.00172     0.30794
      H   28    0.11307      0.00000     0.38552    0.00142     0.38693
      H   29    0.08823      0.00000     0.41048    0.00129     0.41177
      H   30    0.04389      0.00000     0.45361    0.00249     0.45611
 =======================================================================
   * Total *    0.00000     18.99269    47.77429    0.23302    67.00000

 Normal termination of Gaussian 16 at Mon Dec 14 18:30:32 2020.
