 Gaussian 16, Revision A.03,

 -----------------------------------------------------------
 # opt freq B3LYP/6-31G(d) empiricaldispersion=gd3bj scf=xqc
 -----------------------------------------------------------

 -----------------------------
 CID_123448381_JID_82_neutraal
 -----------------------------
 Symbolic Z-matrix:
 Charge =  0 Multiplicity = 1

 SCF Done:  E(RB3LYP) =  -391.911513682     A.U. after   13 cycles
 SCF Done:  E(RB3LYP) =  -391.917288378     A.U. after   11 cycles
 SCF Done:  E(RB3LYP) =  -391.917735539     A.U. after   10 cycles
 SCF Done:  E(RB3LYP) =  -391.918369918     A.U. after   10 cycles
 SCF Done:  E(RB3LYP) =  -391.918974286     A.U. after   10 cycles
 SCF Done:  E(RB3LYP) =  -391.919224312     A.U. after   11 cycles
 SCF Done:  E(RB3LYP) =  -391.921515902     A.U. after   10 cycles
 SCF Done:  E(RB3LYP) =  -391.927347599     A.U. after   11 cycles
 SCF Done:  E(RB3LYP) =  -391.914939109     A.U. after   13 cycles
 SCF Done:  E(RB3LYP) =  -391.929055358     A.U. after   11 cycles
 SCF Done:  E(RB3LYP) =  -391.931254490     A.U. after    9 cycles
 SCF Done:  E(RB3LYP) =  -391.931274359     A.U. after    9 cycles
 SCF Done:  E(RB3LYP) =  -391.931279143     A.U. after    8 cycles
 SCF Done:  E(RB3LYP) =  -391.931281294     A.U. after    7 cycles
 SCF Done:  E(RB3LYP) =  -391.931281581     A.U. after    6 cycles
 SCF Done:  E(RB3LYP) =  -391.931281626     A.U. after    6 cycles
 Optimization completed.
    -- Stationary point found.
 Normal termination of Gaussian 16 at Tue Dec  8 10:20:13 2020.

 --------------------------------------------------------------------
 #N Geom=AllCheck Guess=TCheck SCRF=Check GenChk RB3LYP/6-31G(d) Freq
 --------------------------------------------------------------------

 Structure from the checkpoint file:  "JID_82.chk"
 -----------------------------
 CID_123448381_JID_82_neutraal
 -----------------------------
 Charge =  0 Multiplicity = 1

 SCF Done:  E(RB3LYP) =  -391.931281626     A.U. after    1 cycles

  Exact polarizability: 111.128  -1.460  98.577   1.501  -0.645  89.777
 Approx polarizability: 138.381  -0.730 139.227   3.931  -1.225 135.694

                      1                      2                      3
                      A                      A                      A
 Frequencies --     96.6915               115.1760               153.2469
 Red. masses --      2.4351                 2.2952                 2.1363
 Frc consts  --      0.0134                 0.0179                 0.0296
 IR Inten    --      0.0089                 0.0194                 0.0118

                      4                      5                      6
                      A                      A                      A
 Frequencies --    176.3957               190.8089               219.5689
 Red. masses --      1.2124                 1.5435                 1.3175
 Frc consts  --      0.0222                 0.0331                 0.0374
 IR Inten    --      0.0381                 0.0542                 0.0354

                      7                      8                      9
                      A                      A                      A
 Frequencies --    243.3275               264.6750               275.9323
 Red. masses --      1.1738                 2.3791                 2.0489
 Frc consts  --      0.0409                 0.0982                 0.0919
 IR Inten    --      0.0158                 0.0382                 0.0714

                     10                     11                     12
                      A                      A                      A
 Frequencies --    355.9869               374.5041               416.6220
 Red. masses --      2.6311                 2.3020                 2.2656
 Frc consts  --      0.1964                 0.1902                 0.2317
 IR Inten    --      0.2307                 0.7695                 0.0636

                     13                     14                     15
                      A                      A                      A
 Frequencies --    439.6453               499.3213               654.0807
 Red. masses --      2.4983                 2.8765                 3.1186
 Frc consts  --      0.2845                 0.4225                 0.7861
 IR Inten    --      1.3520                 0.3028                 0.2198

                     16                     17                     18
                      A                      A                      A
 Frequencies --    673.7726               704.8270               783.8640
 Red. masses --      2.8145                 3.1301                 1.3362
 Frc consts  --      0.7528                 0.9162                 0.4837
 IR Inten    --      0.1414                 0.5520                 2.0602

                     19                     20                     21
                      A                      A                      A
 Frequencies --    806.6159               830.6417               871.3900
 Red. masses --      2.4921                 1.7989                 1.6210
 Frc consts  --      0.9553                 0.7313                 0.7252
 IR Inten    --      2.9976                 2.8313                 0.4962

                     22                     23                     24
                      A                      A                      A
 Frequencies --    897.6054               940.4139               974.6983
 Red. masses --      1.8703                 2.2818                 1.8183
 Frc consts  --      0.8878                 1.1890                 1.0178
 IR Inten    --      3.8677                 1.2746                 2.5758

                     25                     26                     27
                      A                      A                      A
 Frequencies --    979.5942               995.7600              1005.5954
 Red. masses --      1.4283                 1.8238                 1.6540
 Frc consts  --      0.8075                 1.0655                 0.9855
 IR Inten    --      2.4358                 4.6438                 2.4295

                     28                     29                     30
                      A                      A                      A
 Frequencies --   1016.1707              1029.4314              1073.2972
 Red. masses --      1.7523                 1.4292                 2.2156
 Frc consts  --      1.0661                 0.8923                 1.5037
 IR Inten    --      0.2211                 0.0926                 0.1403

                     31                     32                     33
                      A                      A                      A
 Frequencies --   1080.6345              1101.8846              1114.6506
 Red. masses --      1.5966                 1.2108                 1.5962
 Frc consts  --      1.0985                 0.8662                 1.1685
 IR Inten    --      0.2807                 0.0040                 0.2806

                     34                     35                     36
                      A                      A                      A
 Frequencies --   1160.2937              1162.1263              1178.0572
 Red. masses --      2.1901                 1.8518                 2.1196
 Frc consts  --      1.7372                 1.4735                 1.7331
 IR Inten    --      0.1951                 0.5789                 6.9120

                     37                     38                     39
                      A                      A                      A
 Frequencies --   1217.6757              1230.1787              1250.9455
 Red. masses --      1.6073                 2.0996                 1.2744
 Frc consts  --      1.4041                 1.8721                 1.1749
 IR Inten    --      0.1584                 1.9362                 0.3902

                     40                     41                     42
                      A                      A                      A
 Frequencies --   1296.6821              1328.8384              1329.9507
 Red. masses --      1.2821                 1.3316                 1.3639
 Frc consts  --      1.2701                 1.3854                 1.4214
 IR Inten    --      0.2463                 4.2582                 2.4826

                     43                     44                     45
                      A                      A                      A
 Frequencies --   1344.2457              1346.5304              1359.2712
 Red. masses --      1.6132                 1.4713                 1.4256
 Frc consts  --      1.7175                 1.5718                 1.5519
 IR Inten    --      1.5750                 1.4467                 0.4958

                     46                     47                     48
                      A                      A                      A
 Frequencies --   1383.0059              1409.6687              1437.4033
 Red. masses --      1.5093                 1.5634                 1.3105
 Frc consts  --      1.7008                 1.8305                 1.5953
 IR Inten    --      2.2089                 0.3145                 2.6849

                     49                     50                     51
                      A                      A                      A
 Frequencies --   1440.2209              1446.6141              1464.8357
 Red. masses --      1.2749                 1.6843                 1.6303
 Frc consts  --      1.5581                 2.0767                 2.0610
 IR Inten    --      2.2957                 0.6053                 0.4161

                     52                     53                     54
                      A                      A                      A
 Frequencies --   1512.7131              1517.7811              1519.7386
 Red. masses --      1.0512                 1.0639                 1.0566
 Frc consts  --      1.4173                 1.4439                 1.4378
 IR Inten    --      0.2402                 0.5180                 0.7756

                     55                     56                     57
                      A                      A                      A
 Frequencies --   1523.7245              1530.4336              1535.4159
 Red. masses --      1.0645                 1.0443                 1.0511
 Frc consts  --      1.4561                 1.4411                 1.4600
 IR Inten    --      3.8277                 6.9972                 5.1124

                     58                     59                     60
                      A                      A                      A
 Frequencies --   1539.2653              1539.4752              1553.7135
 Red. masses --      1.0925                 1.0865                 1.0904
 Frc consts  --      1.5251                 1.5172                 1.5509
 IR Inten    --      3.9387                 0.4137                 2.9388

                     61                     62                     63
                      A                      A                      A
 Frequencies --   2998.6228              3031.9634              3037.0303
 Red. masses --      1.0835                 1.0364                 1.0626
 Frc consts  --      5.7400                 5.6131                 5.7745
 IR Inten    --     29.4204                33.2876                20.8031

                     64                     65                     66
                      A                      A                      A
 Frequencies --   3040.8402              3042.5283              3046.0613
 Red. masses --      1.0442                 1.0363                 1.0590
 Frc consts  --      5.6889                 5.6520                 5.7895
 IR Inten    --     64.2045                27.7611                44.9122

                     67                     68                     69
                      A                      A                      A
 Frequencies --   3067.6199              3072.9429              3076.4261
 Red. masses --      1.0695                 1.0984                 1.0976
 Frc consts  --      5.9297                 6.1113                 6.1207
 IR Inten    --     18.6415                21.6462                19.5662

                     70                     71                     72
                      A                      A                      A
 Frequencies --   3086.6327              3091.4514              3104.2171
 Red. masses --      1.1014                 1.1015                 1.1043
 Frc consts  --      6.1824                 6.2021                 6.2697
 IR Inten    --      4.6808                58.6132                38.8897

                     73                     74                     75
                      A                      A                      A
 Frequencies --   3108.4871              3109.6717              3113.7146
 Red. masses --      1.1018                 1.1012                 1.1022
 Frc consts  --      6.2726                 6.2739                 6.2959
 IR Inten    --     54.7205                48.3123                47.1871

                     76                     77                     78
                      A                      A                      A
 Frequencies --   3147.6991              3158.9900              3172.6971
 Red. masses --      1.0879                 1.0915                 1.0917
 Frc consts  --      6.3507                 6.4177                 6.4744
 IR Inten    --     20.9468                36.8201                22.8877

 - Thermochemistry -
 -------------------
 Temperature   298.150 Kelvin.  Pressure   1.00000 Atm.
 Atom     1 has atomic number  6 and mass  12.00000

 Molecular mass:   138.14085 amu.
 Principal axes and moments of inertia in atomic units:
                           1         2         3
     Eigenvalues --   877.404181888.807112194.82717
           X            0.99997  -0.00667  -0.00244
           Y            0.00667   0.99998   0.00076
           Z            0.00243  -0.00077   1.00000
 This molecule is an asymmetric top.
 Rotational symmetry number  1.
 Warning -- assumption of classical behavior for rotation
           may cause significant error
 Rotational temperatures (Kelvin)      0.09872     0.04586     0.03946
 Rotational constants (GHZ):           2.05691     0.95549     0.82227
 Zero-point vibrational energy     684402.9 (Joules/Mol)
                                  163.57622 (Kcal/Mol)
 Warning -- explicit consideration of  14 degrees of freedom as
           vibrations may cause significant error
 Vibrational temperatures:    139.12   165.71   220.49   253.79   274.53
          (Kelvin)            315.91   350.09   380.81   397.01   512.19
                              538.83   599.43   632.55   718.41   941.08
                              969.41  1014.09  1127.81  1160.54  1195.11
                             1253.74  1291.45  1353.05  1402.37  1409.42
                             1432.68  1446.83  1462.04  1481.12  1544.24
                             1554.79  1585.37  1603.73  1669.40  1672.04
                             1694.96  1751.96  1769.95  1799.83  1865.64
                             1911.90  1913.50  1934.07  1937.36  1955.69
                             1989.84  2028.20  2068.10  2072.16  2081.36
                             2107.57  2176.46  2183.75  2186.56  2192.30
                             2201.95  2209.12  2214.66  2214.96  2235.45
                             4314.35  4362.32  4369.61  4375.09  4377.52
                             4382.60  4413.62  4421.28  4426.29  4440.98
                             4447.91  4466.28  4472.42  4474.12  4479.94
                             4528.84  4545.08  4564.80

 Zero-point correction=                           0.260675 (Hartree/Particle)
 Thermal correction to Energy=                    0.271512
 Thermal correction to Enthalpy=                  0.272456
 Thermal correction to Gibbs Free Energy=         0.225310
 Sum of electronic and zero-point Energies=           -391.670606
 Sum of electronic and thermal Energies=              -391.659770
 Sum of electronic and thermal Enthalpies=            -391.658826
 Sum of electronic and thermal Free Energies=         -391.705972

                     E (Thermal)             CV                S
                      KCal/Mol        Cal/Mol-Kelvin    Cal/Mol-Kelvin
 Total                  170.376             42.326             99.227
 Electronic               0.000              0.000              0.000
 Translational            0.889              2.981             40.681
 Rotational               0.889              2.981             29.677
 Vibrational            168.599             36.365             28.869
 Vibration     1          0.603              1.952              3.520
 Vibration     2          0.608              1.937              3.180
 Vibration     3          0.619              1.899              2.632
 Vibration     4          0.628              1.871              2.366
 Vibration     5          0.634              1.853              2.220
 Vibration     6          0.647              1.811              1.963
 Vibration     7          0.659              1.774              1.778
 Vibration     8          0.671              1.738              1.631
 Vibration     9          0.678              1.718              1.559
 Vibration    10          0.731              1.563              1.140
 Vibration    11          0.746              1.524              1.061
 Vibration    12          0.780              1.434              0.904
 Vibration    13          0.800              1.384              0.828
 Vibration    14          0.855              1.252              0.660

 Optimization completed.
    -- Stationary point found.
 Normal termination of Gaussian 16 at Tue Dec  8 10:25:38 2020.

 ----------------------------------------------------------------------
 # B3LYP/6-311++G(d,p) empiricaldispersion=gd3bj scf=xqc pop=npa geom=c
 heck
 ----------------------------------------------------------------------

 -------------------------------------
 CID_123448381_JID_82_Energie_neutraal
 -------------------------------------
 Structure from the checkpoint file:  "JID_82.chk"
 Charge =  0 Multiplicity = 1

 SCF Done:  E(RB3LYP) =  -392.035787189     A.U. after   13 cycles
 Normal termination of Gaussian 16 at Tue Dec  8 10:27:35 2020.

 ----------------------------------------------------------------------
 # B3LYP/6-311++G(d,p) empiricaldispersion=gd3bj scf=xqc pop=npa geom=c
 heck
 ----------------------------------------------------------------------

 -----------------------------------
 CID_123448381_JID_82_Energie_kation
 -----------------------------------
 Structure from the checkpoint file:  "JID_82.chk"
 Charge =  1 Multiplicity = 2

 SCF Done:  E(UB3LYP) =  -391.706087179     A.U. after   31 cycles
 Normal termination of Gaussian 16 at Tue Dec  8 10:34:50 2020.
 Gaussian 16:  ES64L-G16RevA.03 25-Dec-2016

 ----------------------------------------------------------------------
 # B3LYP/6-311++G(d,p) empiricaldispersion=gd3bj scf=xqc pop=npa geom=c
 heck
 ----------------------------------------------------------------------

 ----------------------------------
 CID_123448381_JID_82_Energie_anion
 ----------------------------------
 Structure from the checkpoint file:  "JID_82.chk"
 Charge = -1 Multiplicity = 2

                         Standard orientation:
 ---------------------------------------------------------------------
 Center     Atomic      Atomic             Coordinates (Angstroms)
 Number     Number       Type             X           Y           Z
 ---------------------------------------------------------------------
      1          6           0       -3.331773   -0.715532    0.066198
      2          6           0       -1.850087   -1.038608   -0.145856
      3          6           0       -1.027663    0.167156   -0.619342
      4          6           0       -0.974777    1.344711    0.391742
      5          6           0        0.417887    2.007704    0.229886
      6          6           0        1.304331    0.994500   -0.487782
      7          6           0        0.424798   -0.143726   -0.969382
      8          6           0        1.491795   -0.396433    0.082361
      9          6           0        1.212528   -0.733682    1.536662
     10          6           0        2.712829   -1.140478   -0.439749
     11          1           0       -3.467175    0.048255    0.840682
     12          1           0       -3.894864   -1.603737    0.373891
     13          1           0       -3.786860   -0.334286   -0.856527
     14          1           0       -1.419156   -1.426703    0.785726
     15          1           0       -1.754990   -1.844844   -0.885843
     16          1           0       -1.490689    0.537443   -1.547039
     17          1           0       -1.784085    2.060965    0.217433
     18          1           0       -1.116519    0.973320    1.412020
     19          1           0        0.830216    2.331464    1.193778
     20          1           0        0.340481    2.904742   -0.396052
     21          1           0        2.104449    1.387974   -1.111399
     22          1           0        0.595475   -0.603088   -1.941251
     23          1           0        2.102607   -0.524469    2.144300
     24          1           0        0.384585   -0.172056    1.968457
     25          1           0        0.984641   -1.801218    1.648387
     26          1           0        2.923489   -0.888113   -1.484760
     27          1           0        3.604318   -0.892770    0.150771
     28          1           0        2.564878   -2.226547   -0.380999
 ---------------------------------------------------------------------

 SCF Done:  E(UB3LYP) =  -392.017616569     A.U. after   26 cycles

 The electronic state is 2-A.
 Alpha  occ. eigenvalues --  -10.07439 -10.06197 -10.05876 -10.05775 -10.05754
 Alpha  occ. eigenvalues --  -10.05516 -10.05386 -10.05336 -10.05285 -10.05159
 Alpha  occ. eigenvalues --   -0.77604  -0.68869  -0.65099  -0.60953  -0.58762
 Alpha  occ. eigenvalues --   -0.57899  -0.51043  -0.47385  -0.43845  -0.40792
 Alpha  occ. eigenvalues --   -0.39148  -0.35323  -0.34435  -0.33174  -0.31813
 Alpha  occ. eigenvalues --   -0.30212  -0.29196  -0.28925  -0.28045  -0.27322
 Alpha  occ. eigenvalues --   -0.26385  -0.24997  -0.24061  -0.22974  -0.21872
 Alpha  occ. eigenvalues --   -0.21180  -0.20471  -0.15539  -0.15263   0.04793
 Alpha virt. eigenvalues --    0.07044   0.07522   0.07857   0.09224   0.09507
 Alpha virt. eigenvalues --    0.09852   0.10221   0.10501   0.12007   0.12141
 Alpha virt. eigenvalues --    0.12416   0.12753   0.13294   0.14074   0.14854

  Beta  occ. eigenvalues --  -10.07439 -10.06187 -10.05864 -10.05757 -10.05744
  Beta  occ. eigenvalues --  -10.05500 -10.05366 -10.05309 -10.05256 -10.05129
  Beta  occ. eigenvalues --   -0.77581  -0.68839  -0.65064  -0.60912  -0.58715
  Beta  occ. eigenvalues --   -0.57842  -0.50978  -0.47327  -0.43807  -0.40743
  Beta  occ. eigenvalues --   -0.39087  -0.35291  -0.34406  -0.33141  -0.31783
  Beta  occ. eigenvalues --   -0.30174  -0.29159  -0.28889  -0.28011  -0.27286
  Beta  occ. eigenvalues --   -0.26345  -0.24957  -0.24027  -0.22940  -0.21831
  Beta  occ. eigenvalues --   -0.21152  -0.20434  -0.15517  -0.15243
  Beta virt. eigenvalues --    0.06970   0.07850   0.08305   0.08573   0.09720
  Beta virt. eigenvalues --    0.10144   0.10353   0.10830   0.10956   0.12389
  Beta virt. eigenvalues --    0.12637   0.12875   0.13345   0.13699   0.14477

 Mulliken charges and spin densities:
               1          2
     1  C    0.891264  -1.539281
     2  C   -0.658137   0.403869
     3  C    0.432958  -0.415604
     4  C    0.031740  -0.335990
     5  C    0.934860  -1.821740
     6  C   -0.503849   0.643408
     7  C    0.890421  -0.828685
     8  C   -1.664085   1.849741
     9  C   -0.092793  -0.547187
    10  C    1.857913  -2.293809
    11  H   -0.257174   0.400002
    12  H   -0.384075   0.523543
    13  H   -0.126271   0.256360
    14  H    0.084771   0.046235
    15  H   -0.108396   0.251134
    16  H   -0.152546   0.339979
    17  H   -0.083934   0.250928
    18  H   -0.076994   0.217742
    19  H    0.052904   0.098223
    20  H   -0.402783   0.556535
    21  H   -0.534452   0.760350
    22  H   -0.355596   0.584207
    23  H   -0.123153   0.251449
    24  H    0.003857   0.140078
    25  H   -0.168671   0.310222
    26  H   -0.374673   0.511112
    27  H   -0.102792   0.236801
    28  H   -0.010316   0.150378
 Sum of Mulliken charges =  -1.00000   1.00000

 Dipole moment (field-independent basis, Debye):
    X=              0.5515    Y=             -0.3751    Z=              1.5474  Tot=              1.6851
 Quadrupole moment (field-independent basis, Debye-Ang):
   XX=           -126.3084   YY=           -106.3548   ZZ=           -104.0727
   XY=             -1.7165   XZ=              3.9774   YZ=              1.9176

 Summary of Natural Population Analysis:

                                       Natural Population
                Natural  -----------------------------------------------
    Atom  No    Charge         Core      Valence    Rydberg      Total
 -----------------------------------------------------------------------
      C    1   -0.28273      0.99967     2.27894    0.00412     3.28273
      C    2   -0.18558      0.99961     2.17730    0.00867     3.18558
      C    3   -0.10968      0.99958     2.09843    0.01166     3.10968
      C    4   -0.19110      0.99963     2.18332    0.00816     3.19110
      C    5   -0.19175      0.99963     2.18364    0.00848     3.19175
      C    6   -0.10355      0.99954     2.09319    0.01081     3.10355
      C    7   -0.09927      0.99953     2.08827    0.01147     3.09927
      C    8   -0.04696      0.99953     2.03510    0.01232     3.04696
      C    9   -0.28450      0.99962     2.27878    0.00610     3.28450
      C   10   -0.27602      0.99963     2.27010    0.00630     3.27602
      H   11    0.09629      0.00000     0.40245    0.00126     0.40371
      H   12    0.09725      0.00000     0.40162    0.00113     0.40275
      H   13    0.09503      0.00000     0.40362    0.00135     0.40497
      H   14    0.09473      0.00000     0.40367    0.00160     0.40527
      H   15    0.09475      0.00000     0.40397    0.00127     0.40525
      H   16    0.09673      0.00000     0.40143    0.00184     0.40327
      H   17    0.10222      0.00000     0.39663    0.00116     0.39778
      H   18    0.09333      0.00000     0.40522    0.00145     0.40667
      H   19    0.09792      0.00000     0.40095    0.00113     0.40208
      H   20    0.10019      0.00000     0.39848    0.00133     0.39981
      H   21    0.10307      0.00000     0.39528    0.00166     0.39693
      H   22    0.10479      0.00000     0.39362    0.00159     0.39521
      H   23    0.09819      0.00000     0.40082    0.00099     0.40181
      H   24    0.10221      0.00000     0.39641    0.00138     0.39779
      H   25    0.09919      0.00000     0.39970    0.00111     0.40081
      H   26    0.10091      0.00000     0.39767    0.00142     0.39909
      H   27    0.09695      0.00000     0.40197    0.00108     0.40305
      H   28    0.09739      0.00000     0.40157    0.00104     0.40261
 =======================================================================
   * Total *    0.00000      9.99598    28.89215    0.11188    39.00000

 Normal termination of Gaussian 16 at Tue Dec  8 10:44:25 2020.
