 Gaussian 16, Revision A.03,

 -----------------------------------------------------------
 # opt freq B3LYP/6-31G(d) empiricaldispersion=gd3bj scf=xqc
 -----------------------------------------------------------

 -------------------------------
 CID_101066879_JID_2700_neutraal
 -------------------------------
 Symbolic Z-matrix:
 Charge =  0 Multiplicity = 1

 SCF Done:  E(RB3LYP) =  -539.951952696     A.U. after   14 cycles
 SCF Done:  E(RB3LYP) =  -539.956975223     A.U. after   13 cycles
 SCF Done:  E(RB3LYP) =  -539.956852638     A.U. after   13 cycles
 SCF Done:  E(RB3LYP) =  -539.957853613     A.U. after   12 cycles
 SCF Done:  E(RB3LYP) =  -539.957947342     A.U. after   12 cycles
 SCF Done:  E(RB3LYP) =  -539.958140318     A.U. after   11 cycles
 SCF Done:  E(RB3LYP) =  -539.958219068     A.U. after   11 cycles
 SCF Done:  E(RB3LYP) =  -539.958268968     A.U. after   11 cycles
 SCF Done:  E(RB3LYP) =  -539.958312400     A.U. after   11 cycles
 SCF Done:  E(RB3LYP) =  -539.958298751     A.U. after   10 cycles
 SCF Done:  E(RB3LYP) =  -539.964273134     A.U. after   12 cycles
 SCF Done:  E(RB3LYP) =  -539.964379936     A.U. after   11 cycles
 SCF Done:  E(RB3LYP) =  -539.964403854     A.U. after   11 cycles
 SCF Done:  E(RB3LYP) =  -539.964408829     A.U. after    9 cycles
 SCF Done:  E(RB3LYP) =  -539.964410746     A.U. after    9 cycles
 SCF Done:  E(RB3LYP) =  -539.964411253     A.U. after    8 cycles
 Optimization completed.
    -- Stationary point found.
 Normal termination of Gaussian 16 at Wed Dec  9 17:57:04 2020.

 --------------------------------------------------------------------
 #N Geom=AllCheck Guess=TCheck SCRF=Check GenChk RB3LYP/6-31G(d) Freq
 --------------------------------------------------------------------

 Structure from the checkpoint file:  "JID_2700.chk"
 -------------------------------
 CID_101066879_JID_2700_neutraal
 -------------------------------
 Charge =  0 Multiplicity = 1

 SCF Done:  E(RB3LYP) =  -539.964411253     A.U. after    1 cycles

  Exact polarizability: 118.864  -6.535 103.424   4.676   0.667  88.555
 Approx polarizability: 165.838  -9.532 157.216  11.292   1.100 132.154

                      1                      2                      3
                      A                      A                      A
 Frequencies --     66.7784               102.0068               137.0270
 Red. masses --      4.1044                 2.6015                 2.0470
 Frc consts  --      0.0108                 0.0159                 0.0226
 IR Inten    --      2.9079                 2.6885                 0.8717

                      4                      5                      6
                      A                      A                      A
 Frequencies --    150.3449               217.5710               241.2823
 Red. masses --      2.5440                 1.7015                 1.9979
 Frc consts  --      0.0339                 0.0475                 0.0685
 IR Inten    --      0.9359                 1.2121                 1.7242

                      7                      8                      9
                      A                      A                      A
 Frequencies --    254.9063               293.5610               304.3410
 Red. masses --      2.7720                 2.9200                 2.3802
 Frc consts  --      0.1061                 0.1483                 0.1299
 IR Inten    --      5.8470                 0.8059                 1.7061

                     10                     11                     12
                      A                      A                      A
 Frequencies --    371.5236               382.8208               441.0960
 Red. masses --      2.5973                 3.5069                 3.7130
 Frc consts  --      0.2112                 0.3028                 0.4256
 IR Inten    --      0.7546                 2.4919                 1.3522

                     13                     14                     15
                      A                      A                      A
 Frequencies --    482.9155               509.7073               577.9830
 Red. masses --      2.4830                 4.2723                 4.1528
 Frc consts  --      0.3412                 0.6540                 0.8174
 IR Inten    --      3.5715                 8.5401                 7.4891

                     16                     17                     18
                      A                      A                      A
 Frequencies --    590.1011               643.4562               692.8134
 Red. masses --      3.6763                 2.8523                 2.9102
 Frc consts  --      0.7542                 0.6958                 0.8230
 IR Inten    --      5.5044                 0.4306                 4.4262

                     19                     20                     21
                      A                      A                      A
 Frequencies --    731.8424               807.8070               830.5271
 Red. masses --      2.2079                 2.6114                 1.6675
 Frc consts  --      0.6967                 1.0040                 0.6777
 IR Inten    --      4.9194                 1.6349                21.1693

                     22                     23                     24
                      A                      A                      A
 Frequencies --    890.9404               901.1683               909.6573
 Red. masses --      2.3138                 1.6651                 1.7794
 Frc consts  --      1.0821                 0.7967                 0.8675
 IR Inten    --      2.9054                 3.5558                19.7112

                     25                     26                     27
                      A                      A                      A
 Frequencies --    928.3015               936.1777               969.3426
 Red. masses --      2.2577                 2.0978                 3.6823
 Frc consts  --      1.1463                 1.0833                 2.0386
 IR Inten    --      2.1922                15.0602                21.7931

                     28                     29                     30
                      A                      A                      A
 Frequencies --   1010.1930              1039.4218              1063.2684
 Red. masses --      1.9711                 1.7936                 2.1906
 Frc consts  --      1.1851                 1.1417                 1.4591
 IR Inten    --      1.7996                 2.5364                 0.4787

                     31                     32                     33
                      A                      A                      A
 Frequencies --   1110.7465              1123.1626              1137.7633
 Red. masses --      2.1637                 4.7408                 2.2932
 Frc consts  --      1.5728                 3.5236                 1.7490
 IR Inten    --      4.3645               111.0030                11.2927

                     34                     35                     36
                      A                      A                      A
 Frequencies --   1147.6710              1182.1828              1193.9083
 Red. masses --      1.4854                 1.8454                 1.2773
 Frc consts  --      1.1527                 1.5196                 1.0727
 IR Inten    --      6.1608                50.2975                 1.8736

                     37                     38                     39
                      A                      A                      A
 Frequencies --   1204.9979              1224.2508              1238.5221
 Red. masses --      1.7445                 1.5563                 1.5038
 Frc consts  --      1.4924                 1.3743                 1.3591
 IR Inten    --     11.1690                22.5621                 5.2650

                     40                     41                     42
                      A                      A                      A
 Frequencies --   1253.8836              1278.0474              1302.7736
 Red. masses --      1.5060                 1.5639                 1.4779
 Frc consts  --      1.3951                 1.5050                 1.4779
 IR Inten    --      8.1554                31.9327                15.5189

                     43                     44                     45
                      A                      A                      A
 Frequencies --   1329.2198              1339.6766              1364.6117
 Red. masses --      1.8199                 1.6347                 1.4893
 Frc consts  --      1.8944                 1.7286                 1.6340
 IR Inten    --     26.9552                 3.6251                 9.4011

                     46                     47                     48
                      A                      A                      A
 Frequencies --   1371.1528              1390.3093              1396.4395
 Red. masses --      1.9836                 1.5537                 1.4499
 Frc consts  --      2.1972                 1.7695                 1.6659
 IR Inten    --     10.7962                 1.3196                 2.2126

                     49                     50                     51
                      A                      A                      A
 Frequencies --   1482.1978              1499.2999              1501.3509
 Red. masses --      1.0841                 1.1411                 1.0808
 Frc consts  --      1.4032                 1.5113                 1.4353
 IR Inten    --      5.1845                 1.2542                 2.7068

                     52                     53                     54
                      A                      A                      A
 Frequencies --   1506.3607              1514.6399              1525.3585
 Red. masses --      1.0913                 1.0682                 1.0900
 Frc consts  --      1.4590                 1.4439                 1.4942
 IR Inten    --      4.1227                 1.3687                 7.1062

                     55                     56                     57
                      A                      A                      A
 Frequencies --   1529.7644              1544.4550              1699.2218
 Red. masses --      1.0789                 1.0539                 8.1218
 Frc consts  --      1.4876                 1.4811                13.8167
 IR Inten    --     12.6663                11.1282               100.0665

                     58                     59                     60
                      A                      A                      A
 Frequencies --   1784.1242              3013.5157              3014.1463
 Red. masses --     11.9608                 1.0690                 1.0415
 Frc consts  --     22.4317                 5.7197                 5.5747
 IR Inten    --    151.7993                19.5172                37.4807

                     61                     62                     63
                      A                      A                      A
 Frequencies --   3032.7345              3046.4321              3066.0643
 Red. masses --      1.0668                 1.0624                 1.0649
 Frc consts  --      5.7811                 5.8093                 5.8985
 IR Inten    --     35.6735                18.7465                34.8576

                     64                     65                     66
                      A                      A                      A
 Frequencies --   3069.2285              3072.9722              3082.1895
 Red. masses --      1.0857                 1.0990                 1.0723
 Frc consts  --      6.0260                 6.1148                 6.0018
 IR Inten    --     13.7680                39.0364                37.8300

                     67                     68                     69
                      A                      A                      A
 Frequencies --   3094.9135              3108.3713              3119.2798
 Red. masses --      1.1012                 1.0923                 1.0994
 Frc consts  --      6.2143                 6.2181                 6.3026
 IR Inten    --     25.1159                17.3318                21.3704

                     70                     71                     72
                      A                      A                      A
 Frequencies --   3126.8671              3137.2463              3216.2119
 Red. masses --      1.1032                 1.0995                 1.0934
 Frc consts  --      6.3550                 6.3758                 6.6639
 IR Inten    --     31.3235                28.0943                 5.4007

 - Thermochemistry -
 -------------------
 Temperature   298.150 Kelvin.  Pressure   1.00000 Atm.
 Atom     1 has atomic number  6 and mass  12.00000

 Molecular mass:   166.09938 amu.
 Principal axes and moments of inertia in atomic units:
                           1         2         3
     Eigenvalues --  1420.129671950.495772379.48937
           X            0.99651  -0.08178  -0.01692
           Y            0.08183   0.99664   0.00223
           Z            0.01668  -0.00361   0.99985
 This molecule is an asymmetric top.
 Rotational symmetry number  1.
 Warning -- assumption of classical behavior for rotation
           may cause significant error
 Rotational temperatures (Kelvin)      0.06099     0.04441     0.03640
 Rotational constants (GHZ):           1.27083     0.92527     0.75846
 Zero-point vibrational energy     591285.1 (Joules/Mol)
                                  141.32053 (Kcal/Mol)
 Warning -- explicit consideration of  16 degrees of freedom as
           vibrations may cause significant error
 Vibrational temperatures:     96.08   146.77   197.15   216.31   313.04
          (Kelvin)            347.15   366.75   422.37   437.88   534.54
                              550.79   634.64   694.81   733.36   831.59
                              849.02   925.79   996.80  1052.96  1162.25
                             1194.94  1281.86  1296.58  1308.79  1335.62
                             1346.95  1394.67  1453.44  1495.50  1529.81
                             1598.12  1615.98  1636.99  1651.24  1700.90
                             1717.77  1733.72  1761.42  1781.96  1804.06
                             1838.83  1874.40  1912.45  1927.50  1963.37
                             1972.78  2000.34  2009.16  2132.55  2157.16
                             2160.11  2167.32  2179.23  2194.65  2200.99
                             2222.13  2444.80  2566.96  4335.78  4336.68
                             4363.43  4383.14  4411.38  4415.94  4421.32
                             4434.58  4452.89  4472.25  4487.95  4498.86
                             4513.80  4627.41

 Zero-point correction=                           0.225209 (Hartree/Particle)
 Thermal correction to Energy=                    0.236158
 Thermal correction to Enthalpy=                  0.237102
 Thermal correction to Gibbs Free Energy=         0.188971
 Sum of electronic and zero-point Energies=           -539.739203
 Sum of electronic and thermal Energies=              -539.728253
 Sum of electronic and thermal Enthalpies=            -539.727309
 Sum of electronic and thermal Free Energies=         -539.775441

                     E (Thermal)             CV                S
                      KCal/Mol        Cal/Mol-Kelvin    Cal/Mol-Kelvin
 Total                  148.192             42.949            101.302
 Electronic               0.000              0.000              0.000
 Translational            0.889              2.981             41.231
 Rotational               0.889              2.981             30.267
 Vibrational            146.414             36.988             29.804
 Vibration     1          0.598              1.970              4.246
 Vibration     2          0.604              1.948              3.416
 Vibration     3          0.614              1.916              2.845
 Vibration     4          0.618              1.902              2.668
 Vibration     5          0.646              1.814              1.979
 Vibration     6          0.658              1.777              1.793
 Vibration     7          0.665              1.755              1.696
 Vibration     8          0.688              1.686              1.453
 Vibration     9          0.695              1.665              1.393
 Vibration    10          0.743              1.531              1.073
 Vibration    11          0.752              1.507              1.028
 Vibration    12          0.801              1.381              0.823
 Vibration    13          0.839              1.288              0.702
 Vibration    14          0.865              1.228              0.634
 Vibration    15          0.935              1.079              0.489
 Vibration    16          0.947              1.053              0.467

                           ! Non-Optimized Parameters !
 Normal termination of Gaussian 16 at Wed Dec  9 18:03:50 2020.

 ----------------------------------------------------------------------
 # B3LYP/6-311++G(d,p) empiricaldispersion=gd3bj scf=xqc pop=npa geom=c
 heck
 ----------------------------------------------------------------------

 ---------------------------------------
 CID_101066879_JID_2700_Energie_neutraal
 ---------------------------------------
 Structure from the checkpoint file:  "JID_2700.chk"
 Charge =  0 Multiplicity = 1

 SCF Done:  E(RB3LYP) =  -540.115391213     A.U. after   15 cycles
 Normal termination of Gaussian 16 at Wed Dec  9 18:06:55 2020.

 ----------------------------------------------------------------------
 # B3LYP/6-311++G(d,p) empiricaldispersion=gd3bj scf=xqc pop=npa geom=c
 heck
 ----------------------------------------------------------------------

 -------------------------------------
 CID_101066879_JID_2700_Energie_kation
 -------------------------------------
 Structure from the checkpoint file:  "JID_2700.chk"
 Charge =  1 Multiplicity = 2

 SCF Done:  E(UB3LYP) =  -539.796069170     A.U. after   25 cycles
 Normal termination of Gaussian 16 at Wed Dec  9 18:15:39 2020.
 Gaussian 16:  ES64L-G16RevA.03 25-Dec-2016

 ----------------------------------------------------------------------
 # B3LYP/6-311++G(d,p) empiricaldispersion=gd3bj scf=xqc pop=npa geom=c
 heck
 ----------------------------------------------------------------------

 ------------------------------------
 CID_101066879_JID_2700_Energie_anion
 ------------------------------------
 Structure from the checkpoint file:  "JID_2700.chk"
 Charge = -1 Multiplicity = 2

                         Standard orientation:
 ---------------------------------------------------------------------
 Center     Atomic      Atomic             Coordinates (Angstroms)
 Number     Number       Type             X           Y           Z
 ---------------------------------------------------------------------
      1          6           0       -1.499276   -0.564785    1.964459
      2          8           0       -0.675357   -1.244819    1.037632
      3          6           0       -0.517379   -0.646284   -0.264924
      4          6           0        0.487605   -1.563370   -0.964063
      5          6           0        1.843573   -1.503972   -0.245269
      6          6           0        2.428421   -0.080809   -0.233879
      7          6           0        1.455020    1.018584    0.184588
      8          8           0        1.837396    2.069173    0.675975
      9          6           0        0.032465    0.764831   -0.149765
     10          6           0       -0.898039    1.689566   -0.422270
     11          6           0       -2.211611    1.072474   -0.830371
     12          6           0       -1.868218   -0.431316   -0.997282
     13          1           0       -1.158510    0.461669    2.151634
     14          1           0       -1.442859   -1.133282    2.896115
     15          1           0       -2.549831   -0.532623    1.639961
     16          1           0        0.595951   -1.238837   -2.007212
     17          1           0        0.098393   -2.587791   -0.971042
     18          1           0        2.556086   -2.183363   -0.726716
     19          1           0        1.705905   -1.854169    0.782074
     20          1           0        3.321411   -0.004331    0.394061
     21          1           0        2.741850    0.186991   -1.255771
     22          1           0       -0.724130    2.760551   -0.373820
     23          1           0       -2.976775    1.249126   -0.060664
     24          1           0       -2.601597    1.516678   -1.754273
     25          1           0       -2.639390   -1.103207   -0.610863
     26          1           0       -1.738189   -0.661769   -2.059692
 ---------------------------------------------------------------------

 SCF Done:  E(UB3LYP) =  -540.114751845     A.U. after   32 cycles

 The electronic state is 2-A.
 Alpha  occ. eigenvalues --  -18.98921 -18.90973 -10.08784 -10.08499 -10.05412
 Alpha  occ. eigenvalues --  -10.03994 -10.03860 -10.03575 -10.03250 -10.01912
 Alpha  occ. eigenvalues --  -10.00124  -9.99493  -0.90043  -0.84833  -0.70568
 Alpha  occ. eigenvalues --   -0.66031  -0.60117  -0.57734  -0.54719  -0.53301
 Alpha  occ. eigenvalues --   -0.46480  -0.42959  -0.42726  -0.38326  -0.35283
 Alpha  occ. eigenvalues --   -0.32616  -0.32289  -0.31066  -0.30482  -0.29547
 Alpha  occ. eigenvalues --   -0.28770  -0.26176  -0.25153  -0.24634  -0.23734
 Alpha  occ. eigenvalues --   -0.22871  -0.22071  -0.21152  -0.20305  -0.18818
 Alpha  occ. eigenvalues --   -0.18381  -0.16802  -0.12659  -0.10511  -0.06851
 Alpha  occ. eigenvalues --    0.05763
 Alpha virt. eigenvalues --    0.08459   0.08841   0.09639   0.10502   0.11160
 Alpha virt. eigenvalues --    0.11698   0.12205   0.12800   0.13464   0.14063
 Alpha virt. eigenvalues --    0.14629   0.15062   0.15641   0.16029   0.17441

  Beta  occ. eigenvalues --  -18.98890 -18.90527 -10.08782 -10.08494 -10.05074
  Beta  occ. eigenvalues --  -10.03983 -10.03892 -10.03573 -10.03239 -10.01946
  Beta  occ. eigenvalues --   -9.99689  -9.99449  -0.89990  -0.83995  -0.70357
  Beta  occ. eigenvalues --   -0.65887  -0.59891  -0.57456  -0.54624  -0.52990
  Beta  occ. eigenvalues --   -0.46333  -0.42782  -0.42055  -0.38106  -0.35179
  Beta  occ. eigenvalues --   -0.32473  -0.32170  -0.30801  -0.30296  -0.29349
  Beta  occ. eigenvalues --   -0.28563  -0.25827  -0.24993  -0.24309  -0.23439
  Beta  occ. eigenvalues --   -0.22554  -0.21727  -0.20962  -0.20120  -0.18710
  Beta  occ. eigenvalues --   -0.17504  -0.16031  -0.12536  -0.08692  -0.06443
  Beta virt. eigenvalues --    0.08319   0.09030   0.09552   0.10449   0.11230
  Beta virt. eigenvalues --    0.11515   0.12053   0.12395   0.12869   0.13632
  Beta virt. eigenvalues --    0.14228   0.14665   0.15009   0.15543   0.16013

 Mulliken charges and spin densities:
               1          2
     1  C   -0.245432  -0.051802
     2  O   -0.007068   0.017240
     3  C   -0.510531   0.316299
     4  C    0.135610  -0.345730
     5  C   -0.511062   0.349370
     6  C    0.241486  -0.579435
     7  C   -0.291017   0.041049
     8  O   -0.408613   0.170576
     9  C    0.887089  -0.047714
    10  C   -0.888752   0.709912
    11  C   -0.194723   0.015222
    12  C   -0.064413  -0.651598
    13  H    0.184620   0.001089
    14  H    0.116456  -0.000511
    15  H    0.061334   0.056632
    16  H   -0.080864   0.217301
    17  H    0.109169   0.033005
    18  H   -0.111511   0.265315
    19  H    0.153539  -0.008750
    20  H    0.168902  -0.033739
    21  H   -0.143776   0.295056
    22  H    0.110945   0.020993
    23  H    0.039158   0.072010
    24  H    0.110669   0.022619
    25  H    0.108825   0.029096
    26  H    0.029960   0.086495
 Sum of Mulliken charges =  -1.00000   1.00000

 Dipole moment (field-independent basis, Debye):
    X=             -4.2759    Y=             -3.6217    Z=              0.4473  Tot=              5.6215
 Quadrupole moment (field-independent basis, Debye-Ang):
   XX=           -101.0751   YY=           -101.2654   ZZ=            -88.4590
   XY=             -7.1983   XZ=              0.5491   YZ=             -3.3693

 Summary of Natural Population Analysis:

                                       Natural Population
                Natural  -----------------------------------------------
    Atom  No    Charge         Core      Valence    Rydberg      Total
 -----------------------------------------------------------------------
      C    1   -0.10022      0.99960     2.09198    0.00864     3.10022
      O    2   -0.31199      0.99987     3.30148    0.01064     4.31199
      C    3    0.13631      0.99945     1.84642    0.01782     2.86369
      C    4   -0.19194      0.99957     2.18080    0.01157     3.19194
      C    5   -0.18948      0.99963     2.18016    0.00969     3.18948
      C    6   -0.22978      0.99960     2.22091    0.00927     3.22978
      C    7    0.31287      0.99958     1.66463    0.02291     2.68713
      O    8   -0.26735      0.99988     3.26149    0.00598     4.26735
      C    9   -0.08627      0.99938     2.07347    0.01342     3.08627
      C   10    0.02397      0.99947     1.96707    0.00950     2.97603
      C   11   -0.21024      0.99964     2.20296    0.00763     3.21024
      C   12   -0.19765      0.99960     2.19040    0.00765     3.19765
      H   13    0.09035      0.00000     0.40838    0.00127     0.40965
      H   14    0.08207      0.00000     0.41695    0.00097     0.41793
      H   15    0.07228      0.00000     0.42590    0.00182     0.42772
      H   16    0.09712      0.00000     0.40150    0.00139     0.40288
      H   17    0.09542      0.00000     0.40332    0.00127     0.40458
      H   18    0.09111      0.00000     0.40774    0.00115     0.40889
      H   19    0.09981      0.00000     0.39899    0.00120     0.40019
      H   20    0.10118      0.00000     0.39779    0.00103     0.39882
      H   21    0.10302      0.00000     0.39445    0.00254     0.39698
      H   22    0.09493      0.00000     0.40395    0.00112     0.40507
      H   23    0.09551      0.00000     0.40253    0.00196     0.40449
      H   24    0.09487      0.00000     0.40378    0.00135     0.40513
      H   25    0.09580      0.00000     0.40300    0.00120     0.40420
      H   26    0.09830      0.00000     0.40048    0.00122     0.40170
 =======================================================================
   * Total *   -0.00000     11.99527    32.85053    0.15420    45.00000

 Normal termination of Gaussian 16 at Wed Dec  9 18:24:03 2020.
