 Gaussian 16, Revision A.03,

 -----------------------------------------------------------
 # opt freq B3LYP/6-31G(d) empiricaldispersion=gd3bj scf=xqc
 -----------------------------------------------------------

 -------------------------------
 CID_66751774_JID_10826_neutraal
 -------------------------------
 Symbolic Z-matrix:
 Charge =  0 Multiplicity = 1

 SCF Done:  E(RB3LYP) =  -1292.60954576     A.U. after   16 cycles
 SCF Done:  E(RB3LYP) =  -1292.62231879     A.U. after   14 cycles
 SCF Done:  E(RB3LYP) =  -1292.62460299     A.U. after   13 cycles
 SCF Done:  E(RB3LYP) =  -1292.62589273     A.U. after   13 cycles
 SCF Done:  E(RB3LYP) =  -1292.62688844     A.U. after   12 cycles
 SCF Done:  E(RB3LYP) =  -1292.62752574     A.U. after   13 cycles
 SCF Done:  E(RB3LYP) =  -1292.62775825     A.U. after   12 cycles
 SCF Done:  E(RB3LYP) =  -1292.62783597     A.U. after   11 cycles
 SCF Done:  E(RB3LYP) =  -1292.62786655     A.U. after   11 cycles
 SCF Done:  E(RB3LYP) =  -1292.62788173     A.U. after   11 cycles
 SCF Done:  E(RB3LYP) =  -1292.62791338     A.U. after    7 cycles
 SCF Done:  E(RB3LYP) =  -1292.62791338     A.U. after    7 cycles
 SCF Done:  E(RB3LYP) =  -1292.62791338     A.U. after    7 cycles
 SCF Done:  E(RB3LYP) =  -1292.62791338     A.U. after    7 cycles
 Optimization completed.
    -- Stationary point found.
 Normal termination of Gaussian 16 at Sun Dec 13 13:38:29 2020.

 --------------------------------------------------------------------
 #N Geom=AllCheck Guess=TCheck SCRF=Check GenChk RB3LYP/6-31G(d) Freq
 --------------------------------------------------------------------

 Structure from the checkpoint file:  "JID_10826.chk"
 -------------------------------
 CID_66751774_JID_10826_neutraal
 -------------------------------
 Charge =  0 Multiplicity = 1

 SCF Done:  E(RB3LYP) =  -1292.62791338     A.U. after    1 cycles

  Exact polarizability: 219.457   6.305 171.135 -10.312   1.701 136.319
 Approx polarizability: 295.912  17.278 303.419 -24.284  -2.353 220.416

                      1                      2                      3
                      A                      A                      A
 Frequencies --     21.2287                32.4920                47.3859
 Red. masses --      5.7302                 5.7751                 3.2108
 Frc consts  --      0.0015                 0.0036                 0.0042
 IR Inten    --      0.2058                 0.0721                 1.0613

                      4                      5                      6
                      A                      A                      A
 Frequencies --     72.6618               104.9290               110.2536
 Red. masses --      4.8316                 4.1451                 4.6660
 Frc consts  --      0.0150                 0.0269                 0.0334
 IR Inten    --      0.6754                 1.8901                 0.6651

                      7                      8                      9
                      A                      A                      A
 Frequencies --    160.4811               165.9380               169.9569
 Red. masses --      6.5871                 3.4201                 6.8795
 Frc consts  --      0.1000                 0.0555                 0.1171
 IR Inten    --      1.7688                 2.6537                 3.3695

                     10                     11                     12
                      A                      A                      A
 Frequencies --    206.8566               217.7582               226.7068
 Red. masses --      1.7754                 2.6696                 2.6172
 Frc consts  --      0.0448                 0.0746                 0.0793
 IR Inten    --      3.2175                 6.3225                 1.3717

                     13                     14                     15
                      A                      A                      A
 Frequencies --    231.8721               250.8965               285.1305
 Red. masses --      1.7954                 1.6716                 2.7250
 Frc consts  --      0.0569                 0.0620                 0.1305
 IR Inten    --      1.0069                 0.8183                 4.0943

                     16                     17                     18
                      A                      A                      A
 Frequencies --    287.7775               305.6150               334.3861
 Red. masses --      2.6668                 4.7970                 3.8969
 Frc consts  --      0.1301                 0.2640                 0.2567
 IR Inten    --      7.8830                10.8434                 5.3798

                     19                     20                     21
                      A                      A                      A
 Frequencies --    352.0511               375.0987               386.1971
 Red. masses --      4.0475                 3.9868                 8.4555
 Frc consts  --      0.2956                 0.3305                 0.7430
 IR Inten    --     11.7976                 8.4706                12.0010

                     22                     23                     24
                      A                      A                      A
 Frequencies --    430.7922               447.3698               476.1367
 Red. masses --      3.4712                 2.9188                 4.2976
 Frc consts  --      0.3795                 0.3442                 0.5740
 IR Inten    --     13.4184                43.6326                27.4898

                     25                     26                     27
                      A                      A                      A
 Frequencies --    508.6654               514.7093               533.9675
 Red. masses --      5.3838                 5.0774                 4.9216
 Frc consts  --      0.8207                 0.7925                 0.8268
 IR Inten    --      6.7536                20.2869                 3.2465

                     28                     29                     30
                      A                      A                      A
 Frequencies --    564.2721               601.3047               607.7284
 Red. masses --      2.8711                 3.6862                 5.3959
 Frc consts  --      0.5386                 0.7853                 1.1742
 IR Inten    --      8.4695                14.7474                 1.2977

                     31                     32                     33
                      A                      A                      A
 Frequencies --    635.8331               667.4211               690.1545
 Red. masses --      2.2514                 6.5140                 1.7362
 Frc consts  --      0.5363                 1.7096                 0.4872
 IR Inten    --     81.0462                 9.1230                18.7928

                     34                     35                     36
                      A                      A                      A
 Frequencies --    696.5757               709.5607               721.8100
 Red. masses --      1.4003                 3.7839                 4.3203
 Frc consts  --      0.4003                 1.1225                 1.3262
 IR Inten    --     24.0819                 6.3602                17.2499

                     37                     38                     39
                      A                      A                      A
 Frequencies --    746.9484               763.3677               769.6280
 Red. masses --      3.0936                 4.2407                 6.0209
 Frc consts  --      1.0169                 1.4560                 2.1012
 IR Inten    --    107.0250                 9.8614                 0.8427

                     40                     41                     42
                      A                      A                      A
 Frequencies --    790.1902               837.9475               874.2906
 Red. masses --      4.0112                 3.4460                 3.6282
 Frc consts  --      1.4757                 1.4256                 1.6340
 IR Inten    --     22.9226                 2.1688                 2.5563

                     43                     44                     45
                      A                      A                      A
 Frequencies --    899.3929               942.0857               952.4464
 Red. masses --      2.7522                 2.6060                 2.0284
 Frc consts  --      1.3117                 1.3627                 1.0841
 IR Inten    --      3.2479                 8.9345                 3.0561

                     46                     47                     48
                      A                      A                      A
 Frequencies --   1013.1753              1030.6907              1039.1490
 Red. masses --      1.6359                 2.5023                 1.6543
 Frc consts  --      0.9894                 1.5662                 1.0525
 IR Inten    --      1.8799                27.5740                 4.4253

                     49                     50                     51
                      A                      A                      A
 Frequencies --   1053.4912              1094.9759              1131.1638
 Red. masses --      1.8853                 2.8410                 2.3992
 Frc consts  --      1.2328                 2.0069                 1.8087
 IR Inten    --      3.7978                 1.4353                 2.8174

                     52                     53                     54
                      A                      A                      A
 Frequencies --   1150.2587              1156.4060              1175.7932
 Red. masses --      3.1174                 1.4892                 1.9878
 Frc consts  --      2.4301                 1.1733                 1.6192
 IR Inten    --     11.5666                25.5039                32.8525

                     55                     56                     57
                      A                      A                      A
 Frequencies --   1185.5344              1204.4238              1212.4062
 Red. masses --      1.9262                 1.9285                 2.5066
 Frc consts  --      1.5951                 1.6483                 2.1709
 IR Inten    --     10.1229                 9.0470                47.5907

                     58                     59                     60
                      A                      A                      A
 Frequencies --   1213.2706              1230.6561              1243.6970
 Red. masses --      1.1134                 2.2132                 2.4239
 Frc consts  --      0.9656                 1.9749                 2.2090
 IR Inten    --      7.7386               164.2330               110.5236

                     61                     62                     63
                      A                      A                      A
 Frequencies --   1262.1598              1324.3879              1335.3102
 Red. masses --      1.8678                 1.9255                 4.3423
 Frc consts  --      1.7531                 1.9899                 4.5617
 IR Inten    --     57.4903                61.5128               132.6169

                     64                     65                     66
                      A                      A                      A
 Frequencies --   1363.8200              1376.4942              1390.5158
 Red. masses --      3.5114                 1.8829                 1.6237
 Frc consts  --      3.8481                 2.1020                 1.8498
 IR Inten    --     61.1282                30.9697                14.8218

                     67                     68                     69
                      A                      A                      A
 Frequencies --   1421.2228              1426.8637              1436.4125
 Red. masses --      2.3587                 3.6465                 1.9967
 Frc consts  --      2.8071                 4.3741                 2.4273
 IR Inten    --    125.7678                14.2928                69.1926

                     70                     71                     72
                      A                      A                      A
 Frequencies --   1440.0671              1480.0777              1488.5024
 Red. masses --      1.2540                 1.3917                 1.0871
 Frc consts  --      1.5321                 1.7963                 1.4191
 IR Inten    --     12.7959                 1.5120                 2.1799

                     73                     74                     75
                      A                      A                      A
 Frequencies --   1495.9945              1515.6929              1516.7140
 Red. masses --      1.2908                 1.0548                 1.0537
 Frc consts  --      1.7021                 1.4278                 1.4281
 IR Inten    --      7.5591                 1.3425                20.7769

                     76                     77                     78
                      A                      A                      A
 Frequencies --   1519.4833              1530.4046              1544.2850
 Red. masses --      1.0602                 1.0802                 1.0654
 Frc consts  --      1.4423                 1.4907                 1.4970
 IR Inten    --      3.1326                12.7505                14.5668

                     79                     80                     81
                      A                      A                      A
 Frequencies --   1545.7563              1600.4791              1661.4522
 Red. masses --      1.0918                 7.4429                 8.6263
 Frc consts  --      1.5370                11.2329                14.0298
 IR Inten    --      3.4941               203.4576                93.4281

                     82                     83                     84
                      A                      A                      A
 Frequencies --   1801.6414              1818.0734              1832.1539
 Red. masses --     12.0318                 9.1520                12.2219
 Frc consts  --     23.0100                17.8233                24.1721
 IR Inten    --    333.5338               469.5524               236.3301

                     85                     86                     87
                      A                      A                      A
 Frequencies --   3003.8440              3017.9501              3041.5101
 Red. masses --      1.0534                 1.0578                 1.1034
 Frc consts  --      5.6001                 5.6764                 6.0142
 IR Inten    --     64.9990                36.9244                28.7979

                     88                     89                     90
                      A                      A                      A
 Frequencies --   3064.5704              3073.4637              3074.4689
 Red. masses --      1.0602                 1.0462                 1.0584
 Frc consts  --      5.8664                 5.8225                 5.8943
 IR Inten    --     11.8966                13.0296                22.5150

                     91                     92                     93
                      A                      A                      A
 Frequencies --   3096.8889              3102.5989              3127.5350
 Red. masses --      1.0840                 1.1018                 1.0988
 Frc consts  --      6.1253                 6.2487                 6.3322
 IR Inten    --     23.2137                20.4141                12.9803

                     94                     95                     96
                      A                      A                      A
 Frequencies --   3141.0651              3148.8715              3166.2938
 Red. masses --      1.1015                 1.1017                 1.1027
 Frc consts  --      6.4028                 6.4362                 6.5133
 IR Inten    --     27.4172                19.7845                 8.9139

                     97                     98                     99
                      A                      A                      A
 Frequencies --   3288.5342              3561.6092              3581.5084
 Red. masses --      1.0947                 1.0753                 1.0766
 Frc consts  --      6.9751                 8.0369                 8.1367
 IR Inten    --      4.4893                11.3527                51.4130

 - Thermochemistry -
 -------------------
 Temperature   298.150 Kelvin.  Pressure   1.00000 Atm.
 Atom     1 has atomic number  6 and mass  12.00000

 Molecular mass:   293.08341 amu.
 Principal axes and moments of inertia in atomic units:
                           1         2         3
     Eigenvalues --  2907.378259838.16517**********
           X            0.99998   0.00374  -0.00446
           Y           -0.00327   0.99479   0.10191
           Z            0.00482  -0.10190   0.99478
 This molecule is an asymmetric top.
 Rotational symmetry number  1.
 Warning -- assumption of classical behavior for rotation
           may cause significant error
 Rotational temperatures (Kelvin)      0.02979     0.00880     0.00862
 Rotational constants (GHZ):           0.62075     0.18344     0.17953
 Zero-point vibrational energy     726624.0 (Joules/Mol)
                                  173.66730 (Kcal/Mol)
 Warning -- explicit consideration of  30 degrees of freedom as
           vibrations may cause significant error
 Vibrational temperatures:     30.54    46.75    68.18   104.54   150.97
          (Kelvin)            158.63   230.90   238.75   244.53   297.62
                              313.31   326.18   333.61   360.98   410.24
                              414.05   439.71   481.11   506.52   539.68
                              555.65   619.81   643.67   685.05   731.86
                              740.55   768.26   811.86   865.14   874.39
                              914.82   960.27   992.98  1002.22  1020.90
                             1038.52  1074.69  1098.32  1107.32  1136.91
                             1205.62  1257.91  1294.03  1355.45  1370.36
                             1457.73  1482.93  1495.10  1515.74  1575.43
                             1627.49  1654.97  1663.81  1691.70  1705.72
                             1732.90  1744.38  1745.63  1770.64  1789.40
                             1815.97  1905.50  1921.21  1962.23  1980.47
                             2000.64  2044.82  2052.94  2066.68  2071.94
                             2129.50  2141.62  2152.40  2180.74  2182.21
                             2186.20  2201.91  2221.88  2224.00  2302.73
                             2390.46  2592.16  2615.80  2636.06  4321.86
                             4342.16  4376.05  4409.23  4422.03  4423.47
                             4455.73  4463.95  4499.83  4519.29  4530.52
                             4555.59  4731.47  5124.36  5152.99

 Zero-point correction=                           0.276756 (Hartree/Particle)
 Thermal correction to Energy=                    0.295281
 Thermal correction to Enthalpy=                  0.296225
 Thermal correction to Gibbs Free Energy=         0.229248
 Sum of electronic and zero-point Energies=          -1292.351157
 Sum of electronic and thermal Energies=             -1292.332633
 Sum of electronic and thermal Enthalpies=           -1292.331688
 Sum of electronic and thermal Free Energies=        -1292.398665

                     E (Thermal)             CV                S
                      KCal/Mol        Cal/Mol-Kelvin    Cal/Mol-Kelvin
 Total                  185.291             70.730            140.965
 Electronic               0.000              0.000              0.000
 Translational            0.889              2.981             42.923
 Rotational               0.889              2.981             34.019
 Vibrational            183.514             64.768             64.023
 Vibration     1          0.593              1.985              6.516
 Vibration     2          0.594              1.983              5.671
 Vibration     3          0.595              1.979              4.924
 Vibration     4          0.599              1.967              4.080
 Vibration     5          0.605              1.945              3.361
 Vibration     6          0.606              1.941              3.264
 Vibration     7          0.622              1.891              2.544
 Vibration     8          0.624              1.884              2.481
 Vibration     9          0.625              1.879              2.436
 Vibration    10          0.641              1.830              2.071
 Vibration    11          0.646              1.814              1.978
 Vibration    12          0.650              1.800              1.905
 Vibration    13          0.653              1.792              1.864
 Vibration    14          0.663              1.761              1.724
 Vibration    15          0.683              1.701              1.503
 Vibration    16          0.685              1.696              1.487
 Vibration    17          0.696              1.663              1.386
 Vibration    18          0.716              1.607              1.239
 Vibration    19          0.729              1.571              1.157
 Vibration    20          0.746              1.523              1.059
 Vibration    21          0.755              1.500              1.015
 Vibration    22          0.792              1.403              0.856
 Vibration    23          0.807              1.367              0.804
 Vibration    24          0.833              1.303              0.721
 Vibration    25          0.864              1.231              0.637
 Vibration    26          0.870              1.217              0.622
 Vibration    27          0.889              1.175              0.578
 Vibration    28          0.920              1.109              0.515
 Vibration    29          0.960              1.029              0.447
 Vibration    30          0.967              1.015              0.437

 Optimization completed.
    -- Stationary point found.
 Normal termination of Gaussian 16 at Sun Dec 13 13:57:43 2020.

 ----------------------------------------------------------------------
 # B3LYP/6-311++G(d,p) empiricaldispersion=gd3bj scf=xqc pop=npa geom=c
 heck
 ----------------------------------------------------------------------

 ---------------------------------------
 CID_66751774_JID_10826_Energie_neutraal
 ---------------------------------------
 Structure from the checkpoint file:  "JID_10826.chk"
 Charge =  0 Multiplicity = 1

 SCF Done:  E(RB3LYP) =  -1292.90822043     A.U. after   16 cycles
 Normal termination of Gaussian 16 at Sun Dec 13 14:06:28 2020.

 ----------------------------------------------------------------------
 # B3LYP/6-311++G(d,p) empiricaldispersion=gd3bj scf=xqc pop=npa geom=c
 heck
 ----------------------------------------------------------------------

 -------------------------------------
 CID_66751774_JID_10826_Energie_kation
 -------------------------------------
 Structure from the checkpoint file:  "JID_10826.chk"
 Charge =  1 Multiplicity = 2

 SCF Done:  E(UB3LYP) =  -1292.62549490     A.U. after   33 cycles
 SCF Done:  E(UB3LYP) =  -1292.62549490     a.u. after    1 cycles
 Normal termination of Gaussian 16 at Sun Dec 13 14:30:24 2020.
 Gaussian 16:  ES64L-G16RevA.03 25-Dec-2016

 ----------------------------------------------------------------------
 # B3LYP/6-311++G(d,p) empiricaldispersion=gd3bj scf=xqc pop=npa geom=c
 heck
 ----------------------------------------------------------------------

 ------------------------------------
 CID_66751774_JID_10826_Energie_anion
 ------------------------------------
 Structure from the checkpoint file:  "JID_10826.chk"
 Charge = -1 Multiplicity = 2

                         Standard orientation:
 ---------------------------------------------------------------------
 Center     Atomic      Atomic             Coordinates (Angstroms)
 Number     Number       Type             X           Y           Z
 ---------------------------------------------------------------------
      1          6           0       -1.908811    1.190266    2.347309
      2          6           0       -1.892412    0.719868    0.890240
      3          6           0       -2.316850    1.840221   -0.085048
      4          6           0       -2.282582    1.346563   -1.531757
      5          6           0       -3.037807    0.044496   -1.740202
      6          8           0       -3.407984   -0.345571   -2.831101
      7          7           0       -3.317571   -0.678618   -0.587666
      8          6           0       -2.942870   -0.407250    0.728751
      9          8           0       -3.502400   -0.939447    1.661912
     10          7           0       -0.556078    0.241557    0.507454
     11          6           0        0.574345    1.177984    0.385845
     12          6           0        1.730488    0.245597    0.160203
     13          6           0        3.070536    0.357937   -0.096560
     14         16           0        3.770432   -1.260855   -0.281615
     15          6           0        2.226752   -2.041406   -0.033920
     16          6           0        1.271253   -1.097784    0.193960
     17          6           0       -0.186235   -1.102882    0.447390
     18          8           0       -0.943497   -2.052050    0.569140
     19          7           0        3.841253    1.502509   -0.226715
     20          6           0        5.286995    1.389998   -0.344667
     21          1           0       -1.194623    2.006175    2.495739
     22          1           0       -1.655076    0.360553    3.009810
     23          1           0       -2.904237    1.549042    2.622325
     24          1           0       -3.329341    2.163663    0.183468
     25          1           0       -1.668621    2.713992    0.040307
     26          1           0       -1.250513    1.171652   -1.857621
     27          1           0       -2.711842    2.077220   -2.222661
     28          1           0       -3.898076   -1.502030   -0.711995
     29          1           0        0.425450    1.872232   -0.452178
     30          1           0        0.677545    1.783229    1.297719
     31          1           0        2.136480   -3.115842   -0.096225
     32          1           0        3.542546    2.244240    0.396023
     33          1           0        5.711226    2.392262   -0.438134
     34          1           0        5.757017    0.881686    0.512365
     35          1           0        5.536174    0.832356   -1.253487
 ---------------------------------------------------------------------

 SCF Done:  E(UB3LYP) =  -1292.91070877     A.U. after   33 cycles
 SCF Done:  E(UB3LYP) =  -1292.91115751     a.u. after    6 cycles

 The electronic state is 2-A.
 Alpha  occ. eigenvalues --  -88.78334 -19.01902 -19.01570 -18.99224 -14.26939
 Alpha  occ. eigenvalues --  -14.25093 -14.23813 -10.20226 -10.19932 -10.17535
 Alpha  occ. eigenvalues --  -10.14997 -10.14343 -10.12636 -10.11291 -10.10334
 Alpha  occ. eigenvalues --  -10.10242 -10.09740 -10.08088 -10.07828 -10.07730
 Alpha  occ. eigenvalues --   -7.86919  -5.83236  -5.82850  -5.82489  -0.97845
 Alpha  occ. eigenvalues --   -0.96182  -0.94374  -0.86512  -0.85120  -0.84367
 Alpha  occ. eigenvalues --   -0.77742  -0.73702  -0.68782  -0.65546  -0.64240
 Alpha  occ. eigenvalues --   -0.61487  -0.59702  -0.57871  -0.56201  -0.54579
 Alpha  occ. eigenvalues --   -0.52258  -0.47734  -0.46251  -0.44892  -0.41529
 Alpha  occ. eigenvalues --   -0.41135  -0.40690  -0.39048  -0.38844  -0.37780
 Alpha  occ. eigenvalues --   -0.36763  -0.36396  -0.35232  -0.34960  -0.34847
 Alpha  occ. eigenvalues --   -0.33898  -0.32748  -0.32098  -0.31039  -0.30593
 Alpha  occ. eigenvalues --   -0.30568  -0.30030  -0.29881  -0.28797  -0.28416
 Alpha  occ. eigenvalues --   -0.27887  -0.27288  -0.26192  -0.24994  -0.20727
 Alpha  occ. eigenvalues --   -0.19773  -0.19470  -0.17625  -0.16465  -0.16173
 Alpha  occ. eigenvalues --   -0.15614  -0.10461   0.03378
 Alpha virt. eigenvalues --    0.05231   0.05500   0.06256   0.07237   0.07977
 Alpha virt. eigenvalues --    0.08314   0.08942   0.09499   0.09615   0.10295
 Alpha virt. eigenvalues --    0.10561   0.10823   0.11043   0.11415   0.11993

  Beta  occ. eigenvalues --  -88.78323 -19.01876 -19.01504 -18.99170 -14.26955
  Beta  occ. eigenvalues --  -14.25066 -14.23750 -10.20188 -10.19867 -10.17486
  Beta  occ. eigenvalues --  -10.15002 -10.14304 -10.12591 -10.11261 -10.10329
  Beta  occ. eigenvalues --  -10.10214 -10.09627 -10.08081 -10.07844 -10.07719
  Beta  occ. eigenvalues --   -7.86908  -5.83231  -5.82846  -5.82453  -0.97767
  Beta  occ. eigenvalues --   -0.96094  -0.94275  -0.86447  -0.85041  -0.84332
  Beta  occ. eigenvalues --   -0.77668  -0.73654  -0.68738  -0.65475  -0.64158
  Beta  occ. eigenvalues --   -0.61389  -0.59633  -0.57733  -0.56102  -0.54505
  Beta  occ. eigenvalues --   -0.52199  -0.47635  -0.46136  -0.44840  -0.41453
  Beta  occ. eigenvalues --   -0.41063  -0.40608  -0.38981  -0.38767  -0.37683
  Beta  occ. eigenvalues --   -0.36695  -0.36310  -0.35161  -0.34899  -0.34775
  Beta  occ. eigenvalues --   -0.33829  -0.32677  -0.32023  -0.30977  -0.30532
  Beta  occ. eigenvalues --   -0.30474  -0.29895  -0.29730  -0.28720  -0.28354
  Beta  occ. eigenvalues --   -0.27736  -0.27156  -0.26141  -0.24917  -0.20492
  Beta  occ. eigenvalues --   -0.19645  -0.19428  -0.17583  -0.16319  -0.16031
  Beta  occ. eigenvalues --   -0.15485  -0.10153
  Beta virt. eigenvalues --    0.05837   0.06233   0.06280   0.06670   0.07858
  Beta virt. eigenvalues --    0.08128   0.08422   0.09192   0.09870   0.09914
  Beta virt. eigenvalues --    0.10453   0.10800   0.11057   0.11183   0.11639

 Mulliken charges and spin densities:
               1          2
     1  C    0.323670  -0.454052
     2  C   -0.544037   0.642526
     3  C    0.010041  -0.486855
     4  C    0.040088  -0.240816
     5  C   -0.019119  -0.042969
     6  O   -0.310011   0.013379
     7  N   -0.257896   0.008732
     8  C   -0.093401  -0.101320
     9  O   -0.251362   0.027129
    10  N    0.352893   0.036547
    11  C   -1.523724  -0.409783
    12  C    0.791404  -0.099989
    13  C    0.084598  -0.216143
    14  S   -0.427275   0.008698
    15  C   -0.048692  -0.010800
    16  C    1.132730  -0.314793
    17  C   -0.037852  -0.064186
    18  O   -0.274998   0.018784
    19  N   -0.082807   0.078574
    20  C    0.232052  -0.607521
    21  H   -0.123383   0.269163
    22  H    0.194645   0.013955
    23  H    0.152359   0.019184
    24  H    0.129456   0.065274
    25  H   -0.400642   0.605161
    26  H    0.225392  -0.026835
    27  H    0.047660   0.180791
    28  H    0.333778   0.002960
    29  H    0.090857   0.135444
    30  H   -0.166656   0.392755
    31  H    0.251394  -0.004054
    32  H   -0.431418   0.708765
    33  H   -0.433706   0.586326
    34  H   -0.037430   0.194395
    35  H    0.071392   0.071570
 Sum of Mulliken charges =  -1.00000   1.00000

 Dipole moment (field-independent basis, Debye):
    X=             -1.7672    Y=             -2.9816    Z=             -0.8944  Tot=              3.5795
 Quadrupole moment (field-independent basis, Debye-Ang):
   XX=           -190.6457   YY=           -175.4753   ZZ=           -161.8692
   XY=            -25.9129   XZ=             -8.1500   YZ=             -1.6674

 Summary of Natural Population Analysis:

                                       Natural Population
                Natural  -----------------------------------------------
    Atom  No    Charge         Core      Valence    Rydberg      Total
 -----------------------------------------------------------------------
      C    1   -0.28830      0.99963     2.28083    0.00784     3.28830
      C    2    0.03839      0.99951     1.94800    0.01410     2.96161
      C    3   -0.19594      0.99960     2.18597    0.01037     3.19594
      C    4   -0.23775      0.99958     2.22940    0.00876     3.23775
      C    5    0.35752      0.99968     1.62005    0.02274     2.64248
      O    6   -0.30391      0.99987     3.29835    0.00568     4.30391
      N    7   -0.32597      0.99962     2.81734    0.00901     3.82597
      C    8    0.37044      0.99962     1.60351    0.02643     2.62956
      O    9   -0.28684      0.99987     3.28127    0.00570     4.28684
      N   10   -0.26261      0.99964     2.75109    0.01189     3.76261
      C   11   -0.07969      0.99958     2.06942    0.01069     3.07969
      C   12   -0.07786      0.99940     2.06718    0.01128     3.07786
      C   13    0.03073      0.99941     1.95323    0.01663     2.96927
      S   14    0.18571      4.99946     2.79577    0.01905     7.81429
      C   15   -0.16371      0.99948     2.15470    0.00953     3.16371
      C   16   -0.07904      0.99940     2.06750    0.01214     3.07904
      C   17    0.34809      0.99955     1.62894    0.02341     2.65191
      O   18   -0.30394      0.99988     3.29893    0.00514     4.30394
      N   19   -0.31461      0.99966     2.80125    0.01370     3.81461
      C   20   -0.18125      0.99965     2.17251    0.00910     3.18125
      H   21    0.10275      0.00000     0.39632    0.00093     0.39725
      H   22    0.11273      0.00000     0.38641    0.00087     0.38727
      H   23    0.10350      0.00000     0.39570    0.00080     0.39650
      H   24    0.10299      0.00000     0.39581    0.00120     0.39701
      H   25    0.11195      0.00000     0.38656    0.00149     0.38805
      H   26    0.11756      0.00000     0.38114    0.00130     0.38244
      H   27    0.11611      0.00000     0.38289    0.00100     0.38389
      H   28    0.20371      0.00000     0.29420    0.00209     0.29629
      H   29    0.09949      0.00000     0.39903    0.00148     0.40051
      H   30    0.10566      0.00000     0.39212    0.00222     0.39434
      H   31    0.11161      0.00000     0.38759    0.00080     0.38839
      H   32    0.19848      0.00000     0.28374    0.01778     0.30152
      H   33    0.10340      0.00000     0.39535    0.00125     0.39660
      H   34    0.08712      0.00000     0.41133    0.00155     0.41288
      H   35    0.09345      0.00000     0.40517    0.00137     0.40655
 =======================================================================
   * Total *    0.00000     23.99209    52.71858    0.28933    77.00000

 Normal termination of Gaussian 16 at Sun Dec 13 17:38:43 2020.
