 Gaussian 16, Revision A.03,

 -----------------------------------------------------------
 # opt freq B3LYP/6-31G(d) empiricaldispersion=gd3bj scf=xqc
 -----------------------------------------------------------

 -----------------------------
 CID_57741635_JID_115_neutraal
 -----------------------------
 Symbolic Z-matrix:
 Charge =  0 Multiplicity = 1

 SCF Done:  E(RB3LYP) =  -443.894486521     A.U. after   14 cycles
 SCF Done:  E(RB3LYP) =  -443.896972067     A.U. after   12 cycles
 SCF Done:  E(RB3LYP) =  -443.896971522     A.U. after   12 cycles
 SCF Done:  E(RB3LYP) =  -443.897066120     A.U. after   12 cycles
 SCF Done:  E(RB3LYP) =  -443.897313663     A.U. after   11 cycles
 SCF Done:  E(RB3LYP) =  -443.897321540     A.U. after   10 cycles
 SCF Done:  E(RB3LYP) =  -443.897324155     A.U. after    9 cycles
 SCF Done:  E(RB3LYP) =  -443.897325217     A.U. after    9 cycles
 SCF Done:  E(RB3LYP) =  -443.897325844     A.U. after    9 cycles
 SCF Done:  E(RB3LYP) =  -443.897325897     A.U. after    6 cycles
 Optimization completed.
    -- Stationary point found.
 Normal termination of Gaussian 16 at Tue Dec  8 10:17:30 2020.

 --------------------------------------------------------------------
 #N Geom=AllCheck Guess=TCheck SCRF=Check GenChk RB3LYP/6-31G(d) Freq
 --------------------------------------------------------------------

 Structure from the checkpoint file:  "JID_115.chk"
 -----------------------------
 CID_57741635_JID_115_neutraal
 -----------------------------
 Charge =  0 Multiplicity = 1

 SCF Done:  E(RB3LYP) =  -443.897325897     A.U. after    1 cycles

  Exact polarizability:  99.040  -0.340  89.189  -0.790  -2.643  79.097
 Approx polarizability: 127.392  -4.132 126.585   6.074  -7.943 123.353

                      1                      2                      3
                      A                      A                      A
 Frequencies --     44.4204               110.6004               172.5824
 Red. masses --      3.8661                 3.2213                 1.0466
 Frc consts  --      0.0045                 0.0232                 0.0184
 IR Inten    --      5.2094                 1.0635                 0.4524

                      4                      5                      6
                      A                      A                      A
 Frequencies --    176.6886               191.7732               220.8085
 Red. masses --      3.6910                 2.6017                 1.1055
 Frc consts  --      0.0679                 0.0564                 0.0318
 IR Inten    --      1.6216                 2.5061                 0.3070

                      7                      8                      9
                      A                      A                      A
 Frequencies --    263.5229               302.3379               337.5331
 Red. masses --      2.3845                 3.5213                 2.3475
 Frc consts  --      0.0976                 0.1896                 0.1576
 IR Inten    --      0.1323                 0.5563                 1.7704

                     10                     11                     12
                      A                      A                      A
 Frequencies --    407.2304               412.2859               480.2083
 Red. masses --      2.7667                 2.1408                 2.4658
 Frc consts  --      0.2703                 0.2144                 0.3350
 IR Inten    --      1.3183                 0.4585                 2.2932

                     13                     14                     15
                      A                      A                      A
 Frequencies --    517.1194               538.8391               607.0514
 Red. masses --      2.9776                 3.1034                 2.6187
 Frc consts  --      0.4691                 0.5309                 0.5686
 IR Inten    --     21.9481                12.5405                 5.1815

                     16                     17                     18
                      A                      A                      A
 Frequencies --    639.5023               757.8662               813.6744
 Red. masses --      2.0451                 2.5951                 2.2524
 Frc consts  --      0.4928                 0.8782                 0.8786
 IR Inten    --     17.1257                16.7456                32.2945

                     19                     20                     21
                      A                      A                      A
 Frequencies --    827.0347               895.2149               908.1996
 Red. masses --      1.9865                 2.4713                 2.2141
 Frc consts  --      0.8006                 1.1669                 1.0760
 IR Inten    --     24.2997                 2.9825                11.5340

                     22                     23                     24
                      A                      A                      A
 Frequencies --    933.5918               973.1792              1005.7360
 Red. masses --      1.5972                 1.8607                 1.6311
 Frc consts  --      0.8202                 1.0383                 0.9721
 IR Inten    --      6.4969                 5.2133                 3.2206

                     25                     26                     27
                      A                      A                      A
 Frequencies --   1015.3782              1034.6171              1045.5768
 Red. masses --      1.7490                 1.4749                 1.7521
 Frc consts  --      1.0624                 0.9302                 1.1285
 IR Inten    --      1.8151                 1.7913                 2.4154

                     28                     29                     30
                      A                      A                      A
 Frequencies --   1090.5065              1097.6511              1155.3465
 Red. masses --      1.8700                 1.8498                 1.9590
 Frc consts  --      1.3103                 1.3131                 1.5406
 IR Inten    --      5.2860                 5.7175                 3.7854

                     31                     32                     33
                      A                      A                      A
 Frequencies --   1163.2584              1180.6225              1227.4223
 Red. masses --      1.9092                 2.6231                 1.4302
 Frc consts  --      1.5221                 2.1542                 1.2695
 IR Inten    --     10.3850                13.6139                31.9659

                     34                     35                     36
                      A                      A                      A
 Frequencies --   1249.8528              1256.2196              1294.2740
 Red. masses --      1.8120                 1.8304                 1.2983
 Frc consts  --      1.6677                 1.7019                 1.2814
 IR Inten    --     22.8091                52.8797                 4.4565

                     37                     38                     39
                      A                      A                      A
 Frequencies --   1319.7223              1342.8371              1347.6012
 Red. masses --      1.2344                 1.4003                 1.2747
 Frc consts  --      1.2667                 1.4877                 1.3639
 IR Inten    --      5.8283                 5.0180                 1.6007

                     40                     41                     42
                      A                      A                      A
 Frequencies --   1364.3458              1399.5334              1409.1134
 Red. masses --      1.3380                 1.4116                 1.3213
 Frc consts  --      1.4674                 1.6290                 1.5458
 IR Inten    --     17.3133                 6.3241                35.4731

                     43                     44                     45
                      A                      A                      A
 Frequencies --   1416.4922              1434.5910              1452.5282
 Red. masses --      1.4481                 1.3637                 1.3906
 Frc consts  --      1.7119                 1.6536                 1.7286
 IR Inten    --      9.1596                 9.7577                 9.2290

                     46                     47                     48
                      A                      A                      A
 Frequencies --   1491.2598              1498.5448              1504.4160
 Red. masses --      1.0624                 1.2709                 1.0538
 Frc consts  --      1.3921                 1.6815                 1.4052
 IR Inten    --     13.6386                 3.8838                 8.6955

                     49                     50                     51
                      A                      A                      A
 Frequencies --   1516.6629              1521.4196              1528.3672
 Red. masses --      1.0839                 1.0894                 1.0752
 Frc consts  --      1.4689                 1.4858                 1.4798
 IR Inten    --      5.5131                 3.2834                 1.3421

                     52                     53                     54
                      A                      A                      A
 Frequencies --   1537.4631              1542.1225              1802.5762
 Red. masses --      1.0956                 1.0611                10.6367
 Frc consts  --      1.5258                 1.4868                20.3631
 IR Inten    --      3.4513                 4.0687               139.7932

                     55                     56                     57
                      A                      A                      A
 Frequencies --   2912.8254              2923.3961              3024.4211
 Red. masses --      1.0740                 1.0728                 1.0826
 Frc consts  --      5.3690                 5.4017                 5.8346
 IR Inten    --     52.1993               119.7773                15.5222

                     58                     59                     60
                      A                      A                      A
 Frequencies --   3050.6965              3054.5865              3057.6572
 Red. masses --      1.0500                 1.0393                 1.0485
 Frc consts  --      5.7576                 5.7136                 5.7756
 IR Inten    --     10.7962                17.2472                21.0246

                     61                     62                     63
                      A                      A                      A
 Frequencies --   3069.2552              3077.8567              3083.3166
 Red. masses --      1.0852                 1.0873                 1.0881
 Frc consts  --      6.0229                 6.0686                 6.0946
 IR Inten    --     15.5736                48.3339                42.6822

                     64                     65                     66
                      A                      A                      A
 Frequencies --   3101.1610              3111.8078              3114.6900
 Red. masses --      1.1006                 1.1005                 1.1000
 Frc consts  --      6.2365                 6.2788                 6.2875
 IR Inten    --     23.3182                45.3986                14.0914

                     67                     68                     69
                      A                      A                      A
 Frequencies --   3142.4588              3167.7939              3508.7942
 Red. masses --      1.1005                 1.1026                 1.0748
 Frc consts  --      6.4029                 6.5188                 7.7961
 IR Inten    --     21.9553                13.1336                 1.0590

 - Thermochemistry -
 -------------------
 Temperature   298.150 Kelvin.  Pressure   1.00000 Atm.
 Atom     1 has atomic number  6 and mass  12.00000

 Molecular mass:   141.11536 amu.
 Principal axes and moments of inertia in atomic units:
                           1         2         3
     Eigenvalues --   834.002411838.810322144.76277
           X            0.99933   0.02038  -0.03053
           Y           -0.01981   0.99963   0.01872
           Z            0.03090  -0.01810   0.99936
 This molecule is an asymmetric top.
 Rotational symmetry number  1.
 Warning -- assumption of classical behavior for rotation
           may cause significant error
 Rotational temperatures (Kelvin)      0.10385     0.04710     0.04038
 Rotational constants (GHZ):           2.16395     0.98147     0.84146
 Zero-point vibrational energy     593216.4 (Joules/Mol)
                                  141.78213 (Kcal/Mol)
 Warning -- explicit consideration of  15 degrees of freedom as
           vibrations may cause significant error
 Vibrational temperatures:     63.91   159.13   248.31   254.22   275.92
          (Kelvin)            317.69   379.15   435.00   485.63   585.91
                              593.19   690.91   744.02   775.27   873.41
                              920.10  1090.40  1170.70  1189.92  1288.01
                             1306.70  1343.23  1400.19  1447.03  1460.90
                             1488.58  1504.35  1569.00  1579.28  1662.29
                             1673.67  1698.65  1765.99  1798.26  1807.42
                             1862.17  1898.79  1932.04  1938.90  1962.99
                             2013.62  2027.40  2038.02  2064.06  2089.86
                             2145.59  2156.07  2164.52  2182.14  2188.98
                             2198.98  2212.07  2218.77  2593.51  4190.91
                             4206.11  4351.47  4389.27  4394.87  4399.29
                             4415.97  4428.35  4436.20  4461.88  4477.20
                             4481.34  4521.30  4557.75  5048.37

 Zero-point correction=                           0.225944 (Hartree/Particle)
 Thermal correction to Energy=                    0.236286
 Thermal correction to Enthalpy=                  0.237230
 Thermal correction to Gibbs Free Energy=         0.190411
 Sum of electronic and zero-point Energies=           -443.671382
 Sum of electronic and thermal Energies=              -443.661040
 Sum of electronic and thermal Enthalpies=            -443.660096
 Sum of electronic and thermal Free Energies=         -443.706915

                     E (Thermal)             CV                S
                      KCal/Mol        Cal/Mol-Kelvin    Cal/Mol-Kelvin
 Total                  148.271             39.587             98.539
 Electronic               0.000              0.000              0.000
 Translational            0.889              2.981             40.745
 Rotational               0.889              2.981             29.577
 Vibrational            146.494             33.625             28.218
 Vibration     1          0.595              1.980              5.052
 Vibration     2          0.606              1.941              3.258
 Vibration     3          0.626              1.876              2.407
 Vibration     4          0.628              1.871              2.363
 Vibration     5          0.634              1.851              2.211
 Vibration     6          0.648              1.809              1.952
 Vibration     7          0.670              1.740              1.638
 Vibration     8          0.694              1.669              1.404
 Vibration     9          0.718              1.601              1.224
 Vibration    10          0.772              1.455              0.936
 Vibration    11          0.776              1.444              0.919
 Vibration    12          0.837              1.294              0.710
 Vibration    13          0.872              1.212              0.617
 Vibration    14          0.894              1.164              0.568
 Vibration    15          0.966              1.017              0.438

 Optimization completed.
    -- Stationary point found.
 Normal termination of Gaussian 16 at Tue Dec  8 10:22:15 2020.

 ----------------------------------------------------------------------
 # B3LYP/6-311++G(d,p) empiricaldispersion=gd3bj scf=xqc pop=npa geom=c
 heck
 ----------------------------------------------------------------------

 -------------------------------------
 CID_57741635_JID_115_Energie_neutraal
 -------------------------------------
 Structure from the checkpoint file:  "JID_115.chk"
 Charge =  0 Multiplicity = 1

 SCF Done:  E(RB3LYP) =  -444.028121452     A.U. after   13 cycles
 Normal termination of Gaussian 16 at Tue Dec  8 10:23:50 2020.

 ----------------------------------------------------------------------
 # B3LYP/6-311++G(d,p) empiricaldispersion=gd3bj scf=xqc pop=npa geom=c
 heck
 ----------------------------------------------------------------------

 -----------------------------------
 CID_57741635_JID_115_Energie_kation
 -----------------------------------
 Structure from the checkpoint file:  "JID_115.chk"
 Charge =  1 Multiplicity = 2

 SCF Done:  E(UB3LYP) =  -443.719192565     A.U. after   21 cycles
 Normal termination of Gaussian 16 at Tue Dec  8 10:27:08 2020.
 Gaussian 16:  ES64L-G16RevA.03 25-Dec-2016

 ----------------------------------------------------------------------
 # B3LYP/6-311++G(d,p) empiricaldispersion=gd3bj scf=xqc pop=npa geom=c
 heck
 ----------------------------------------------------------------------

 ----------------------------------
 CID_57741635_JID_115_Energie_anion
 ----------------------------------
 Structure from the checkpoint file:  "JID_115.chk"
 Charge = -1 Multiplicity = 2

                         Standard orientation:
 ---------------------------------------------------------------------
 Center     Atomic      Atomic             Coordinates (Angstroms)
 Number     Number       Type             X           Y           Z
 ---------------------------------------------------------------------
      1          6           0        0.127549    1.575514    1.229680
      2          6           0        0.364020    1.105000   -0.210931
      3          6           0        1.861548    0.954208   -0.515721
      4          7           0        2.421374   -0.155941    0.255735
      5          6           0        1.834909   -1.433382   -0.143195
      6          6           0        0.334115   -1.423256    0.161730
      7          6           0       -0.343120   -0.240259   -0.547783
      8          6           0       -1.851127   -0.091825   -0.333155
      9          8           0       -2.485763    0.669323   -1.041536
     10          6           0       -2.522340   -0.870495    0.781413
     11          1           0        0.548429    0.872947    1.953891
     12          1           0       -0.939913    1.705954    1.438693
     13          1           0        0.613339    2.544272    1.392754
     14          1           0       -0.053081    1.855096   -0.892700
     15          1           0        1.988191    0.812864   -1.607697
     16          1           0        2.391922    1.872726   -0.239117
     17          1           0        3.430723   -0.185317    0.135326
     18          1           0        2.328336   -2.236647    0.415022
     19          1           0        1.975980   -1.645764   -1.222766
     20          1           0        0.198225   -1.357076    1.246460
     21          1           0       -0.110764   -2.370817   -0.166097
     22          1           0       -0.224218   -0.382343   -1.631702
     23          1           0       -2.397718   -1.949726    0.633333
     24          1           0       -2.061347   -0.629466    1.746788
     25          1           0       -3.584950   -0.622736    0.807728
 ---------------------------------------------------------------------

 SCF Done:  E(UB3LYP) =  -444.014078072     A.U. after   33 cycles
 SCF Done:  E(UB3LYP) =  -444.014078072     a.u. after    1 cycles

 The electronic state is 2-A.
 Alpha  occ. eigenvalues --  -19.01027 -14.18702 -10.15891 -10.08373 -10.08105
 Alpha  occ. eigenvalues --  -10.07534 -10.07400 -10.07021 -10.06027 -10.05312
 Alpha  occ. eigenvalues --   -0.94280  -0.80544  -0.70686  -0.66366  -0.63570
 Alpha  occ. eigenvalues --   -0.58592  -0.54721  -0.50534  -0.44928  -0.42104
 Alpha  occ. eigenvalues --   -0.40732  -0.36799  -0.35727  -0.34284  -0.34089
 Alpha  occ. eigenvalues --   -0.33661  -0.31902  -0.30613  -0.29468  -0.28344
 Alpha  occ. eigenvalues --   -0.27116  -0.26243  -0.25983  -0.24081  -0.23150
 Alpha  occ. eigenvalues --   -0.21244  -0.20660  -0.14803  -0.12102   0.04626
 Alpha virt. eigenvalues --    0.06953   0.07190   0.07948   0.08745   0.09453
 Alpha virt. eigenvalues --    0.09996   0.10562   0.10860   0.12048   0.12395
 Alpha virt. eigenvalues --    0.12753   0.13221   0.14084   0.15077   0.15263

  Beta  occ. eigenvalues --  -19.01024 -14.18670 -10.15887 -10.08350 -10.08072
  Beta  occ. eigenvalues --  -10.07526 -10.07398 -10.06981 -10.06003 -10.05290
  Beta  occ. eigenvalues --   -0.94272  -0.80497  -0.70655  -0.66324  -0.63515
  Beta  occ. eigenvalues --   -0.58545  -0.54662  -0.50467  -0.44859  -0.42055
  Beta  occ. eigenvalues --   -0.40654  -0.36770  -0.35696  -0.34248  -0.34048
  Beta  occ. eigenvalues --   -0.33615  -0.31865  -0.30581  -0.29429  -0.28301
  Beta  occ. eigenvalues --   -0.27082  -0.26215  -0.25940  -0.24034  -0.23119
  Beta  occ. eigenvalues --   -0.21214  -0.20623  -0.14787  -0.12033
  Beta virt. eigenvalues --    0.07049   0.07388   0.08057   0.08711   0.09278
  Beta virt. eigenvalues --    0.10153   0.10692   0.11083   0.11390   0.12331
  Beta virt. eigenvalues --    0.12842   0.13348   0.13689   0.14491   0.15356

 Mulliken charges and spin densities:
               1          2
     1  C    0.249283  -0.922858
     2  C   -1.008838   1.264530
     3  C    0.981121  -1.505311
     4  N   -0.507215   0.360174
     5  C    2.533698  -3.064703
     6  C   -1.677423   1.284164
     7  C    1.508370  -1.148454
     8  C   -1.310475   1.078867
     9  O   -0.246144  -0.007779
    10  C    0.927366  -1.389062
    11  H   -0.000109   0.178584
    12  H   -0.037602   0.195112
    13  H    0.082797   0.047905
    14  H    0.081293   0.146131
    15  H   -0.205309   0.307303
    16  H   -0.330146   0.500570
    17  H   -0.158323   0.421171
    18  H   -0.787606   0.968961
    19  H   -0.268988   0.396410
    20  H    0.107138   0.072245
    21  H   -0.229328   0.374502
    22  H    0.072196   0.159449
    23  H   -0.383109   0.553235
    24  H   -0.153004   0.320533
    25  H   -0.239643   0.408318
 Sum of Mulliken charges =  -1.00000   1.00000

 Dipole moment (field-independent basis, Debye):
    X=             -2.4375    Y=              2.8929    Z=             -0.1940  Tot=              3.7879
 Quadrupole moment (field-independent basis, Debye-Ang):
   XX=           -125.5512   YY=           -105.8179   ZZ=            -94.5926
   XY=              3.1062   XZ=             -0.4255   YZ=              2.2590

 Summary of Natural Population Analysis:

                                       Natural Population
                Natural  -----------------------------------------------
    Atom  No    Charge         Core      Valence    Rydberg      Total
 -----------------------------------------------------------------------
      C    1   -0.28930      0.99964     2.28436    0.00530     3.28930
      C    2   -0.10900      0.99958     2.09828    0.01114     3.10900
      C    3   -0.08398      0.99960     2.07172    0.01267     3.08398
      N    4   -0.34272      0.99974     2.82994    0.01304     3.84272
      C    5   -0.08309      0.99962     2.07133    0.01213     3.08309
      C    6   -0.19842      0.99961     2.18843    0.01037     3.19842
      C    7   -0.15399      0.99952     2.14180    0.01267     3.15399
      C    8    0.30577      0.99965     1.67268    0.02191     2.69423
      O    9   -0.29395      0.99987     3.28725    0.00683     4.29395
      C   10   -0.33832      0.99961     2.33289    0.00581     3.33832
      H   11    0.10520      0.00000     0.39325    0.00155     0.39480
      H   12    0.09707      0.00000     0.40197    0.00096     0.40293
      H   13    0.09946      0.00000     0.39962    0.00092     0.40054
      H   14    0.10329      0.00000     0.39516    0.00155     0.39671
      H   15    0.07949      0.00000     0.41865    0.00186     0.42051
      H   16    0.09677      0.00000     0.40190    0.00133     0.40323
      H   17    0.17953      0.00000     0.31543    0.00505     0.32047
      H   18    0.09912      0.00000     0.39863    0.00224     0.40088
      H   19    0.07623      0.00000     0.42142    0.00235     0.42377
      H   20    0.09975      0.00000     0.39841    0.00184     0.40025
      H   21    0.10335      0.00000     0.39480    0.00186     0.39665
      H   22    0.11121      0.00000     0.38697    0.00183     0.38879
      H   23    0.11481      0.00000     0.38358    0.00161     0.38519
      H   24    0.11302      0.00000     0.38550    0.00148     0.38698
      H   25    0.10871      0.00000     0.39021    0.00107     0.39129
 =======================================================================
   * Total *   -0.00000      9.99645    28.86418    0.13937    39.00000

 Normal termination of Gaussian 16 at Tue Dec  8 10:32:34 2020.
