 Gaussian 16, Revision A.03,

 -----------------------------------------------------------
 # opt freq B3LYP/6-31G(d) empiricaldispersion=gd3bj scf=xqc
 -----------------------------------------------------------

 ------------------------------
 CID_151135319_JID_884_neutraal
 ------------------------------
 Symbolic Z-matrix:
 Charge =  0 Multiplicity = 1

 SCF Done:  E(RB3LYP) =  -1171.41177217     A.U. after   15 cycles
 SCF Done:  E(RB3LYP) =  -1171.41797651     A.U. after   13 cycles
 SCF Done:  E(RB3LYP) =  -1171.42037226     A.U. after   13 cycles
 SCF Done:  E(RB3LYP) =  -1171.42105892     A.U. after   13 cycles
 SCF Done:  E(RB3LYP) =  -1171.42149606     A.U. after   12 cycles
 SCF Done:  E(RB3LYP) =  -1171.42162988     A.U. after   12 cycles
 SCF Done:  E(RB3LYP) =  -1171.42164128     A.U. after   11 cycles
 SCF Done:  E(RB3LYP) =  -1171.42164501     A.U. after   10 cycles
 SCF Done:  E(RB3LYP) =  -1171.42164721     A.U. after    8 cycles
 SCF Done:  E(RB3LYP) =  -1171.42164831     A.U. after    8 cycles
 SCF Done:  E(RB3LYP) =  -1171.42164873     A.U. after    8 cycles
 SCF Done:  E(RB3LYP) =  -1171.42164902     A.U. after    8 cycles
 SCF Done:  E(RB3LYP) =  -1171.42164905     A.U. after    7 cycles
 Optimization completed.
    -- Stationary point found.
 Normal termination of Gaussian 16 at Tue Dec  8 13:10:03 2020.

 --------------------------------------------------------------------
 #N Geom=AllCheck Guess=TCheck SCRF=Check GenChk RB3LYP/6-31G(d) Freq
 --------------------------------------------------------------------

 Structure from the checkpoint file:  "JID_884.chk"
 ------------------------------
 CID_151135319_JID_884_neutraal
 ------------------------------
 Charge =  0 Multiplicity = 1

 SCF Done:  E(RB3LYP) =  -1171.42164905     A.U. after    1 cycles

  Exact polarizability: 132.104   8.691 121.921   0.650   2.761  50.108
 Approx polarizability: 195.282   5.116 213.131  -0.708   5.524  79.476

                      1                      2                      3
                      A                      A                      A
 Frequencies --     52.4640                99.4829               120.1862
 Red. masses --      7.1364                 7.1496                 5.4756
 Frc consts  --      0.0116                 0.0417                 0.0466
 IR Inten    --      1.4396                 0.0993                 0.5959

                      4                      5                      6
                      A                      A                      A
 Frequencies --    146.1762               186.6763               211.6478
 Red. masses --      2.0619                 1.6056                 3.5842
 Frc consts  --      0.0260                 0.0330                 0.0946
 IR Inten    --      5.3302                17.7680                 3.1580

                      7                      8                      9
                      A                      A                      A
 Frequencies --    219.0265               290.1054               327.7927
 Red. masses --      6.9691                 1.2644                 6.8273
 Frc consts  --      0.1970                 0.0627                 0.4322
 IR Inten    --      3.7396                20.2734                18.1929

                     10                     11                     12
                      A                      A                      A
 Frequencies --    420.9893               442.5967               469.2275
 Red. masses --      5.4594                 3.2139                 4.6479
 Frc consts  --      0.5701                 0.3709                 0.6029
 IR Inten    --     32.6030                11.8042                15.4113

                     13                     14                     15
                      A                      A                      A
 Frequencies --    484.7338               520.2382               653.7815
 Red. masses --      1.5618                22.9995                 5.0843
 Frc consts  --      0.2162                 3.6675                 1.2804
 IR Inten    --    147.6454                 4.2306                12.5281

                     16                     17                     18
                      A                      A                      A
 Frequencies --    677.9691               736.6919               786.8033
 Red. masses --      4.3966                 6.4706                 3.2707
 Frc consts  --      1.1907                 2.0690                 1.1930
 IR Inten    --     13.8104                31.1789                 0.5426

                     19                     20                     21
                      A                      A                      A
 Frequencies --    816.2179               900.2160               943.8500
 Red. masses --      1.8848                 1.0671                 3.3203
 Frc consts  --      0.7398                 0.5095                 1.7428
 IR Inten    --     36.8988                16.1781                84.6004

                     22                     23                     24
                      A                      A                      A
 Frequencies --    991.7977               998.6457              1034.7160
 Red. masses --      1.3673                 8.8187                 3.2558
 Frc consts  --      0.7924                 5.1818                 2.0537
 IR Inten    --      0.3063                24.2934                21.2817

                     25                     26                     27
                      A                      A                      A
 Frequencies --   1122.5676              1210.5768              1242.7111
 Red. masses --      1.5495                 2.3744                 2.5009
 Frc consts  --      1.1504                 2.0502                 2.2756
 IR Inten    --      8.8023                48.7388                74.8457

                     28                     29                     30
                      A                      A                      A
 Frequencies --   1293.1629              1363.4510              1386.7021
 Red. masses --      4.6684                 1.5401                 1.4239
 Frc consts  --      4.5997                 1.6868                 1.6132
 IR Inten    --     83.6517                23.1236                20.7984

                     31                     32                     33
                      A                      A                      A
 Frequencies --   1405.0544              1489.2431              1518.2206
 Red. masses --      2.9251                 1.5110                 6.3053
 Frc consts  --      3.4024                 1.9745                 8.5629
 IR Inten    --    200.8251                31.1883               154.1306

                     34                     35                     36
                      A                      A                      A
 Frequencies --   1612.7046              1636.1826              1747.2880
 Red. masses --      4.1717                 6.3574                 1.0631
 Frc consts  --      6.3925                10.0275                 1.9123
 IR Inten    --    166.8277               452.9733                30.7327

                     37                     38                     39
                      A                      A                      A
 Frequencies --   2634.2757              3186.3565              3218.4308
 Red. masses --      1.0394                 1.0898                 1.0947
 Frc consts  --      4.2497                 6.5193                 6.6811
 IR Inten    --     20.0427                25.0512                11.2556

                     40                     41                     42
                      A                      A                      A
 Frequencies --   3436.6666              3510.7660              3624.8886
 Red. masses --      1.0485                 1.0934                 1.0780
 Frc consts  --      7.2959                 7.9405                 8.3456
 IR Inten    --      2.5366                 1.2456                54.8172

 - Thermochemistry -
 -------------------
 Temperature   298.150 Kelvin.  Pressure   1.00000 Atm.
 Atom     1 has atomic number  6 and mass  12.00000

 Molecular mass:   174.00339 amu.
 Principal axes and moments of inertia in atomic units:
                           1         2         3
     Eigenvalues --  1297.224192358.946663631.55126
           X            0.99994   0.00924   0.00532
           Y           -0.00927   0.99994   0.00634
           Z           -0.00527  -0.00639   0.99997
 This molecule is an asymmetric top.
 Rotational symmetry number  1.
 Warning -- assumption of classical behavior for rotation
           may cause significant error
 Rotational temperatures (Kelvin)      0.06677     0.03672     0.02385
 Rotational constants (GHZ):           1.39123     0.76506     0.49696
 Zero-point vibrational energy     294109.6 (Joules/Mol)
                                   70.29388 (Kcal/Mol)
 Warning -- explicit consideration of  14 degrees of freedom as
           vibrations may cause significant error
 Vibrational temperatures:     75.48   143.13   172.92   210.31   268.59
          (Kelvin)            304.51   315.13   417.40   471.62   605.71
                              636.80   675.11   697.42   748.51   940.65
                              975.45  1059.94  1132.03  1174.36  1295.21
                             1357.99  1426.98  1436.83  1488.73  1615.12
                             1741.75  1787.98  1860.57  1961.70  1995.16
                             2021.56  2142.69  2184.38  2320.32  2354.10
                             2513.96  3790.14  4584.46  4630.60  4944.60
                             5051.21  5215.41

 Zero-point correction=                           0.112020 (Hartree/Particle)
 Thermal correction to Energy=                    0.122315
 Thermal correction to Enthalpy=                  0.123259
 Thermal correction to Gibbs Free Energy=         0.075233
 Sum of electronic and zero-point Energies=          -1171.309629
 Sum of electronic and thermal Energies=             -1171.299334
 Sum of electronic and thermal Enthalpies=           -1171.298390
 Sum of electronic and thermal Free Energies=        -1171.346416

                     E (Thermal)             CV                S
                      KCal/Mol        Cal/Mol-Kelvin    Cal/Mol-Kelvin
 Total                   76.754             36.440            101.080
 Electronic               0.000              0.000              0.000
 Translational            0.889              2.981             41.369
 Rotational               0.889              2.981             30.786
 Vibrational             74.976             30.479             28.925
 Vibration     1          0.596              1.977              4.722
 Vibration     2          0.604              1.949              3.464
 Vibration     3          0.609              1.932              3.097
 Vibration     4          0.617              1.907              2.721
 Vibration     5          0.632              1.858              2.261
 Vibration     6          0.643              1.823              2.029
 Vibration     7          0.647              1.812              1.967
 Vibration     8          0.686              1.692              1.473
 Vibration     9          0.711              1.620              1.271
 Vibration    10          0.783              1.425              0.889
 Vibration    11          0.802              1.377              0.818
 Vibration    12          0.826              1.318              0.740
 Vibration    13          0.841              1.284              0.697
 Vibration    14          0.875              1.205              0.609

 Optimization completed.
    -- Stationary point found.
 Normal termination of Gaussian 16 at Tue Dec  8 13:17:02 2020.

 ----------------------------------------------------------------------
 # B3LYP/6-311++G(d,p) empiricaldispersion=gd3bj scf=xqc pop=npa geom=c
 heck
 ----------------------------------------------------------------------

 --------------------------------------
 CID_151135319_JID_884_Energie_neutraal
 --------------------------------------
 Structure from the checkpoint file:  "JID_884.chk"
 Charge =  0 Multiplicity = 1

 SCF Done:  E(RB3LYP) =  -1171.58880521     A.U. after   15 cycles
 Normal termination of Gaussian 16 at Tue Dec  8 13:23:33 2020.

 ----------------------------------------------------------------------
 # B3LYP/6-311++G(d,p) empiricaldispersion=gd3bj scf=xqc pop=npa geom=c
 heck
 ----------------------------------------------------------------------

 ------------------------------------
 CID_151135319_JID_884_Energie_kation
 ------------------------------------
 Structure from the checkpoint file:  "JID_884.chk"
 Charge =  1 Multiplicity = 2

 SCF Done:  E(UB3LYP) =  -1171.28245771     A.U. after   25 cycles
 Normal termination of Gaussian 16 at Tue Dec  8 13:27:39 2020.
 Gaussian 16:  ES64L-G16RevA.03 25-Dec-2016

 ----------------------------------------------------------------------
 # B3LYP/6-311++G(d,p) empiricaldispersion=gd3bj scf=xqc pop=npa geom=c
 heck
 ----------------------------------------------------------------------

 -----------------------------------
 CID_151135319_JID_884_Energie_anion
 -----------------------------------
 Structure from the checkpoint file:  "JID_884.chk"
 Charge = -1 Multiplicity = 2

                         Standard orientation:
 ---------------------------------------------------------------------
 Center     Atomic      Atomic             Coordinates (Angstroms)
 Number     Number       Type             X           Y           Z
 ---------------------------------------------------------------------
      1          6           0       -2.375013   -1.066449   -0.020584
      2          6           0       -1.551749   -2.175684   -0.043805
      3          7           0       -0.207116   -2.100225   -0.030558
      4          6           0        0.276459   -0.861723    0.017371
      5          7           0       -0.389503    0.285384    0.062073
      6          6           0       -1.729700    0.189286    0.035895
      7          7           0       -2.433069    1.358901    0.083049
      8          7           0       -1.815611    2.615787   -0.077623
      9         16           0        2.074890   -0.861113    0.048732
     10         16           0        2.610433    1.142709   -0.118852
     11          1           0       -3.455952   -1.154369   -0.037566
     12          1           0       -1.972197   -3.178323   -0.081154
     13          1           0       -3.405540    1.344521   -0.188928
     14          1           0       -1.359188    2.841713    0.806434
     15          1           0       -1.051714    2.500879   -0.747225
     16          1           0        2.476536    1.508521    1.178504
 ---------------------------------------------------------------------

 SCF Done:  E(UB3LYP) =  -1171.58452188     A.U. after   33 cycles
 SCF Done:  E(UB3LYP) =  -1171.58452188     a.u. after    1 cycles

 The electronic state is 2-A.
 Alpha  occ. eigenvalues --  -88.73858 -88.73211 -14.25552 -14.23117 -14.19605
 Alpha  occ. eigenvalues --  -14.19422 -10.15222 -10.14740 -10.10566 -10.06834
 Alpha  occ. eigenvalues --   -7.82413  -7.81844  -5.78877  -5.78401  -5.78282
 Alpha  occ. eigenvalues --   -5.77858  -5.77795  -5.77173  -0.90909  -0.86696
 Alpha  occ. eigenvalues --   -0.77763  -0.72139  -0.68052  -0.64681  -0.57041
 Alpha  occ. eigenvalues --   -0.54070  -0.50936  -0.43545  -0.42637  -0.40217
 Alpha  occ. eigenvalues --   -0.37616  -0.35947  -0.33567  -0.32591  -0.30182
 Alpha  occ. eigenvalues --   -0.27128  -0.24167  -0.22307  -0.19845  -0.19439
 Alpha  occ. eigenvalues --   -0.17971  -0.15142  -0.14044  -0.12989  -0.11236
 Alpha  occ. eigenvalues --    0.04441
 Alpha virt. eigenvalues --    0.06217   0.07494   0.08421   0.08584   0.09300
 Alpha virt. eigenvalues --    0.10278   0.11223   0.11845   0.13538   0.13699
 Alpha virt. eigenvalues --    0.14766   0.15416   0.15800   0.16207   0.17375

  Beta  occ. eigenvalues --  -88.73763 -88.73121 -14.25525 -14.23093 -14.19534
  Beta  occ. eigenvalues --  -14.19428 -10.15225 -10.14694 -10.10467 -10.06793
  Beta  occ. eigenvalues --   -7.82320  -7.81743  -5.78660  -5.78304  -5.78152
  Beta  occ. eigenvalues --   -5.77731  -5.77723  -5.77101  -0.90849  -0.86614
  Beta  occ. eigenvalues --   -0.77676  -0.71999  -0.67696  -0.64435  -0.56735
  Beta  occ. eigenvalues --   -0.53966  -0.50643  -0.43461  -0.42518  -0.40170
  Beta  occ. eigenvalues --   -0.37520  -0.35837  -0.33381  -0.32373  -0.30026
  Beta  occ. eigenvalues --   -0.26911  -0.24043  -0.21671  -0.19483  -0.19297
  Beta  occ. eigenvalues --   -0.17911  -0.15031  -0.13847  -0.12772  -0.11026
  Beta virt. eigenvalues --    0.07294   0.07821   0.08192   0.08951   0.09021
  Beta virt. eigenvalues --    0.09734   0.10549   0.11581   0.12313   0.13641
  Beta virt. eigenvalues --    0.13842   0.15051   0.15312   0.15882   0.16296

 Mulliken charges and spin densities:
               1          2
     1  C    0.647505  -0.485829
     2  C    0.112251  -0.199097
     3  N   -0.018977   0.009551
     4  C    0.009802  -0.249178
     5  N   -0.102060   0.016162
     6  C    0.023511  -0.238363
     7  N   -0.127492  -0.018881
     8  N   -0.356271   0.038938
     9  S   -0.300849   0.107941
    10  S    0.303466  -0.359264
    11  H   -0.866127   1.041431
    12  H    0.056408   0.106860
    13  H   -0.143028   0.434369
    14  H    0.104223   0.149741
    15  H    0.091861   0.158342
    16  H   -0.434223   0.487278
 Sum of Mulliken charges =  -1.00000   1.00000

 Dipole moment (field-independent basis, Debye):
    X=              0.5201    Y=             -1.7024    Z=              0.2642  Tot=              1.7996
 Quadrupole moment (field-independent basis, Debye-Ang):
   XX=           -131.1294   YY=           -109.2649   ZZ=            -87.7340
   XY=             -1.2630   XZ=             -1.8896   YZ=              0.5363

 Summary of Natural Population Analysis:

                                       Natural Population
                Natural  -----------------------------------------------
    Atom  No    Charge         Core      Valence    Rydberg      Total
 -----------------------------------------------------------------------
      C    1   -0.16950      0.99952     2.16069    0.00929     3.16950
      C    2    0.06030      0.99959     1.92503    0.01508     2.93970
      N    3   -0.28145      0.99966     2.77036    0.01144     3.78145
      C    4    0.15658      0.99956     1.81907    0.02479     2.84342
      N    5   -0.28569      0.99960     2.77213    0.01396     3.78569
      C    6    0.21085      0.99953     1.77435    0.01527     2.78915
      N    7   -0.21746      0.99965     2.70419    0.01362     3.71746
      N    8   -0.31610      0.99978     2.80547    0.01085     3.81610
      S    9    0.09506      4.99958     2.88208    0.02328     7.90494
      S   10   -0.04914      4.99972     3.03164    0.01778     8.04914
      H   11    0.10762      0.00000     0.39040    0.00198     0.39238
      H   12    0.08825      0.00000     0.41067    0.00108     0.41175
      H   13    0.18967      0.00000     0.30515    0.00518     0.31033
      H   14    0.17510      0.00000     0.32236    0.00254     0.32490
      H   15    0.17925      0.00000     0.31814    0.00261     0.32075
      H   16    0.05667      0.00000     0.43957    0.00376     0.44333
 =======================================================================
   * Total *    0.00000     17.99618    26.83129    0.17253    45.00000

 Normal termination of Gaussian 16 at Tue Dec  8 13:32:36 2020.
