 Gaussian 16, Revision A.03,

 -----------------------------------------------------------
 # opt freq B3LYP/6-31G(d) empiricaldispersion=gd3bj scf=xqc
 -----------------------------------------------------------

 ------------------------------
 CID_43145838_JID_6278_neutraal
 ------------------------------
 Symbolic Z-matrix:
 Charge =  0 Multiplicity = 1

 SCF Done:  E(RB3LYP) =  -725.663971161     A.U. after   15 cycles
 SCF Done:  E(RB3LYP) =  -725.669820941     A.U. after   13 cycles
 SCF Done:  E(RB3LYP) =  -725.670912412     A.U. after   12 cycles
 SCF Done:  E(RB3LYP) =  -725.670983643     A.U. after   12 cycles
 SCF Done:  E(RB3LYP) =  -725.671268244     A.U. after   13 cycles
 SCF Done:  E(RB3LYP) =  -725.671588405     A.U. after   11 cycles
 SCF Done:  E(RB3LYP) =  -725.671725361     A.U. after   12 cycles
 SCF Done:  E(RB3LYP) =  -725.671762918     A.U. after   10 cycles
 SCF Done:  E(RB3LYP) =  -725.671776111     A.U. after   10 cycles
 SCF Done:  E(RB3LYP) =  -725.671787954     A.U. after   10 cycles
 SCF Done:  E(RB3LYP) =  -725.671793200     A.U. after    8 cycles
 SCF Done:  E(RB3LYP) =  -725.671793937     A.U. after   10 cycles
 SCF Done:  E(RB3LYP) =  -725.671794121     A.U. after    9 cycles
 SCF Done:  E(RB3LYP) =  -725.671794141     A.U. after    8 cycles
 SCF Done:  E(RB3LYP) =  -725.671794147     A.U. after    7 cycles
 Optimization completed.
    -- Stationary point found.
 Normal termination of Gaussian 16 at Thu Dec 10 22:05:46 2020.

 --------------------------------------------------------------------
 #N Geom=AllCheck Guess=TCheck SCRF=Check GenChk RB3LYP/6-31G(d) Freq
 --------------------------------------------------------------------

 Structure from the checkpoint file:  "JID_6278.chk"
 ------------------------------
 CID_43145838_JID_6278_neutraal
 ------------------------------
 Charge =  0 Multiplicity = 1

 SCF Done:  E(RB3LYP) =  -725.671794147     A.U. after    1 cycles

  Exact polarizability: 204.830 -10.616 155.583  16.831   5.749  81.987
 Approx polarizability: 293.582  -7.859 249.188  36.626  15.145 124.728

                      1                      2                      3
                      A                      A                      A
 Frequencies --     15.9277                28.9981                44.7295
 Red. masses --      4.9645                 3.1441                 4.2347
 Frc consts  --      0.0007                 0.0016                 0.0050
 IR Inten    --      0.1727                 0.1323                 0.3006

                      4                      5                      6
                      A                      A                      A
 Frequencies --     61.2178                98.3396               124.7995
 Red. masses --      3.3139                 4.4353                 4.6597
 Frc consts  --      0.0073                 0.0253                 0.0428
 IR Inten    --      0.0079                13.0918                 2.2159

                      7                      8                      9
                      A                      A                      A
 Frequencies --    140.6653               186.4532               225.3236
 Red. masses --      5.2509                 5.4553                 1.1067
 Frc consts  --      0.0612                 0.1117                 0.0331
 IR Inten    --      1.1338                 3.6093                 0.1180

                     10                     11                     12
                      A                      A                      A
 Frequencies --    242.6549               261.3028               275.7580
 Red. masses --      1.3866                 2.1415                 3.4458
 Frc consts  --      0.0481                 0.0861                 0.1544
 IR Inten    --      0.5533                 1.5740                 0.0135

                     13                     14                     15
                      A                      A                      A
 Frequencies --    295.2677               306.3384               367.0599
 Red. masses --      2.5967                 3.9426                 4.1720
 Frc consts  --      0.1334                 0.2180                 0.3312
 IR Inten    --      0.3631                 0.7780                 0.1681

                     16                     17                     18
                      A                      A                      A
 Frequencies --    389.1133               411.3845               434.9401
 Red. masses --      4.6864                 2.4818                 2.3051
 Frc consts  --      0.4181                 0.2475                 0.2569
 IR Inten    --      0.4956                 0.7609                 1.3096

                     19                     20                     21
                      A                      A                      A
 Frequencies --    490.1971               550.2489               609.1688
 Red. masses --      4.9072                 4.8123                 3.2955
 Frc consts  --      0.6947                 0.8585                 0.7205
 IR Inten    --      9.6242                 3.3370                 5.1648

                     22                     23                     24
                      A                      A                      A
 Frequencies --    641.4106               664.2461               739.1834
 Red. masses --      4.8028                 5.8139                 2.7760
 Frc consts  --      1.1642                 1.5114                 0.8937
 IR Inten    --      3.8954                 4.2602                 0.1475

                     25                     26                     27
                      A                      A                      A
 Frequencies --    750.2161               770.5898               802.6009
 Red. masses --      1.5694                 4.6103                 5.3791
 Frc consts  --      0.5204                 1.6130                 2.0416
 IR Inten    --     51.1025                27.3372                62.9253

                     28                     29                     30
                      A                      A                      A
 Frequencies --    808.8273               822.4932               829.8605
 Red. masses --      1.4351                 1.3610                 2.7090
 Frc consts  --      0.5532                 0.5425                 1.0992
 IR Inten    --      9.4124                19.7755                 1.8135

                     31                     32                     33
                      A                      A                      A
 Frequencies --    874.9253               911.1958               914.7366
 Red. masses --      1.3306                 6.1392                 1.4080
 Frc consts  --      0.6001                 3.0032                 0.6941
 IR Inten    --      1.2986                10.8241                 1.9414

                     34                     35                     36
                      A                      A                      A
 Frequencies --    929.5238               948.9727               964.7389
 Red. masses --      4.9117                 1.1960                 1.8871
 Frc consts  --      2.5004                 0.6346                 1.0348
 IR Inten    --     14.3452                 4.7650                 3.6854

                     37                     38                     39
                      A                      A                      A
 Frequencies --    983.2537              1020.3450              1035.9266
 Red. masses --      1.4942                 1.7694                 3.8143
 Frc consts  --      0.8511                 1.0854                 2.4117
 IR Inten    --      0.0210                 0.6346                15.5583

                     40                     41                     42
                      A                      A                      A
 Frequencies --   1042.9584              1091.5611              1138.3360
 Red. masses --      1.5153                 1.9799                 2.6989
 Frc consts  --      0.9711                 1.3899                 2.0605
 IR Inten    --     23.9941                 1.7894                 4.0895

                     43                     44                     45
                      A                      A                      A
 Frequencies --   1148.8911              1158.1735              1178.9053
 Red. masses --      2.2630                 2.2854                 1.7725
 Frc consts  --      1.7599                 1.8062                 1.4514
 IR Inten    --     37.0785                 0.1228                37.8940

                     46                     47                     48
                      A                      A                      A
 Frequencies --   1200.5340              1209.6882              1256.0675
 Red. masses --      2.0425                 1.7415                 2.0218
 Frc consts  --      1.7344                 1.5015                 1.8794
 IR Inten    --      4.4768                 7.0015                 6.4252

                     49                     50                     51
                      A                      A                      A
 Frequencies --   1266.6792              1307.8730              1345.8618
 Red. masses --      2.0074                 7.2439                 1.8425
 Frc consts  --      1.8977                 7.3005                 1.9664
 IR Inten    --      7.2099                 2.0506                12.9925

                     52                     53                     54
                      A                      A                      A
 Frequencies --   1347.3171              1381.5775              1395.0706
 Red. masses --      1.5105                 4.5363                 1.3990
 Frc consts  --      1.6155                 5.1016                 1.6042
 IR Inten    --      1.1955                28.9632                 5.1075

                     55                     56                     57
                      A                      A                      A
 Frequencies --   1410.2138              1431.9163              1433.1838
 Red. masses --      1.4279                 2.5240                 1.3163
 Frc consts  --      1.6731                 3.0491                 1.5930
 IR Inten    --     14.6845                13.9326                 5.4689

                     58                     59                     60
                      A                      A                      A
 Frequencies --   1452.3590              1457.7897              1471.0560
 Red. masses --      1.2752                 1.5113                 4.4582
 Frc consts  --      1.5848                 1.8923                 5.6841
 IR Inten    --      9.4345                12.1704                49.5835

                     61                     62                     63
                      A                      A                      A
 Frequencies --   1505.5265              1509.9855              1518.9485
 Red. masses --      1.6480                 1.8484                 1.0529
 Frc consts  --      2.2008                 2.4831                 1.4313
 IR Inten    --     25.9532                 3.1487                 2.9269

                     64                     65                     66
                      A                      A                      A
 Frequencies --   1525.6413              1535.7848              1541.0548
 Red. masses --      1.0624                 1.0614                 1.0548
 Frc consts  --      1.4570                 1.4749                 1.4759
 IR Inten    --      1.8364                 2.7340                13.0709

                     67                     68                     69
                      A                      A                      A
 Frequencies --   1546.2968              1581.0028              1647.4664
 Red. masses --      4.6119                 5.1089                 7.5187
 Frc consts  --      6.4970                 7.5239                12.0234
 IR Inten    --     36.1007               119.3242                23.8037

                     70                     71                     72
                      A                      A                      A
 Frequencies --   1803.2383              2867.7129              3039.7603
 Red. masses --      9.8661                 1.0812                 1.0387
 Frc consts  --     18.9018                 5.2388                 5.6550
 IR Inten    --    252.7732               178.6598                22.6563

                     73                     74                     75
                      A                      A                      A
 Frequencies --   3043.0678              3060.7564              3073.1988
 Red. masses --      1.0419                 1.0782                 1.0608
 Frc consts  --      5.6845                 5.9512                 5.9028
 IR Inten    --     21.8687                 3.0418                39.8125

                     76                     77                     78
                      A                      A                      A
 Frequencies --   3104.1381              3110.2232              3122.2700
 Red. masses --      1.1002                 1.0987                 1.1016
 Frc consts  --      6.2461                 6.2617                 6.3275
 IR Inten    --     15.3133                25.0924                30.2056

                     79                     80                     81
                      A                      A                      A
 Frequencies --   3123.8521              3130.0639              3268.6689
 Red. masses --      1.1061                 1.1021                 1.0912
 Frc consts  --      6.3595                 6.3620                 6.8689
 IR Inten    --     28.1895                34.2476                 6.4725

                     82                     83                     84
                      A                      A                      A
 Frequencies --   3272.4327              3288.3545              3306.2113
 Red. masses --      1.0975                 1.0975                 1.1042
 Frc consts  --      6.9244                 6.9922                 7.1113
 IR Inten    --      0.2083                 0.2900                 0.7431

 - Thermochemistry -
 -------------------
 Temperature   298.150 Kelvin.  Pressure   1.00000 Atm.
 Atom     1 has atomic number  6 and mass  12.00000

 Molecular mass:   218.10553 amu.
 Principal axes and moments of inertia in atomic units:
                           1         2         3
     Eigenvalues --  1961.884745925.135057305.39445
           X            0.99999  -0.00150  -0.00462
           Y            0.00151   1.00000   0.00229
           Z            0.00462  -0.00229   0.99999
 This molecule is an asymmetric top.
 Rotational symmetry number  1.
 Warning -- assumption of classical behavior for rotation
           may cause significant error
 Rotational temperatures (Kelvin)      0.04415     0.01462     0.01186
 Rotational constants (GHZ):           0.91990     0.30459     0.24704
 Zero-point vibrational energy     643738.1 (Joules/Mol)
                                  153.85710 (Kcal/Mol)
 Warning -- explicit consideration of  21 degrees of freedom as
           vibrations may cause significant error
 Vibrational temperatures:     22.92    41.72    64.36    88.08   141.49
          (Kelvin)            179.56   202.39   268.26   324.19   349.13
                              375.96   396.75   424.82   440.75   528.12
                              559.85   591.89   625.78   705.28   791.69
                              876.46   922.85   955.70  1063.52  1079.39
                             1108.71  1154.76  1163.72  1183.38  1193.98
                             1258.82  1311.01  1316.10  1337.38  1365.36
                             1388.04  1414.68  1468.05  1490.47  1500.58
                             1570.51  1637.81  1653.00  1666.35  1696.18
                             1727.30  1740.47  1807.20  1822.47  1881.74
                             1936.39  1938.49  1987.78  2007.20  2028.98
                             2060.21  2062.03  2089.62  2097.43  2116.52
                             2166.12  2172.53  2185.43  2195.06  2209.65
                             2217.23  2224.78  2274.71  2370.34  2594.46
                             4126.00  4373.54  4378.30  4403.75  4421.65
                             4466.16  4474.92  4492.25  4494.53  4503.46
                             4702.89  4708.30  4731.21  4756.90

 Zero-point correction=                           0.245187 (Hartree/Particle)
 Thermal correction to Energy=                    0.260288
 Thermal correction to Enthalpy=                  0.261232
 Thermal correction to Gibbs Free Energy=         0.200326
 Sum of electronic and zero-point Energies=           -725.426607
 Sum of electronic and thermal Energies=              -725.411506
 Sum of electronic and thermal Enthalpies=            -725.410562
 Sum of electronic and thermal Free Energies=         -725.471469

                     E (Thermal)             CV                S
                      KCal/Mol        Cal/Mol-Kelvin    Cal/Mol-Kelvin
 Total                  163.333             55.732            128.189
 Electronic               0.000              0.000              0.000
 Translational            0.889              2.981             42.042
 Rotational               0.889              2.981             32.807
 Vibrational            161.556             49.771             53.340
 Vibration     1          0.593              1.986              7.086
 Vibration     2          0.593              1.984              5.897
 Vibration     3          0.595              1.980              5.038
 Vibration     4          0.597              1.973              4.418
 Vibration     5          0.604              1.950              3.487
 Vibration     6          0.610              1.928              3.025
 Vibration     7          0.615              1.913              2.795
 Vibration     8          0.632              1.858              2.263
 Vibration     9          0.650              1.802              1.916
 Vibration    10          0.659              1.775              1.783
 Vibration    11          0.669              1.744              1.653
 Vibration    12          0.677              1.718              1.560
 Vibration    13          0.689              1.683              1.444
 Vibration    14          0.697              1.662              1.382
 Vibration    15          0.740              1.540              1.092
 Vibration    16          0.757              1.493              1.004
 Vibration    17          0.775              1.446              0.922
 Vibration    18          0.796              1.394              0.843
 Vibration    19          0.846              1.272              0.683
 Vibration    20          0.906              1.139              0.544
 Vibration    21          0.968              1.012              0.434

 Optimization completed.
    -- Stationary point found.
 Normal termination of Gaussian 16 at Thu Dec 10 22:14:59 2020.

 ----------------------------------------------------------------------
 # B3LYP/6-311++G(d,p) empiricaldispersion=gd3bj scf=xqc pop=npa geom=c
 heck
 ----------------------------------------------------------------------

 --------------------------------------
 CID_43145838_JID_6278_Energie_neutraal
 --------------------------------------
 Structure from the checkpoint file:  "JID_6278.chk"
 Charge =  0 Multiplicity = 1

 SCF Done:  E(RB3LYP) =  -725.867968248     A.U. after   15 cycles
 Normal termination of Gaussian 16 at Thu Dec 10 22:18:32 2020.

 ----------------------------------------------------------------------
 # B3LYP/6-311++G(d,p) empiricaldispersion=gd3bj scf=xqc pop=npa geom=c
 heck
 ----------------------------------------------------------------------

 ------------------------------------
 CID_43145838_JID_6278_Energie_kation
 ------------------------------------
 Structure from the checkpoint file:  "JID_6278.chk"
 Charge =  1 Multiplicity = 2

 SCF Done:  E(UB3LYP) =  -725.586298037     A.U. after   24 cycles
 Normal termination of Gaussian 16 at Thu Dec 10 22:26:51 2020.
 Gaussian 16:  ES64L-G16RevA.03 25-Dec-2016

 ----------------------------------------------------------------------
 # B3LYP/6-311++G(d,p) empiricaldispersion=gd3bj scf=xqc pop=npa geom=c
 heck
 ----------------------------------------------------------------------

 -----------------------------------
 CID_43145838_JID_6278_Energie_anion
 -----------------------------------
 Structure from the checkpoint file:  "JID_6278.chk"
 Charge = -1 Multiplicity = 2

                         Standard orientation:
 ---------------------------------------------------------------------
 Center     Atomic      Atomic             Coordinates (Angstroms)
 Number     Number       Type             X           Y           Z
 ---------------------------------------------------------------------
      1          6           0       -3.323744    0.111054    1.586106
      2          6           0       -3.375809   -0.743725    0.316513
      3          6           0       -4.807243   -1.176416   -0.018004
      4          6           0       -2.773640   -0.001810   -0.886625
      5          7           0       -1.388594    0.386259   -0.666587
      6          6           0       -0.887484    1.616339   -0.459453
      7          6           0        0.474799    1.476989   -0.198175
      8          6           0        0.694941    0.057830   -0.264225
      9          7           0       -0.447384   -0.582572   -0.542698
     10          6           0        1.892943   -0.736265   -0.096302
     11          6           0        2.129570   -2.067776   -0.332127
     12          6           0        3.488024   -2.307907    0.034473
     13          6           0        3.979303   -1.109955    0.467553
     14          8           0        3.023185   -0.148138    0.395088
     15          6           0        1.344731    2.628832    0.022055
     16          8           0        2.546752    2.626411    0.206416
     17          1           0       -3.903215    1.035617    1.461879
     18          1           0       -2.295925    0.385178    1.844011
     19          1           0       -3.747845   -0.434711    2.435578
     20          1           0       -2.761373   -1.638746    0.473713
     21          1           0       -5.452820   -0.305240   -0.188920
     22          1           0       -4.839798   -1.801797   -0.917725
     23          1           0       -5.239992   -1.752025    0.806799
     24          1           0       -2.805108   -0.633263   -1.779854
     25          1           0       -3.334856    0.915418   -1.094999
     26          1           0       -1.504672    2.502113   -0.513132
     27          1           0        1.411150   -2.772946   -0.722843
     28          1           0        4.026282   -3.243565   -0.020315
     29          1           0        4.938579   -0.783967    0.838231
     30          1           0        0.783589    3.592803   -0.000199
 ---------------------------------------------------------------------

 SCF Done:  E(UB3LYP) =  -725.867936285     A.U. after   33 cycles
 SCF Done:  E(UB3LYP) =  -725.867936285     a.u. after    1 cycles

 The electronic state is 2-A.
 Alpha  occ. eigenvalues --  -19.05973 -18.95389 -14.28383 -14.20731 -10.11578
 Alpha  occ. eigenvalues --  -10.10367 -10.10121 -10.09968 -10.09693 -10.08453
 Alpha  occ. eigenvalues --  -10.08079 -10.06851 -10.06451 -10.05921 -10.05209
 Alpha  occ. eigenvalues --  -10.04571  -0.99038  -0.94131  -0.88899  -0.75351
 Alpha  occ. eigenvalues --   -0.70472  -0.68186  -0.67747  -0.63876  -0.59542
 Alpha  occ. eigenvalues --   -0.58848  -0.53245  -0.49640  -0.48853  -0.46283
 Alpha  occ. eigenvalues --   -0.45534  -0.43098  -0.40820  -0.39248  -0.38117
 Alpha  occ. eigenvalues --   -0.36189  -0.34196  -0.33662  -0.33411  -0.31894
 Alpha  occ. eigenvalues --   -0.31089  -0.30363  -0.29730  -0.29364  -0.28958
 Alpha  occ. eigenvalues --   -0.28501  -0.26594  -0.25869  -0.24952  -0.24776
 Alpha  occ. eigenvalues --   -0.24206  -0.23978  -0.18366  -0.17732  -0.16507
 Alpha  occ. eigenvalues --   -0.13867  -0.10968  -0.09500   0.04184
 Alpha virt. eigenvalues --    0.05715   0.07619   0.07988   0.08133   0.08997
 Alpha virt. eigenvalues --    0.09548   0.10053   0.10285   0.10702   0.11423
 Alpha virt. eigenvalues --    0.11692   0.12203   0.12986   0.13384   0.13878

  Beta  occ. eigenvalues --  -19.05852 -18.95026 -14.28449 -14.20606 -10.11560
  Beta  occ. eigenvalues --  -10.10357 -10.10023 -10.09754 -10.09627 -10.08455
  Beta  occ. eigenvalues --  -10.07900 -10.06813 -10.06431 -10.05965 -10.05204
  Beta  occ. eigenvalues --  -10.04467  -0.98846  -0.94070  -0.88237  -0.75248
  Beta  occ. eigenvalues --   -0.70369  -0.68071  -0.67566  -0.63718  -0.59483
  Beta  occ. eigenvalues --   -0.58677  -0.52804  -0.49512  -0.48742  -0.46124
  Beta  occ. eigenvalues --   -0.45395  -0.43004  -0.40623  -0.39168  -0.38062
  Beta  occ. eigenvalues --   -0.36104  -0.34053  -0.33403  -0.33067  -0.31753
  Beta  occ. eigenvalues --   -0.30869  -0.30282  -0.29673  -0.29190  -0.28913
  Beta  occ. eigenvalues --   -0.28388  -0.26386  -0.25350  -0.24762  -0.24684
  Beta  occ. eigenvalues --   -0.23947  -0.23037  -0.18181  -0.17054  -0.16105
  Beta  occ. eigenvalues --   -0.13053  -0.10653  -0.08929
  Beta virt. eigenvalues --    0.06405   0.07958   0.08072   0.08326   0.08629
  Beta virt. eigenvalues --    0.09356   0.10033   0.10123   0.10499   0.11018
  Beta virt. eigenvalues --    0.11484   0.11873   0.12370   0.13199   0.13592

 Mulliken charges and spin densities:
               1          2
     1  C   -0.198256  -0.418711
     2  C   -0.719028   1.230944
     3  C    0.756224  -1.430971
     4  C    0.113875  -0.720756
     5  N    0.467798   0.009801
     6  C   -0.452990   0.129125
     7  C    0.605654  -0.088064
     8  C    0.135613   0.058053
     9  N   -0.289398   0.073750
    10  C   -0.275735  -0.027887
    11  C   -0.081004   0.130920
    12  C   -0.355924  -0.069368
    13  C   -0.033786   0.101900
    14  O    0.022310   0.019953
    15  C   -0.536099   0.110257
    16  O   -0.353370   0.121606
    17  H    0.041184   0.103097
    18  H    0.166842  -0.016902
    19  H   -0.071345   0.208784
    20  H    0.256108  -0.057169
    21  H   -0.313119   0.448400
    22  H   -0.193730   0.325348
    23  H   -0.203413   0.342574
    24  H    0.046073   0.132712
    25  H    0.034500   0.120403
    26  H    0.002421   0.155433
    27  H    0.127668   0.027498
    28  H    0.128097   0.001355
    29  H    0.145196  -0.004806
    30  H    0.027633  -0.017279
 Sum of Mulliken charges =  -1.00000   1.00000

 Dipole moment (field-independent basis, Debye):
    X=              0.5739    Y=             -1.6813    Z=             -0.2530  Tot=              1.7945
 Quadrupole moment (field-independent basis, Debye-Ang):
   XX=           -172.6054   YY=           -123.6529   ZZ=           -112.2779
   XY=            -17.5028   XZ=              1.2609   YZ=             -1.9176

 Summary of Natural Population Analysis:

                                       Natural Population
                Natural  -----------------------------------------------
    Atom  No    Charge         Core      Valence    Rydberg      Total
 -----------------------------------------------------------------------
      C    1   -0.28805      0.99965     2.28244    0.00596     3.28805
      C    2   -0.12214      0.99961     2.11379    0.00874     3.12214
      C    3   -0.28519      0.99965     2.27979    0.00575     3.28519
      C    4   -0.07557      0.99958     2.06397    0.01202     3.07557
      N    5   -0.11442      0.99965     2.60234    0.01243     3.61442
      C    6    0.01965      0.99953     1.96905    0.01177     2.98035
      C    7   -0.10830      0.99948     2.09985    0.00897     3.10830
      C    8    0.09253      0.99952     1.89476    0.01319     2.90747
      N    9   -0.14137      0.99971     2.63108    0.01059     3.64137
      C   10    0.14111      0.99943     1.84638    0.01309     2.85889
      C   11   -0.12354      0.99953     2.11627    0.00773     3.12354
      C   12   -0.17149      0.99958     2.16370    0.00821     3.17149
      C   13    0.07221      0.99953     1.91395    0.01431     2.92779
      O   14   -0.20462      0.99986     3.19680    0.00796     4.20462
      C   15    0.22443      0.99968     1.75545    0.02044     2.77557
      O   16   -0.24654      0.99988     3.23922    0.00744     4.24654
      H   17    0.09521      0.00000     0.40387    0.00092     0.40479
      H   18    0.10671      0.00000     0.39242    0.00086     0.39329
      H   19    0.09919      0.00000     0.40012    0.00069     0.40081
      H   20    0.10328      0.00000     0.39462    0.00210     0.39672
      H   21    0.09762      0.00000     0.40075    0.00162     0.40238
      H   22    0.09925      0.00000     0.39973    0.00102     0.40075
      H   23    0.10105      0.00000     0.39799    0.00096     0.39895
      H   24    0.10271      0.00000     0.39603    0.00126     0.39729
      H   25    0.09715      0.00000     0.40180    0.00105     0.40285
      H   26    0.10060      0.00000     0.39804    0.00136     0.39940
      H   27    0.10829      0.00000     0.39095    0.00076     0.39171
      H   28    0.10064      0.00000     0.39850    0.00087     0.39936
      H   29    0.08921      0.00000     0.40988    0.00091     0.41079
      H   30    0.03041      0.00000     0.46702    0.00258     0.46959
 =======================================================================
   * Total *    0.00000     15.99388    41.82055    0.18557    58.00000

 Normal termination of Gaussian 16 at Thu Dec 10 22:41:08 2020.
