 Gaussian 16, Revision A.03,

 -----------------------------------------------------------
 # opt freq B3LYP/6-31G(d) empiricaldispersion=gd3bj scf=xqc
 -----------------------------------------------------------

 -------------------------------
 CID_115039763_JID_7120_neutraal
 -------------------------------
 Symbolic Z-matrix:
 Charge =  0 Multiplicity = 1

 SCF Done:  E(RB3LYP) =  -715.432965294     A.U. after   14 cycles
 SCF Done:  E(RB3LYP) =  -715.448429783     A.U. after   12 cycles
 SCF Done:  E(RB3LYP) =  -715.447903886     A.U. after   12 cycles
 SCF Done:  E(RB3LYP) =  -715.449281933     A.U. after   12 cycles
 SCF Done:  E(RB3LYP) =  -715.450397360     A.U. after   12 cycles
 SCF Done:  E(RB3LYP) =  -715.450881351     A.U. after   12 cycles
 SCF Done:  E(RB3LYP) =  -715.450981227     A.U. after   12 cycles
 SCF Done:  E(RB3LYP) =  -715.451209713     A.U. after   12 cycles
 SCF Done:  E(RB3LYP) =  -715.451440290     A.U. after   11 cycles
 SCF Done:  E(RB3LYP) =  -715.451611337     A.U. after   11 cycles
 SCF Done:  E(RB3LYP) =  -715.456668930     A.U. after    9 cycles
 SCF Done:  E(RB3LYP) =  -715.456670030     A.U. after    8 cycles
 SCF Done:  E(RB3LYP) =  -715.456670137     A.U. after    7 cycles
 SCF Done:  E(RB3LYP) =  -715.456670188     A.U. after    6 cycles
 SCF Done:  E(RB3LYP) =  -715.456670218     A.U. after    6 cycles
 Optimization completed.
    -- Stationary point found.
 Normal termination of Gaussian 16 at Sun Dec 13 16:55:27 2020.

 --------------------------------------------------------------------
 #N Geom=AllCheck Guess=TCheck SCRF=Check GenChk RB3LYP/6-31G(d) Freq
 --------------------------------------------------------------------

 Structure from the checkpoint file:  "JID_7120.chk"
 -------------------------------
 CID_115039763_JID_7120_neutraal
 -------------------------------
 Charge =  0 Multiplicity = 1

 SCF Done:  E(RB3LYP) =  -715.456670218     A.U. after    1 cycles

  Exact polarizability: 184.121  18.158 149.425   5.897 -10.465 147.914
 Approx polarizability: 257.746  34.915 205.133  17.248 -23.647 252.040

                      1                      2                      3
                      A                      A                      A
 Frequencies --     31.0059                41.9852                61.8064
 Red. masses --      3.5448                 4.9626                 3.2312
 Frc consts  --      0.0020                 0.0052                 0.0073
 IR Inten    --      0.0081                 0.0492                 0.0633

                      4                      5                      6
                      A                      A                      A
 Frequencies --     81.0360               104.0646               119.3826
 Red. masses --      3.1943                 2.4553                 2.1643
 Frc consts  --      0.0124                 0.0157                 0.0182
 IR Inten    --      0.2194                 0.1116                 0.3261

                      7                      8                      9
                      A                      A                      A
 Frequencies --    130.0135               151.5157               188.3661
 Red. masses --      2.0326                 3.2580                 3.6717
 Frc consts  --      0.0202                 0.0441                 0.0768
 IR Inten    --      0.0525                 0.5656                 0.5371

                     10                     11                     12
                      A                      A                      A
 Frequencies --    218.8300               226.7262               238.6092
 Red. masses --      1.2369                 3.6547                 1.4789
 Frc consts  --      0.0349                 0.1107                 0.0496
 IR Inten    --      0.0399                 1.0413                 0.5014

                     13                     14                     15
                      A                      A                      A
 Frequencies --    242.2810               284.0520               299.8627
 Red. masses --      3.8883                 2.0044                 1.8182
 Frc consts  --      0.1345                 0.0953                 0.0963
 IR Inten    --      1.2924                 0.4339                 0.3770

                     16                     17                     18
                      A                      A                      A
 Frequencies --    335.7601               354.5403               366.9740
 Red. masses --      3.0598                 1.1135                 2.4115
 Frc consts  --      0.2032                 0.0825                 0.1913
 IR Inten    --      0.5604               108.5139                 0.6251

                     19                     20                     21
                      A                      A                      A
 Frequencies --    383.6519               401.3275               453.1164
 Red. masses --      2.8955                 2.8968                 2.5257
 Frc consts  --      0.2511                 0.2749                 0.3055
 IR Inten    --      4.9241                 3.2364                 6.5988

                     22                     23                     24
                      A                      A                      A
 Frequencies --    464.4898               492.9529               520.4923
 Red. masses --      2.9854                 3.3559                 2.4804
 Frc consts  --      0.3795                 0.4805                 0.3959
 IR Inten    --      2.9193                 4.8537                 1.7183

                     25                     26                     27
                      A                      A                      A
 Frequencies --    541.3244               546.8878               616.0637
 Red. masses --      3.1007                 5.8542                 3.4267
 Frc consts  --      0.5353                 1.0316                 0.7663
 IR Inten    --      2.8198                 4.0445                 0.8377

                     28                     29                     30
                      A                      A                      A
 Frequencies --    672.8905               704.6668               720.8966
 Red. masses --      2.2606                 3.2306                 2.4266
 Frc consts  --      0.6031                 0.9452                 0.7430
 IR Inten    --      2.6599                 2.2649                18.8375

                     31                     32                     33
                      A                      A                      A
 Frequencies --    780.4002               795.5108               797.9365
 Red. masses --      1.8463                 1.3655                 1.3014
 Frc consts  --      0.6625                 0.5091                 0.4882
 IR Inten    --      6.2693                10.2106                12.0955

                     34                     35                     36
                      A                      A                      A
 Frequencies --    807.2426               819.5344               831.4378
 Red. masses --      1.6385                 1.3032                 1.7608
 Frc consts  --      0.6291                 0.5157                 0.7172
 IR Inten    --      2.6948                 2.6997                 4.5113

                     37                     38                     39
                      A                      A                      A
 Frequencies --    852.6537               885.9803               900.8567
 Red. masses --      1.5915                 1.4130                 2.0284
 Frc consts  --      0.6817                 0.6535                 0.9699
 IR Inten    --     13.9136                 2.2350                 1.1904

                     40                     41                     42
                      A                      A                      A
 Frequencies --    911.6981               944.7340               958.0698
 Red. masses --      2.1250                 2.8736                 2.2729
 Frc consts  --      1.0407                 1.5111                 1.2292
 IR Inten    --      4.9931                24.8917                 4.1368

                     43                     44                     45
                      A                      A                      A
 Frequencies --    962.4542               965.5110               983.5297
 Red. masses --      1.9797                 1.3841                 2.1982
 Frc consts  --      1.0805                 0.7602                 1.2528
 IR Inten    --      4.9042                 2.1544                 1.4989

                     46                     47                     48
                      A                      A                      A
 Frequencies --    996.4424              1021.4495              1055.4824
 Red. masses --      2.5794                 6.1608                 3.6686
 Frc consts  --      1.5090                 3.7872                 2.4080
 IR Inten    --      1.3831                 2.5166                 9.6992

                     49                     50                     51
                      A                      A                      A
 Frequencies --   1075.8713              1085.8345              1096.7734
 Red. masses --      1.2763                 1.9712                 2.3943
 Frc consts  --      0.8704                 1.3693                 1.6969
 IR Inten    --      3.3464                10.0734                19.5252

                     52                     53                     54
                      A                      A                      A
 Frequencies --   1117.1676              1123.1665              1125.5909
 Red. masses --      1.8104                 1.6109                 1.8548
 Frc consts  --      1.3312                 1.1973                 1.3846
 IR Inten    --     21.0132                 5.6657                27.9199

                     55                     56                     57
                      A                      A                      A
 Frequencies --   1133.8233              1173.4220              1198.7934
 Red. masses --      1.8325                 2.4983                 1.1855
 Frc consts  --      1.3880                 2.0267                 1.0038
 IR Inten    --     10.3879                 2.8047                35.9928

                     58                     59                     60
                      A                      A                      A
 Frequencies --   1206.1166              1216.8151              1227.0518
 Red. masses --      1.4711                 1.4495                 1.6372
 Frc consts  --      1.2608                 1.2645                 1.4524
 IR Inten    --      2.1374               137.2120                14.0280

                     61                     62                     63
                      A                      A                      A
 Frequencies --   1238.9740              1256.0222              1277.1951
 Red. masses --      1.6694                 2.1314                 1.2887
 Frc consts  --      1.5098                 1.9811                 1.2386
 IR Inten    --      6.7843                29.9496                 1.2335

                     64                     65                     66
                      A                      A                      A
 Frequencies --   1283.2722              1297.4002              1312.7782
 Red. masses --      1.8597                 1.3414                 1.6042
 Frc consts  --      1.8044                 1.3303                 1.6289
 IR Inten    --     46.6667                 0.4309                 4.8285

                     67                     68                     69
                      A                      A                      A
 Frequencies --   1317.1779              1335.8822              1359.9727
 Red. masses --      1.6259                 1.4414                 1.3392
 Frc consts  --      1.6620                 1.5156                 1.4594
 IR Inten    --     15.2876                13.0547                11.0006

                     70                     71                     72
                      A                      A                      A
 Frequencies --   1368.0362              1374.2004              1392.6009
 Red. masses --      1.8646                 3.2780                 1.3236
 Frc consts  --      2.0561                 3.6472                 1.5124
 IR Inten    --      9.7726                 5.4066                30.7712

                     73                     74                     75
                      A                      A                      A
 Frequencies --   1404.5193              1412.4893              1427.7032
 Red. masses --      1.3800                 1.3812                 1.2869
 Frc consts  --      1.6039                 1.6236                 1.5454
 IR Inten    --     20.9958                17.3624                 1.1431

                     76                     77                     78
                      A                      A                      A
 Frequencies --   1433.3181              1448.6248              1494.0042
 Red. masses --      1.2444                 1.3275                 2.5815
 Frc consts  --      1.5063                 1.6413                 3.3950
 IR Inten    --     20.7882                11.8826                79.6172

                     79                     80                     81
                      A                      A                      A
 Frequencies --   1504.4553              1507.9269              1513.1590
 Red. masses --      1.1053                 1.1133                 1.0792
 Frc consts  --      1.4740                 1.4915                 1.4558
 IR Inten    --      9.3858                 7.9412                 1.9638

                     82                     83                     84
                      A                      A                      A
 Frequencies --   1514.5433              1521.8663              1526.2016
 Red. masses --      1.0673                 1.0479                 1.0471
 Frc consts  --      1.4425                 1.4300                 1.4371
 IR Inten    --      2.9871                 1.0861                 9.2142

                     85                     86                     87
                      A                      A                      A
 Frequencies --   1531.5194              1534.0886              1539.4001
 Red. masses --      1.0641                 1.0671                 1.1269
 Frc consts  --      1.4706                 1.4797                 1.5733
 IR Inten    --      7.2533                 3.1436                 4.6549

                     88                     89                     90
                      A                      A                      A
 Frequencies --   1545.4523              1556.7092              1659.9081
 Red. masses --      1.0921                 2.4603                 5.7884
 Frc consts  --      1.5368                 3.5128                 9.3968
 IR Inten    --      3.5734                 9.2608                59.6071

                     91                     92                     93
                      A                      A                      A
 Frequencies --   1667.5883              2934.5158              2974.3758
 Red. masses --      5.9446                 1.0735                 1.0704
 Frc consts  --      9.7397                 5.4464                 5.5792
 IR Inten    --     63.3493                87.3152                62.6706

                     94                     95                     96
                      A                      A                      A
 Frequencies --   3043.7466              3050.3688              3057.1304
 Red. masses --      1.0684                 1.0355                 1.0390
 Frc consts  --      5.8319                 5.6767                 5.7215
 IR Inten    --     23.2501                27.9521                20.7388

                     97                     98                     99
                      A                      A                      A
 Frequencies --   3062.2029              3065.0967              3070.1083
 Red. masses --      1.0624                 1.0859                 1.0637
 Frc consts  --      5.8697                 6.0107                 5.9073
 IR Inten    --     35.5184                24.7097                42.2777

                    100                    101                    102
                      A                      A                      A
 Frequencies --   3075.7823              3077.5895              3096.2866
 Red. masses --      1.0610                 1.0895                 1.0952
 Frc consts  --      5.9141                 6.0798                 6.1860
 IR Inten    --     49.0252                21.7902                 7.5208

                    103                    104                    105
                      A                      A                      A
 Frequencies --   3114.7355              3116.2418              3122.4703
 Red. masses --      1.1014                 1.1032                 1.0991
 Frc consts  --      6.2957                 6.3119                 6.3138
 IR Inten    --     44.2955                 9.7466                28.8076

                    106                    107                    108
                      A                      A                      A
 Frequencies --   3125.3198              3126.3612              3136.4516
 Red. masses --      1.1020                 1.1044                 1.1063
 Frc consts  --      6.3421                 6.3598                 6.4119
 IR Inten    --     67.2886                22.6954                69.3509

                    109                    110                    111
                      A                      A                      A
 Frequencies --   3146.4218              3166.3777              3187.9408
 Red. masses --      1.1021                 1.0884                 1.0877
 Frc consts  --      6.4286                 6.4293                 6.5132
 IR Inten    --     18.4619                21.1727                12.8080

                    112                    113                    114
                      A                      A                      A
 Frequencies --   3218.3513              3227.4131              3750.7900
 Red. masses --      1.0923                 1.0928                 1.0658
 Frc consts  --      6.6659                 6.7065                 8.8344
 IR Inten    --     13.0854                 9.6503                30.5380

 - Thermochemistry -
 -------------------
 Temperature   298.150 Kelvin.  Pressure   1.00000 Atm.
 Atom     1 has atomic number  6 and mass  12.00000

 Molecular mass:   233.17796 amu.
 Principal axes and moments of inertia in atomic units:
                           1         2         3
     Eigenvalues --  2870.964604994.178836362.05521
           X            0.99994  -0.01115   0.00040
           Y            0.01115   0.99994  -0.00001
           Z           -0.00040   0.00001   1.00000
 This molecule is an asymmetric top.
 Rotational symmetry number  1.
 Warning -- assumption of classical behavior for rotation
           may cause significant error
 Rotational temperatures (Kelvin)      0.03017     0.01734     0.01361
 Rotational constants (GHZ):           0.62862     0.36137     0.28367
 Zero-point vibrational energy     936376.9 (Joules/Mol)
                                  223.79945 (Kcal/Mol)
 Warning -- explicit consideration of  27 degrees of freedom as
           vibrations may cause significant error
 Vibrational temperatures:     44.61    60.41    88.93   116.59   149.73
          (Kelvin)            171.76   187.06   218.00   271.02   314.85
                              326.21   343.31   348.59   408.69   431.44
                              483.08   510.10   527.99   551.99   577.42
                              651.93   668.30   709.25   748.87   778.85
                              786.85   886.38   968.14  1013.86  1037.21
                             1122.82  1144.56  1148.05  1161.44  1179.13
                             1196.25  1226.78  1274.73  1296.13  1311.73
                             1359.26  1378.45  1384.76  1389.16  1415.08
                             1433.66  1469.64  1518.60  1547.94  1562.27
                             1578.01  1607.36  1615.99  1619.47  1631.32
                             1688.29  1724.80  1735.33  1750.73  1765.45
                             1782.61  1807.14  1837.60  1846.34  1866.67
                             1888.80  1895.13  1922.04  1956.70  1968.30
                             1977.17  2003.64  2020.79  2032.26  2054.15
                             2062.23  2084.25  2149.54  2164.58  2169.57
                             2177.10  2179.09  2189.63  2195.86  2203.51
                             2207.21  2214.85  2223.56  2239.76  2388.24
                             2399.29  4222.11  4279.46  4379.27  4388.80
                             4398.53  4405.83  4409.99  4417.20  4425.36
                             4427.96  4454.87  4481.41  4483.58  4492.54
                             4496.64  4498.14  4512.65  4527.00  4555.71
                             4586.74  4630.49  4643.53  5396.55

 Zero-point correction=                           0.356647 (Hartree/Particle)
 Thermal correction to Energy=                    0.374038
 Thermal correction to Enthalpy=                  0.374983
 Thermal correction to Gibbs Free Energy=         0.311532
 Sum of electronic and zero-point Energies=           -715.100023
 Sum of electronic and thermal Energies=              -715.082632
 Sum of electronic and thermal Enthalpies=            -715.081688
 Sum of electronic and thermal Free Energies=         -715.145138

                     E (Thermal)             CV                S
                      KCal/Mol        Cal/Mol-Kelvin    Cal/Mol-Kelvin
 Total                  234.713             67.696            133.542
 Electronic               0.000              0.000              0.000
 Translational            0.889              2.981             42.242
 Rotational               0.889              2.981             32.878
 Vibrational            232.935             61.734             58.423
 Vibration     1          0.594              1.984              5.764
 Vibration     2          0.595              1.980              5.163
 Vibration     3          0.597              1.973              4.399
 Vibration     4          0.600              1.962              3.866
 Vibration     5          0.605              1.946              3.377
 Vibration     6          0.609              1.933              3.110
 Vibration     7          0.612              1.923              2.946
 Vibration     8          0.619              1.901              2.653
 Vibration     9          0.633              1.856              2.244
 Vibration    10          0.647              1.812              1.969
 Vibration    11          0.650              1.800              1.905
 Vibration    12          0.657              1.781              1.813
 Vibration    13          0.658              1.776              1.786
 Vibration    14          0.682              1.703              1.509
 Vibration    15          0.692              1.674              1.418
 Vibration    16          0.717              1.604              1.232
 Vibration    17          0.730              1.566              1.146
 Vibration    18          0.740              1.540              1.092
 Vibration    19          0.753              1.505              1.025
 Vibration    20          0.767              1.467              0.958
 Vibration    21          0.812              1.354              0.786
 Vibration    22          0.822              1.329              0.753
 Vibration    23          0.849              1.266              0.676
 Vibration    24          0.875              1.205              0.609
 Vibration    25          0.896              1.159              0.562
 Vibration    26          0.902              1.146              0.551
 Vibration    27          0.976              0.998              0.423

 Optimization completed.
    -- Stationary point found.
 Normal termination of Gaussian 16 at Sun Dec 13 17:13:15 2020.

 ----------------------------------------------------------------------
 # B3LYP/6-311++G(d,p) empiricaldispersion=gd3bj scf=xqc pop=npa geom=c
 heck
 ----------------------------------------------------------------------

 ---------------------------------------
 CID_115039763_JID_7120_Energie_neutraal
 ---------------------------------------
 Structure from the checkpoint file:  "JID_7120.chk"
 Charge =  0 Multiplicity = 1

 SCF Done:  E(RB3LYP) =  -715.655702938     A.U. after   14 cycles
 Normal termination of Gaussian 16 at Sun Dec 13 17:21:56 2020.

 ----------------------------------------------------------------------
 # B3LYP/6-311++G(d,p) empiricaldispersion=gd3bj scf=xqc pop=npa geom=c
 heck
 ----------------------------------------------------------------------

 -------------------------------------
 CID_115039763_JID_7120_Energie_kation
 -------------------------------------
 Structure from the checkpoint file:  "JID_7120.chk"
 Charge =  1 Multiplicity = 2

 SCF Done:  E(UB3LYP) =  -715.389204533     A.U. after   23 cycles
 Normal termination of Gaussian 16 at Sun Dec 13 17:42:00 2020.
 Gaussian 16:  ES64L-G16RevA.03 25-Dec-2016

 ----------------------------------------------------------------------
 # B3LYP/6-311++G(d,p) empiricaldispersion=gd3bj scf=xqc pop=npa geom=c
 heck
 ----------------------------------------------------------------------

 ------------------------------------
 CID_115039763_JID_7120_Energie_anion
 ------------------------------------
 Structure from the checkpoint file:  "JID_7120.chk"
 Charge = -1 Multiplicity = 2

                         Standard orientation:
 ---------------------------------------------------------------------
 Center     Atomic      Atomic             Coordinates (Angstroms)
 Number     Number       Type             X           Y           Z
 ---------------------------------------------------------------------
      1          6           0        4.275103   -0.753003    0.016197
      2          6           0        2.948304   -0.682579    0.789961
      3          7           0        1.732924   -0.897666    0.009255
      4          6           0        1.626406   -2.232140   -0.576837
      5          6           0        0.177238   -2.678182   -0.771737
      6          6           0        1.378431    0.198595   -0.881866
      7          6           0        0.422060    1.239250   -0.257743
      8          6           0        1.036162    2.230057    0.787166
      9          6           0        0.290560    3.388103    0.086450
     10          6           0        0.155017    2.486326   -1.162009
     11          6           0       -0.839451    0.544858    0.224757
     12          6           0       -1.912592    0.336133   -0.649244
     13          6           0       -3.035618   -0.391831   -0.249276
     14          6           0       -3.107015   -0.924775    1.039643
     15          6           0       -2.039240   -0.722377    1.909703
     16          6           0       -0.913747   -0.000245    1.511147
     17          8           0       -4.099527   -0.611373   -1.084090
     18          1           0        4.418751   -1.739951   -0.436680
     19          1           0        5.120587   -0.565686    0.688307
     20          1           0        4.316334   -0.007517   -0.785793
     21          1           0        2.961335   -1.430308    1.593556
     22          1           0        2.864802    0.291626    1.282435
     23          1           0        2.171933   -2.314756   -1.536399
     24          1           0        2.117899   -2.927093    0.114776
     25          1           0       -0.358293   -2.029698   -1.472010
     26          1           0        0.146027   -3.698949   -1.170684
     27          1           0       -0.363705   -2.646882    0.177919
     28          1           0        2.270809    0.733596   -1.248887
     29          1           0        0.885450   -0.211445   -1.770686
     30          1           0        0.830782    2.056103    1.846050
     31          1           0        2.119068    2.317381    0.649138
     32          1           0        0.818182    4.339846   -0.026789
     33          1           0       -0.683125    3.574733    0.549637
     34          1           0        0.984137    2.637846   -1.862895
     35          1           0       -0.782870    2.531163   -1.721465
     36          1           0       -1.873391    0.729556   -1.663016
     37          1           0       -3.989223   -1.483083    1.334618
     38          1           0       -2.082931   -1.139579    2.912192
     39          1           0       -0.080926    0.117490    2.193920
     40          1           0       -3.915583   -0.188897   -1.937176
 ---------------------------------------------------------------------

 SCF Done:  E(UB3LYP) =  -715.643812986     A.U. after   33 cycles
 SCF Done:  E(UB3LYP) =  -715.643812986     a.u. after    1 cycles

 The electronic state is 2-A.
 Alpha  occ. eigenvalues --  -19.05254 -14.20099 -10.13807 -10.09705 -10.09582
 Alpha  occ. eigenvalues --  -10.09475 -10.09024 -10.08559 -10.08211 -10.07446
 Alpha  occ. eigenvalues --  -10.07313 -10.07289 -10.07235 -10.07031 -10.06889
 Alpha  occ. eigenvalues --  -10.06286 -10.05653  -0.96269  -0.82694  -0.77182
 Alpha  occ. eigenvalues --   -0.74465  -0.66625  -0.66300  -0.64505  -0.64027
 Alpha  occ. eigenvalues --   -0.59737  -0.56964  -0.54356  -0.53120  -0.52231
 Alpha  occ. eigenvalues --   -0.50361  -0.46627  -0.45650  -0.42839  -0.40895
 Alpha  occ. eigenvalues --   -0.39262  -0.38622  -0.37933  -0.37221  -0.36569
 Alpha  occ. eigenvalues --   -0.34710  -0.33650  -0.33054  -0.31405  -0.30798
 Alpha  occ. eigenvalues --   -0.30296  -0.30181  -0.29319  -0.29114  -0.28260
 Alpha  occ. eigenvalues --   -0.27169  -0.27081  -0.26088  -0.25760  -0.25445
 Alpha  occ. eigenvalues --   -0.24728  -0.23957  -0.23265  -0.22433  -0.20917
 Alpha  occ. eigenvalues --   -0.20628  -0.15509  -0.13004  -0.11021   0.04142
 Alpha virt. eigenvalues --    0.05754   0.06828   0.07090   0.07664   0.07945
 Alpha virt. eigenvalues --    0.08413   0.08959   0.09019   0.09433   0.09761
 Alpha virt. eigenvalues --    0.10383   0.10853   0.10988   0.11405   0.12002

  Beta  occ. eigenvalues --  -19.05203 -14.20098 -10.13807 -10.09695 -10.09571
  Beta  occ. eigenvalues --  -10.09460 -10.09023 -10.08558 -10.08209 -10.07440
  Beta  occ. eigenvalues --  -10.07304 -10.07279 -10.07208 -10.07012 -10.06887
  Beta  occ. eigenvalues --  -10.06253 -10.05642  -0.96173  -0.82683  -0.77168
  Beta  occ. eigenvalues --   -0.74449  -0.66601  -0.66281  -0.64475  -0.63998
  Beta  occ. eigenvalues --   -0.59707  -0.56926  -0.54321  -0.53075  -0.52178
  Beta  occ. eigenvalues --   -0.50330  -0.46585  -0.45591  -0.42792  -0.40855
  Beta  occ. eigenvalues --   -0.39241  -0.38606  -0.37899  -0.37204  -0.36541
  Beta  occ. eigenvalues --   -0.34687  -0.33616  -0.33030  -0.31378  -0.30779
  Beta  occ. eigenvalues --   -0.30264  -0.30147  -0.29287  -0.29087  -0.28229
  Beta  occ. eigenvalues --   -0.27141  -0.27054  -0.26063  -0.25735  -0.25423
  Beta  occ. eigenvalues --   -0.24708  -0.23935  -0.23246  -0.22414  -0.20898
  Beta  occ. eigenvalues --   -0.20609  -0.15496  -0.12987  -0.11008
  Beta virt. eigenvalues --    0.06179   0.07084   0.07179   0.07479   0.07739
  Beta virt. eigenvalues --    0.08453   0.08573   0.09137   0.09277   0.09551
  Beta virt. eigenvalues --    0.09815   0.10794   0.10991   0.11180   0.11714

 Mulliken charges and spin densities:
               1          2
     1  C    1.033669  -1.557028
     2  C   -0.827228   0.730666
     3  N    0.319982   0.051164
     4  C   -0.119750  -0.175497
     5  C    0.050542  -0.521905
     6  C    0.394258  -1.328968
     7  C   -0.245032   0.969024
     8  C    0.064572  -0.169555
     9  C   -0.243348  -0.335059
    10  C    0.245798  -0.542346
    11  C    0.683380   0.068514
    12  C   -1.952767   1.610266
    13  C    1.221046  -1.869822
    14  C    1.561899  -1.506322
    15  C   -1.095499   0.579048
    16  C   -0.519530   0.096802
    17  O   -0.268423   0.059314
    18  H   -0.100303   0.244967
    19  H   -0.376877   0.520099
    20  H   -0.385442   0.515421
    21  H   -0.086057   0.237007
    22  H   -0.077623   0.222552
    23  H    0.041460   0.076717
    24  H    0.047550   0.090729
    25  H   -0.049183   0.179356
    26  H   -0.045980   0.199512
    27  H    0.172384  -0.012399
    28  H    0.404012  -0.261253
    29  H   -0.025630   0.229378
    30  H    0.060478   0.095939
    31  H    0.050919   0.071777
    32  H   -0.084873   0.240296
    33  H    0.169841  -0.045871
    34  H   -0.231045   0.365704
    35  H   -0.289322   0.447410
    36  H   -0.419843   0.576244
    37  H    0.185029  -0.017912
    38  H    0.062915   0.094280
    39  H    0.101548   0.058488
    40  H   -0.427531   0.713261
 Sum of Mulliken charges =  -1.00000   1.00000

 Dipole moment (field-independent basis, Debye):
    X=             -0.1754    Y=             -0.8667    Z=              5.1360  Tot=              5.2116
 Quadrupole moment (field-independent basis, Debye-Ang):
   XX=           -193.5883   YY=           -146.6592   ZZ=           -147.6981
   XY=              1.7853   XZ=            -15.0789   YZ=              2.5031

 Summary of Natural Population Analysis:

                                       Natural Population
                Natural  -----------------------------------------------
    Atom  No    Charge         Core      Valence    Rydberg      Total
 -----------------------------------------------------------------------
      C    1   -0.29810      0.99966     2.29373    0.00471     3.29810
      C    2   -0.07899      0.99961     2.06826    0.01112     3.07899
      N    3   -0.29090      0.99971     2.77739    0.01380     3.79090
      C    4   -0.07886      0.99962     2.06926    0.00998     3.07886
      C    5   -0.28935      0.99966     2.28467    0.00503     3.28935
      C    6   -0.07545      0.99954     2.06367    0.01224     3.07545
      C    7   -0.04848      0.99952     2.03274    0.01622     3.04848
      C    8   -0.18300      0.99961     2.17496    0.00843     3.18300
      C    9   -0.19032      0.99964     2.18255    0.00813     3.19032
      C   10   -0.18197      0.99961     2.17345    0.00891     3.18197
      C   11    0.00185      0.99947     1.98546    0.01322     2.99815
      C   12   -0.13976      0.99945     2.12903    0.01128     3.13976
      C   13    0.16094      0.99938     1.82553    0.01415     2.83906
      C   14   -0.13287      0.99951     2.12428    0.00908     3.13287
      C   15   -0.09506      0.99957     2.08643    0.00906     3.09506
      C   16   -0.11175      0.99950     2.10379    0.00846     3.11175
      O   17   -0.34155      0.99988     3.33483    0.00685     4.34155
      H   18    0.09683      0.00000     0.40211    0.00105     0.40317
      H   19    0.09967      0.00000     0.39892    0.00140     0.40033
      H   20    0.09809      0.00000     0.40079    0.00111     0.40191
      H   21    0.09040      0.00000     0.40845    0.00115     0.40960
      H   22    0.09365      0.00000     0.40486    0.00148     0.40635
      H   23    0.07924      0.00000     0.41945    0.00131     0.42076
      H   24    0.09165      0.00000     0.40713    0.00121     0.40835
      H   25    0.10037      0.00000     0.39819    0.00144     0.39963
      H   26    0.09454      0.00000     0.40468    0.00079     0.40546
      H   27    0.10332      0.00000     0.39515    0.00153     0.39668
      H   28    0.08971      0.00000     0.40847    0.00182     0.41029
      H   29    0.09957      0.00000     0.39850    0.00193     0.40043
      H   30    0.09818      0.00000     0.40081    0.00101     0.40182
      H   31    0.09783      0.00000     0.40082    0.00135     0.40217
      H   32    0.09406      0.00000     0.40504    0.00091     0.40594
      H   33    0.09679      0.00000     0.40208    0.00113     0.40321
      H   34    0.09806      0.00000     0.40044    0.00151     0.40194
      H   35    0.10127      0.00000     0.39721    0.00152     0.39873
      H   36    0.10587      0.00000     0.39151    0.00262     0.39413
      H   37    0.10377      0.00000     0.39540    0.00083     0.39623
      H   38    0.09746      0.00000     0.40178    0.00076     0.40254
      H   39    0.10288      0.00000     0.39566    0.00146     0.39712
      H   40    0.24043      0.00000     0.24929    0.01028     0.25957
 =======================================================================
   * Total *   -0.00000     16.99295    46.79678    0.21027    64.00000

 Normal termination of Gaussian 16 at Sun Dec 13 18:09:42 2020.
