 Gaussian 16, Revision A.03,

 -----------------------------------------------------------
 # opt freq B3LYP/6-31G(d) empiricaldispersion=gd3bj scf=xqc
 -----------------------------------------------------------

 -------------------------------
 CID_152863341_JID_3551_neutraal
 -------------------------------
 Symbolic Z-matrix:
 Charge =  0 Multiplicity = 1

 SCF Done:  E(RB3LYP) =  -508.576154646     A.U. after   15 cycles
 SCF Done:  E(RB3LYP) =  -508.623611852     A.U. after   13 cycles
 SCF Done:  E(RB3LYP) =  -508.654019189     A.U. after   15 cycles
 SCF Done:  E(RB3LYP) =  -508.657887008     A.U. after   12 cycles
 SCF Done:  E(RB3LYP) =  -508.658355939     A.U. after   11 cycles
 SCF Done:  E(RB3LYP) =  -508.656920529     A.U. after   12 cycles
 SCF Done:  E(RB3LYP) =  -508.658395400     A.U. after   11 cycles
 SCF Done:  E(RB3LYP) =  -508.658400321     A.U. after    9 cycles
 SCF Done:  E(RB3LYP) =  -508.658403592     A.U. after    9 cycles
 SCF Done:  E(RB3LYP) =  -508.658403969     A.U. after    7 cycles
 SCF Done:  E(RB3LYP) =  -508.658403984     A.U. after    6 cycles
 Optimization completed.
    -- Stationary point found.
 Normal termination of Gaussian 16 at Mon Dec 14 16:31:47 2020.

 --------------------------------------------------------------------
 #N Geom=AllCheck Guess=TCheck SCRF=Check GenChk RB3LYP/6-31G(d) Freq
 --------------------------------------------------------------------

 Structure from the checkpoint file:  "JID_3551.chk"
 -------------------------------
 CID_152863341_JID_3551_neutraal
 -------------------------------
 Charge =  0 Multiplicity = 1

 SCF Done:  E(RB3LYP) =  -508.658403984     A.U. after    1 cycles

  Exact polarizability: 153.225  19.381 148.680  -3.745  -6.432 111.074
 Approx polarizability: 188.389  33.021 215.866  -9.251 -15.998 167.482

                      1                      2                      3
                      A                      A                      A
 Frequencies --     41.2459                52.3786                72.6552
 Red. masses --      2.5973                 3.1222                 3.1893
 Frc consts  --      0.0026                 0.0050                 0.0099
 IR Inten    --      0.0014                 0.0035                 0.0361

                      4                      5                      6
                      A                      A                      A
 Frequencies --     87.1570               124.7189               177.2920
 Red. masses --      2.0607                 2.9495                 2.4850
 Frc consts  --      0.0092                 0.0270                 0.0460
 IR Inten    --      0.0140                 0.0525                 0.0342

                      7                      8                      9
                      A                      A                      A
 Frequencies --    190.9676               193.1088               233.2760
 Red. masses --      1.6318                 1.7320                 1.2176
 Frc consts  --      0.0351                 0.0381                 0.0390
 IR Inten    --      0.0628                 0.0132                 0.0584

                     10                     11                     12
                      A                      A                      A
 Frequencies --    255.9150               259.9268               287.5941
 Red. masses --      1.5018                 1.4218                 2.4141
 Frc consts  --      0.0580                 0.0566                 0.1176
 IR Inten    --      0.0850                 0.1034                 2.0794

                     13                     14                     15
                      A                      A                      A
 Frequencies --    325.4212               338.9771               374.3746
 Red. masses --      2.5018                 2.9961                 1.9679
 Frc consts  --      0.1561                 0.2028                 0.1625
 IR Inten    --      0.8403                 0.9940                 0.2362

                     16                     17                     18
                      A                      A                      A
 Frequencies --    395.3720               400.5103               423.4166
 Red. masses --      2.9962                 2.3535                 2.8634
 Frc consts  --      0.2759                 0.2224                 0.3025
 IR Inten    --      0.2533                 0.1949                 0.1977

                     19                     20                     21
                      A                      A                      A
 Frequencies --    465.8482               493.6189               572.2216
 Red. masses --      2.4160                 2.1380                 3.5588
 Frc consts  --      0.3089                 0.3069                 0.6866
 IR Inten    --      0.0852                 0.1021                 2.8789

                     22                     23                     24
                      A                      A                      A
 Frequencies --    590.5185               615.6644               646.4460
 Red. masses --      3.2250                 1.8571                 1.4854
 Frc consts  --      0.6626                 0.4147                 0.3657
 IR Inten    --      2.7101                 0.8351                 0.4397

                     25                     26                     27
                      A                      A                      A
 Frequencies --    751.1295               807.8631               828.2410
 Red. masses --      2.1142                 1.9112                 1.4829
 Frc consts  --      0.7028                 0.7349                 0.5993
 IR Inten    --      5.4834                 0.5233                 1.3899

                     28                     29                     30
                      A                      A                      A
 Frequencies --    863.7535               867.0583               874.8010
 Red. masses --      1.3264                 2.4652                 2.1986
 Frc consts  --      0.5831                 1.0920                 0.9913
 IR Inten    --     46.7027                 0.3558                 2.6141

                     31                     32                     33
                      A                      A                      A
 Frequencies --    897.1609               939.0393               940.3863
 Red. masses --      1.7022                 2.2612                 1.1800
 Frc consts  --      0.8072                 1.1748                 0.6148
 IR Inten    --      2.3806                 3.0366                 1.2935

                     34                     35                     36
                      A                      A                      A
 Frequencies --    958.1913               978.4096               998.6531
 Red. masses --      1.8729                 1.4702                 1.6661
 Frc consts  --      1.0131                 0.8292                 0.9790
 IR Inten    --      4.4674                 0.0384                 7.0043

                     37                     38                     39
                      A                      A                      A
 Frequencies --   1024.5610              1039.5865              1054.8048
 Red. masses --      1.9553                 1.4805                 1.8336
 Frc consts  --      1.2093                 0.9427                 1.2020
 IR Inten    --      0.3393                 0.5856                 0.3518

                     40                     41                     42
                      A                      A                      A
 Frequencies --   1064.7312              1086.8396              1108.3651
 Red. masses --      2.0303                 2.0371                 1.8835
 Frc consts  --      1.3561                 1.4177                 1.3633
 IR Inten    --      0.6107                 0.8785                 1.7700

                     43                     44                     45
                      A                      A                      A
 Frequencies --   1118.4488              1156.1539              1159.9880
 Red. masses --      1.7852                 1.7403                 2.2432
 Frc consts  --      1.3157                 1.3706                 1.7784
 IR Inten    --      0.9288                 1.1792                 0.5496

                     46                     47                     48
                      A                      A                      A
 Frequencies --   1201.8453              1203.1424              1223.1124
 Red. masses --      1.8053                 1.7629                 2.2622
 Frc consts  --      1.5364                 1.5035                 1.9940
 IR Inten    --      2.2899                 5.4625                 0.5310

                     49                     50                     51
                      A                      A                      A
 Frequencies --   1238.8179              1270.5641              1284.9819
 Red. masses --      1.7956                 1.5772                 1.4003
 Frc consts  --      1.6236                 1.5001                 1.3623
 IR Inten    --      3.1818                 1.0023                16.2935

                     52                     53                     54
                      A                      A                      A
 Frequencies --   1302.2527              1326.5964              1330.9037
 Red. masses --      1.2710                 1.2626                 1.2340
 Frc consts  --      1.2700                 1.3092                 1.2879
 IR Inten    --      0.8635                 6.4540                 9.2133

                     55                     56                     57
                      A                      A                      A
 Frequencies --   1351.1357              1366.5340              1377.5968
 Red. masses --      1.3339                 1.3313                 1.3418
 Frc consts  --      1.4348                 1.4647                 1.5003
 IR Inten    --      2.8218                 2.1821                 1.0978

                     58                     59                     60
                      A                      A                      A
 Frequencies --   1385.4433              1392.6061              1403.3352
 Red. masses --      1.5341                 1.3704                 1.4120
 Frc consts  --      1.7349                 1.5659                 1.6383
 IR Inten    --      1.2591                 3.6724                 3.3423

                     61                     62                     63
                      A                      A                      A
 Frequencies --   1408.5596              1420.1301              1431.2990
 Red. masses --      1.4691                 1.4745                 1.2566
 Frc consts  --      1.7173                 1.7521                 1.5167
 IR Inten    --      2.5426                 0.8204                 3.4320

                     64                     65                     66
                      A                      A                      A
 Frequencies --   1441.8716              1450.3068              1505.6851
 Red. masses --      1.2474                 1.2228                 1.0995
 Frc consts  --      1.5279                 1.5154                 1.4686
 IR Inten    --      3.0656                 5.3264                 2.4499

                     67                     68                     69
                      A                      A                      A
 Frequencies --   1512.8516              1515.4071              1518.3044
 Red. masses --      1.3354                 1.1663                 1.0561
 Frc consts  --      1.8007                 1.5780                 1.4344
 IR Inten    --      1.9979                 3.4340                 0.6076

                     70                     71                     72
                      A                      A                      A
 Frequencies --   1523.6378              1526.9596              1527.8086
 Red. masses --      1.0764                 1.0549                 1.0709
 Frc consts  --      1.4723                 1.4492                 1.4728
 IR Inten    --      1.5902                 1.6135                 6.3293

                     73                     74                     75
                      A                      A                      A
 Frequencies --   1530.6999              1536.1219              1538.9101
 Red. masses --      1.0556                 1.0599                 1.0760
 Frc consts  --      1.4573                 1.4736                 1.5013
 IR Inten    --      1.5122                 4.8183                 3.7041

                     76                     77                     78
                      A                      A                      A
 Frequencies --   1548.9281              2076.2462              2991.0466
 Red. masses --      1.0476                10.5948                 1.0794
 Frc consts  --      1.4809                26.9092                 5.6897
 IR Inten    --     10.9529                37.3632                 0.3893

                     79                     80                     81
                      A                      A                      A
 Frequencies --   3001.3596              3013.2791              3029.0154
 Red. masses --      1.0807                 1.0747                 1.0662
 Frc consts  --      5.7357                 5.7491                 5.7635
 IR Inten    --      6.5755                37.8176                 6.2437

                     82                     83                     84
                      A                      A                      A
 Frequencies --   3032.6571              3038.1208              3040.6923
 Red. masses --      1.0640                 1.0670                 1.0388
 Frc consts  --      5.7657                 5.8029                 5.6589
 IR Inten    --     38.8208                48.0232                18.6312

                     85                     86                     87
                      A                      A                      A
 Frequencies --   3046.2280              3047.7057              3051.2872
 Red. masses --      1.0394                 1.0387                 1.0807
 Frc consts  --      5.6826                 5.6842                 5.9282
 IR Inten    --     36.6957                21.6152                21.3199

                     88                     89                     90
                      A                      A                      A
 Frequencies --   3071.2968              3076.9989              3094.5617
 Red. masses --      1.1017                 1.0963                 1.0960
 Frc consts  --      6.1228                 6.1155                 6.1840
 IR Inten    --     53.3773                44.3685                46.9924

                     91                     92                     93
                      A                      A                      A
 Frequencies --   3100.9711              3108.3111              3112.6624
 Red. masses --      1.1008                 1.0997                 1.1016
 Frc consts  --      6.2367                 6.2598                 6.2886
 IR Inten    --      0.5456                75.5037                51.0962

                     94                     95                     96
                      A                      A                      A
 Frequencies --   3118.8421              3124.2320              3129.9985
 Red. masses --      1.0955                 1.1020                 1.0985
 Frc consts  --      6.2785                 6.3376                 6.3408
 IR Inten    --     32.8722                38.4174                40.5603

                     97                     98                     99
                      A                      A                      A
 Frequencies --   3132.4863              3133.8339              3197.8473
 Red. masses --      1.0578                 1.0946                 1.1151
 Frc consts  --      6.1153                 6.3338                 6.7189
 IR Inten    --     13.2370                28.0041                 8.0568

 - Thermochemistry -
 -------------------
 Temperature   298.150 Kelvin.  Pressure   1.00000 Atm.
 Atom     1 has atomic number  6 and mass  12.00000

 Molecular mass:   178.17215 amu.
 Principal axes and moments of inertia in atomic units:
                           1         2         3
     Eigenvalues --  1637.667393694.749514437.95449
           X            0.99991  -0.01168   0.00600
           Y            0.01164   0.99991   0.00663
           Z           -0.00608  -0.00656   0.99996
 This molecule is an asymmetric top.
 Rotational symmetry number  1.
 Warning -- assumption of classical behavior for rotation
           may cause significant error
 Rotational temperatures (Kelvin)      0.05289     0.02344     0.01952
 Rotational constants (GHZ):           1.10202     0.48846     0.40666
 Zero-point vibrational energy     846374.8 (Joules/Mol)
                                  202.28844 (Kcal/Mol)
 Warning -- explicit consideration of  23 degrees of freedom as
           vibrations may cause significant error
 Vibrational temperatures:     59.34    75.36   104.53   125.40   179.44
          (Kelvin)            255.08   274.76   277.84   335.63   368.20
                              373.98   413.78   468.21   487.71   538.64
                              568.85   576.24   609.20   670.25   710.21
                              823.30   849.62   885.80   930.09  1080.71
                             1162.33  1191.65  1242.75  1247.50  1258.64
                             1290.81  1351.07  1353.01  1378.62  1407.71
                             1436.84  1474.11  1495.73  1517.63  1531.91
                             1563.72  1594.69  1609.20  1663.45  1668.96
                             1729.19  1731.05  1759.79  1782.38  1828.06
                             1848.80  1873.65  1908.68  1914.87  1943.98
                             1966.14  1982.05  1993.34  2003.65  2019.09
                             2026.60  2043.25  2059.32  2074.53  2086.67
                             2166.35  2176.66  2180.33  2184.50  2192.17
                             2196.95  2198.18  2202.34  2210.14  2214.15
                             2228.56  2987.26  4303.45  4318.29  4335.44
                             4358.08  4363.32  4371.18  4374.88  4382.84
                             4384.97  4390.12  4418.91  4427.12  4452.38
                             4461.61  4472.17  4478.43  4487.32  4495.07
                             4503.37  4506.95  4508.89  4600.99

 Zero-point correction=                           0.322367 (Hartree/Particle)
 Thermal correction to Energy=                    0.337053
 Thermal correction to Enthalpy=                  0.337997
 Thermal correction to Gibbs Free Energy=         0.281033
 Sum of electronic and zero-point Energies=           -508.336037
 Sum of electronic and thermal Energies=              -508.321351
 Sum of electronic and thermal Enthalpies=            -508.320407
 Sum of electronic and thermal Free Energies=         -508.377371

                     E (Thermal)             CV                S
                      KCal/Mol        Cal/Mol-Kelvin    Cal/Mol-Kelvin
 Total                  211.504             56.382            119.890
 Electronic               0.000              0.000              0.000
 Translational            0.889              2.981             41.440
 Rotational               0.889              2.981             31.663
 Vibrational            209.726             50.420             46.788
 Vibration     1          0.594              1.981              5.198
 Vibration     2          0.596              1.977              4.725
 Vibration     3          0.599              1.967              4.080
 Vibration     4          0.601              1.958              3.723
 Vibration     5          0.610              1.928              3.026
 Vibration     6          0.628              1.870              2.357
 Vibration     7          0.634              1.852              2.218
 Vibration     8          0.635              1.849              2.198
 Vibration     9          0.654              1.790              1.854
 Vibration    10          0.666              1.753              1.689
 Vibration    11          0.668              1.746              1.662
 Vibration    12          0.685              1.697              1.488
 Vibration    13          0.710              1.625              1.283
 Vibration    14          0.719              1.598              1.217
 Vibration    15          0.745              1.525              1.062
 Vibration    16          0.762              1.480              0.980
 Vibration    17          0.766              1.469              0.961
 Vibration    18          0.786              1.419              0.880
 Vibration    19          0.823              1.326              0.749
 Vibration    20          0.849              1.264              0.674
 Vibration    21          0.928              1.091              0.500
 Vibration    22          0.948              1.052              0.466
 Vibration    23          0.975              0.999              0.423

 Optimization completed.
    -- Stationary point found.
 Normal termination of Gaussian 16 at Mon Dec 14 16:42:01 2020.

 ----------------------------------------------------------------------
 # B3LYP/6-311++G(d,p) empiricaldispersion=gd3bj scf=xqc pop=npa geom=c
 heck
 ----------------------------------------------------------------------

 ---------------------------------------
 CID_152863341_JID_3551_Energie_neutraal
 ---------------------------------------
 Structure from the checkpoint file:  "JID_3551.chk"
 Charge =  0 Multiplicity = 1

 SCF Done:  E(RB3LYP) =  -508.796221310     A.U. after   14 cycles
 Normal termination of Gaussian 16 at Mon Dec 14 16:47:00 2020.

 ----------------------------------------------------------------------
 # B3LYP/6-311++G(d,p) empiricaldispersion=gd3bj scf=xqc pop=npa geom=c
 heck
 ----------------------------------------------------------------------

 -------------------------------------
 CID_152863341_JID_3551_Energie_kation
 -------------------------------------
 Structure from the checkpoint file:  "JID_3551.chk"
 Charge =  1 Multiplicity = 2

 SCF Done:  E(UB3LYP) =  -508.486996059     A.U. after   22 cycles
 Normal termination of Gaussian 16 at Mon Dec 14 16:58:12 2020.
 Gaussian 16:  ES64L-G16RevA.03 25-Dec-2016

 ----------------------------------------------------------------------
 # B3LYP/6-311++G(d,p) empiricaldispersion=gd3bj scf=xqc pop=npa geom=c
 heck
 ----------------------------------------------------------------------

 ------------------------------------
 CID_152863341_JID_3551_Energie_anion
 ------------------------------------
 Structure from the checkpoint file:  "JID_3551.chk"
 Charge = -1 Multiplicity = 2

                         Standard orientation:
 ---------------------------------------------------------------------
 Center     Atomic      Atomic             Coordinates (Angstroms)
 Number     Number       Type             X           Y           Z
 ---------------------------------------------------------------------
      1          6           0        3.221817   -1.004350    1.415502
      2          6           0        2.040187   -1.608909    0.655756
      3          6           0        1.604719   -0.767369   -0.562667
      4          6           0        0.467376   -1.437006   -1.359550
      5          6           0       -0.883481   -1.400379   -0.631705
      6          6           0       -1.317243    0.027433   -0.250920
      7          6           0       -0.189634    0.713506    0.553128
      8          6           0        1.146143    0.627023   -0.159973
      9          6           0        1.841182    1.696731   -0.454493
     10          6           0        2.538630    2.762645   -0.751588
     11          6           0       -2.664286    0.052439    0.510976
     12          6           0       -3.090679    1.479107    0.889972
     13          6           0       -3.792452   -0.620156   -0.286061
     14          1           0        4.086940   -0.871988    0.754454
     15          1           0        3.528820   -1.647299    2.247784
     16          1           0        2.966884   -0.019809    1.821201
     17          1           0        2.304351   -2.612694    0.295938
     18          1           0        1.195791   -1.745020    1.342475
     19          1           0        2.478059   -0.666165   -1.218462
     20          1           0        0.363761   -0.916101   -2.320748
     21          1           0        0.739646   -2.475542   -1.589383
     22          1           0       -0.837266   -2.012957    0.280202
     23          1           0       -1.637415   -1.865175   -1.274929
     24          1           0       -1.449674    0.599674   -1.183503
     25          1           0       -0.113960    0.220631    1.535035
     26          1           0       -0.426347    1.762528    0.742122
     27          1           0        3.291535    3.162291   -0.073680
     28          1           0        2.397621    3.297732   -1.689730
     29          1           0       -2.522957   -0.517318    1.443213
     30          1           0       -3.162518    2.113342   -0.003260
     31          1           0       -4.075494    1.471406    1.370515
     32          1           0       -2.391739    1.955254    1.583493
     33          1           0       -3.606632   -1.684096   -0.458124
     34          1           0       -4.744851   -0.535305    0.249331
     35          1           0       -3.918232   -0.137685   -1.264210
 ---------------------------------------------------------------------

 SCF Done:  E(UB3LYP) =  -508.779250042     A.U. after   33 cycles
 SCF Done:  E(UB3LYP) =  -508.779250042     a.u. after    1 cycles

 The electronic state is 2-A.
 Alpha  occ. eigenvalues --  -10.08503 -10.08231 -10.07993 -10.07769 -10.07484
 Alpha  occ. eigenvalues --  -10.07397 -10.07353 -10.06709 -10.06601 -10.06268
 Alpha  occ. eigenvalues --  -10.05856 -10.05818 -10.05649  -0.75562  -0.71239
 Alpha  occ. eigenvalues --   -0.68419  -0.66232  -0.63785  -0.61721  -0.58519
 Alpha  occ. eigenvalues --   -0.54856  -0.52755  -0.50355  -0.47072  -0.45393
 Alpha  occ. eigenvalues --   -0.40893  -0.38797  -0.36249  -0.35323  -0.35080
 Alpha  occ. eigenvalues --   -0.34538  -0.33290  -0.32942  -0.32284  -0.31582
 Alpha  occ. eigenvalues --   -0.29477  -0.29055  -0.28323  -0.27351  -0.26350
 Alpha  occ. eigenvalues --   -0.25902  -0.24693  -0.24255  -0.23551  -0.22463
 Alpha  occ. eigenvalues --   -0.22232  -0.20723  -0.20582  -0.16637  -0.14661
 Alpha  occ. eigenvalues --    0.04532
 Alpha virt. eigenvalues --    0.06397   0.07017   0.07161   0.08414   0.08448
 Alpha virt. eigenvalues --    0.08857   0.09193   0.09513   0.10080   0.10578
 Alpha virt. eigenvalues --    0.10756   0.11279   0.11500   0.11918   0.12219

  Beta  occ. eigenvalues --  -10.08501 -10.08228 -10.07988 -10.07749 -10.07473
  Beta  occ. eigenvalues --  -10.07391 -10.07338 -10.06689 -10.06586 -10.06255
  Beta  occ. eigenvalues --  -10.05832 -10.05791 -10.05619  -0.75541  -0.71213
  Beta  occ. eigenvalues --   -0.68393  -0.66199  -0.63755  -0.61688  -0.58462
  Beta  occ. eigenvalues --   -0.54815  -0.52709  -0.50295  -0.47021  -0.45348
  Beta  occ. eigenvalues --   -0.40860  -0.38762  -0.36212  -0.35294  -0.35052
  Beta  occ. eigenvalues --   -0.34515  -0.33257  -0.32913  -0.32253  -0.31553
  Beta  occ. eigenvalues --   -0.29440  -0.29023  -0.28288  -0.27321  -0.26306
  Beta  occ. eigenvalues --   -0.25870  -0.24658  -0.24220  -0.23521  -0.22422
  Beta  occ. eigenvalues --   -0.22203  -0.20694  -0.20555  -0.16603  -0.14647
  Beta virt. eigenvalues --    0.06508   0.07229   0.07440   0.07801   0.08820
  Beta virt. eigenvalues --    0.08893   0.09266   0.09525   0.09746   0.10260
  Beta virt. eigenvalues --    0.10817   0.11175   0.11687   0.11800   0.12203

 Mulliken charges and spin densities:
               1          2
     1  C    0.649576  -1.334269
     2  C   -0.249940  -0.108849
     3  C   -1.408227   1.832814
     4  C    1.221440  -1.970738
     5  C   -0.396308   0.146005
     6  C    0.591901  -0.616619
     7  C   -0.654603  -0.626577
     8  C    1.288078  -0.596385
     9  C    1.291947  -1.171236
    10  C   -0.872351   0.577738
    11  C   -1.658431   2.088050
    12  C    0.500623  -1.233121
    13  C    0.716515  -1.419551
    14  H   -0.145428   0.283921
    15  H   -0.186307   0.320363
    16  H    0.003590   0.132417
    17  H   -0.357854   0.517769
    18  H    0.132278  -0.000008
    19  H   -0.066799   0.289917
    20  H   -0.054228   0.206629
    21  H   -0.266395   0.443746
    22  H   -0.190308   0.367881
    23  H    0.099005   0.050477
    24  H    0.149883   0.030228
    25  H   -0.185986   0.418338
    26  H    0.333337  -0.171347
    27  H    0.042386   0.079082
    28  H   -0.042909   0.165004
    29  H    0.057549   0.089368
    30  H   -0.125746   0.272627
    31  H   -0.288683   0.434843
    32  H   -0.160957   0.300786
    33  H   -0.285853   0.431248
    34  H   -0.358338   0.501330
    35  H   -0.122455   0.268117
 Sum of Mulliken charges =  -1.00000   1.00000

 Dipole moment (field-independent basis, Debye):
    X=              1.9537    Y=              2.4907    Z=             -0.6220  Tot=              3.2260
 Quadrupole moment (field-independent basis, Debye-Ang):
   XX=           -167.1458   YY=           -131.9821   ZZ=           -120.3863
   XY=              6.1509   XZ=              1.6947   YZ=             -2.4859

 Summary of Natural Population Analysis:

                                       Natural Population
                Natural  -----------------------------------------------
    Atom  No    Charge         Core      Valence    Rydberg      Total
 -----------------------------------------------------------------------
      C    1   -0.28365      0.99966     2.27967    0.00431     3.28365
      C    2   -0.18789      0.99962     2.17954    0.00873     3.18789
      C    3   -0.11122      0.99955     2.09918    0.01248     3.11122
      C    4   -0.18257      0.99961     2.17344    0.00953     3.18257
      C    5   -0.19126      0.99961     2.18298    0.00867     3.19126
      C    6   -0.10134      0.99957     2.09221    0.00956     3.10134
      C    7   -0.19377      0.99957     2.18499    0.00920     3.19377
      C    8   -0.04112      0.99942     2.03016    0.01154     3.04112
      C    9    0.04079      0.99943     1.95054    0.00924     2.95921
      C   10   -0.23585      0.99952     2.23113    0.00520     3.23585
      C   11   -0.11027      0.99960     2.10062    0.01005     3.11027
      C   12   -0.28476      0.99965     2.27915    0.00596     3.28476
      C   13   -0.28418      0.99965     2.27851    0.00602     3.28418
      H   14    0.09577      0.00000     0.40286    0.00137     0.40423
      H   15    0.09790      0.00000     0.40113    0.00097     0.40210
      H   16    0.09880      0.00000     0.39982    0.00138     0.40120
      H   17    0.09838      0.00000     0.40015    0.00147     0.40162
      H   18    0.09478      0.00000     0.40364    0.00157     0.40522
      H   19    0.10270      0.00000     0.39570    0.00160     0.39730
      H   20    0.09658      0.00000     0.40218    0.00124     0.40342
      H   21    0.10116      0.00000     0.39754    0.00131     0.39884
      H   22    0.09474      0.00000     0.40359    0.00166     0.40526
      H   23    0.10326      0.00000     0.39557    0.00117     0.39674
      H   24    0.09234      0.00000     0.40591    0.00176     0.40766
      H   25    0.10075      0.00000     0.39775    0.00150     0.39925
      H   26    0.10734      0.00000     0.39150    0.00116     0.39266
      H   27    0.09928      0.00000     0.39892    0.00179     0.40072
      H   28    0.09932      0.00000     0.39884    0.00184     0.40068
      H   29    0.09175      0.00000     0.40652    0.00173     0.40825
      H   30    0.09596      0.00000     0.40308    0.00096     0.40404
      H   31    0.10020      0.00000     0.39881    0.00099     0.39980
      H   32    0.09943      0.00000     0.39959    0.00098     0.40057
      H   33    0.10096      0.00000     0.39786    0.00118     0.39904
      H   34    0.09993      0.00000     0.39897    0.00109     0.40007
      H   35    0.09573      0.00000     0.40322    0.00105     0.40427
 =======================================================================
   * Total *    0.00000     12.99445    36.86529    0.14025    50.00000

 Normal termination of Gaussian 16 at Mon Dec 14 17:14:48 2020.
