 Gaussian 16, Revision A.03,

 -----------------------------------------------------------
 # opt freq B3LYP/6-31G(d) empiricaldispersion=gd3bj scf=xqc
 -----------------------------------------------------------

 -----------------------------
 CID_85655892_JID_422_neutraal
 -----------------------------
 Symbolic Z-matrix:
 Charge =  0 Multiplicity = 1

 SCF Done:  E(RB3LYP) =  -457.442408355     A.U. after   15 cycles
 SCF Done:  E(RB3LYP) =  -457.448011149     A.U. after   14 cycles
 SCF Done:  E(RB3LYP) =  -457.448203246     A.U. after   14 cycles
 SCF Done:  E(RB3LYP) =  -457.450457194     A.U. after   13 cycles
 SCF Done:  E(RB3LYP) =  -457.452793599     A.U. after   13 cycles
 SCF Done:  E(RB3LYP) =  -457.453372963     A.U. after   12 cycles
 SCF Done:  E(RB3LYP) =  -457.453616058     A.U. after   12 cycles
 SCF Done:  E(RB3LYP) =  -457.453907962     A.U. after   12 cycles
 SCF Done:  E(RB3LYP) =  -457.454124931     A.U. after   12 cycles
 SCF Done:  E(RB3LYP) =  -457.454257474     A.U. after   12 cycles
 SCF Done:  E(RB3LYP) =  -457.454377452     A.U. after   10 cycles
 SCF Done:  E(RB3LYP) =  -457.454392616     A.U. after   10 cycles
 SCF Done:  E(RB3LYP) =  -457.454393217     A.U. after    8 cycles
 SCF Done:  E(RB3LYP) =  -457.454394273     A.U. after   10 cycles
 SCF Done:  E(RB3LYP) =  -457.454394500     A.U. after    8 cycles
 Optimization completed.
    -- Stationary point found.
 Normal termination of Gaussian 16 at Tue Dec  8 10:37:21 2020.

 --------------------------------------------------------------------
 #N Geom=AllCheck Guess=TCheck SCRF=Check GenChk RB3LYP/6-31G(d) Freq
 --------------------------------------------------------------------

 Structure from the checkpoint file:  "JID_422.chk"
 -----------------------------
 CID_85655892_JID_422_neutraal
 -----------------------------
 Charge =  0 Multiplicity = 1

 SCF Done:  E(RB3LYP) =  -457.454394500     A.U. after    1 cycles

  Exact polarizability: 133.547  -8.266 100.086   5.654  -3.840  50.823
 Approx polarizability: 210.408 -22.615 157.574  19.246 -13.104  76.738

                      1                      2                      3
                      A                      A                      A
 Frequencies --     53.2158                74.6799               111.3083
 Red. masses --      3.2034                 2.0376                 3.6066
 Frc consts  --      0.0053                 0.0067                 0.0263
 IR Inten    --      1.9458                 3.4266                 0.2814

                      4                      5                      6
                      A                      A                      A
 Frequencies --    130.8751               153.0346               216.3090
 Red. masses --      1.0804                 2.0123                 2.6954
 Frc consts  --      0.0109                 0.0278                 0.0743
 IR Inten    --      0.5298                 3.0404                 3.7026

                      7                      8                      9
                      A                      A                      A
 Frequencies --    267.9646               289.8009               338.8444
 Red. masses --      3.8430                 2.4116                 2.9540
 Frc consts  --      0.1626                 0.1193                 0.1998
 IR Inten    --     10.7230                 0.6931                 1.7220

                     10                     11                     12
                      A                      A                      A
 Frequencies --    412.8713               534.6840               579.3855
 Red. masses --      3.4284                 6.5711                 4.2675
 Frc consts  --      0.3443                 1.1068                 0.8440
 IR Inten    --      0.9256                11.0667                31.2992

                     13                     14                     15
                      A                      A                      A
 Frequencies --    630.1845               675.6322               689.9944
 Red. masses --      3.8185                 3.8387                 5.0861
 Frc consts  --      0.8935                 1.0324                 1.4267
 IR Inten    --      0.7646                 3.7370                 2.5635

                     16                     17                     18
                      A                      A                      A
 Frequencies --    753.9805               796.3664               834.5623
 Red. masses --      1.9674                 1.2297                 2.7915
 Frc consts  --      0.6590                 0.4595                 1.1455
 IR Inten    --    142.3526                44.2981                51.6740

                     19                     20                     21
                      A                      A                      A
 Frequencies --    850.7951               906.5149               944.5495
 Red. masses --      1.3616                 1.5272                 2.0013
 Frc consts  --      0.5807                 0.7394                 1.0520
 IR Inten    --      4.0463                 8.8383                10.4545

                     22                     23                     24
                      A                      A                      A
 Frequencies --    967.7986               999.6597              1034.7890
 Red. masses --      2.4936                 5.2237                 1.9570
 Frc consts  --      1.3761                 3.0756                 1.2347
 IR Inten    --      8.4925                 6.4020                14.9818

                     25                     26                     27
                      A                      A                      A
 Frequencies --   1054.4269              1079.5445              1132.7415
 Red. masses --      1.3277                 1.4597                 5.7760
 Frc consts  --      0.8697                 1.0023                 4.3666
 IR Inten    --     28.4653                 2.5108                76.7700

                     28                     29                     30
                      A                      A                      A
 Frequencies --   1147.2579              1222.3488              1237.6772
 Red. masses --      1.3037                 1.5488                 1.6065
 Frc consts  --      1.0110                 1.3635                 1.4500
 IR Inten    --     11.7538                 5.8066                 6.9284

                     31                     32                     33
                      A                      A                      A
 Frequencies --   1260.1494              1303.1915              1395.0326
 Red. masses --      5.6649                 5.7967                 2.4757
 Frc consts  --      5.3001                 5.8003                 2.8387
 IR Inten    --      0.2452                18.2074                25.8868

                     34                     35                     36
                      A                      A                      A
 Frequencies --   1435.7457              1444.2172              1475.3322
 Red. masses --      1.4011                 1.2759                 1.2294
 Frc consts  --      1.7017                 1.5679                 1.5767
 IR Inten    --      9.6709                 1.2600                 1.5387

                     37                     38                     39
                      A                      A                      A
 Frequencies --   1501.7873              1504.4435              1519.3931
 Red. masses --      1.0433                 1.0944                 1.1304
 Frc consts  --      1.3864                 1.4594                 1.5376
 IR Inten    --      6.7229                 5.3475                 5.3604

                     40                     41                     42
                      A                      A                      A
 Frequencies --   1530.9361              1557.1452              1581.2741
 Red. masses --      1.7032                 1.0676                 2.3410
 Frc consts  --      2.3519                 1.5252                 3.4489
 IR Inten    --      4.6870                16.8466                24.8799

                     43                     44                     45
                      A                      A                      A
 Frequencies --   1648.9264              1702.5537              3014.8157
 Red. masses --      5.2576                 4.6888                 1.0535
 Frc consts  --      8.4225                 8.0078                 5.6417
 IR Inten    --     17.4549                 6.0795                56.2378

                     46                     47                     48
                      A                      A                      A
 Frequencies --   3043.1665              3092.8064              3117.6128
 Red. masses --      1.0388                 1.1009                 1.0874
 Frc consts  --      5.6678                 6.2044                 6.2272
 IR Inten    --     30.4017                16.1514                33.8805

                     49                     50                     51
                      A                      A                      A
 Frequencies --   3143.4812              3148.7335              3184.0893
 Red. masses --      1.0992                 1.0867                 1.0966
 Frc consts  --      6.3997                 6.3479                 6.5505
 IR Inten    --     10.1613                16.7814                 8.2190

                     52                     53                     54
                      A                      A                      A
 Frequencies --   3261.4277              3274.5770              3559.6024
 Red. masses --      1.0926                 1.1010                 1.0766
 Frc consts  --      6.8472                 6.9561                 8.0375
 IR Inten    --      8.2624                 1.9714                 8.7347

 - Thermochemistry -
 -------------------
 Temperature   298.150 Kelvin.  Pressure   1.00000 Atm.
 Atom     1 has atomic number  6 and mass  12.00000

 Molecular mass:   138.07931 amu.
 Principal axes and moments of inertia in atomic units:
                           1         2         3
     Eigenvalues --   750.236891889.569002456.36256
           X            0.99994   0.00103  -0.01066
           Y           -0.00099   0.99999   0.00388
           Z            0.01066  -0.00387   0.99994
 This molecule is an asymmetric top.
 Rotational symmetry number  1.
 Warning -- assumption of classical behavior for rotation
           may cause significant error
 Rotational temperatures (Kelvin)      0.11545     0.04584     0.03526
 Rotational constants (GHZ):           2.40556     0.95511     0.73472
 Zero-point vibrational energy     435573.7 (Joules/Mol)
                                  104.10462 (Kcal/Mol)
 Warning -- explicit consideration of  12 degrees of freedom as
           vibrations may cause significant error
 Vibrational temperatures:     76.57   107.45   160.15   188.30   220.18
          (Kelvin)            311.22   385.54   416.96   487.52   594.03
                              769.29   833.61   906.69   972.08   992.75
                             1084.81  1145.79  1200.75  1224.10  1304.27
                             1359.00  1392.45  1438.29  1488.83  1517.09
                             1553.22  1629.76  1650.65  1758.69  1780.74
                             1813.07  1875.00  2007.14  2065.72  2077.91
                             2122.67  2160.74  2164.56  2186.07  2202.68
                             2240.38  2275.10  2372.44  2449.60  4337.65
                             4378.44  4449.86  4485.55  4522.77  4530.33
                             4581.19  4692.47  4711.39  5121.47

 Zero-point correction=                           0.165901 (Hartree/Particle)
 Thermal correction to Energy=                    0.175956
 Thermal correction to Enthalpy=                  0.176900
 Thermal correction to Gibbs Free Energy=         0.129846
 Sum of electronic and zero-point Energies=           -457.288493
 Sum of electronic and thermal Energies=              -457.278439
 Sum of electronic and thermal Enthalpies=            -457.277494
 Sum of electronic and thermal Free Energies=         -457.324548

                     E (Thermal)             CV                S
                      KCal/Mol        Cal/Mol-Kelvin    Cal/Mol-Kelvin
 Total                  110.414             36.167             99.033
 Electronic               0.000              0.000              0.000
 Translational            0.889              2.981             40.680
 Rotational               0.889              2.981             29.633
 Vibrational            108.637             30.205             28.720
 Vibration     1          0.596              1.976              4.694
 Vibration     2          0.599              1.966              4.026
 Vibration     3          0.607              1.940              3.246
 Vibration     4          0.612              1.922              2.933
 Vibration     5          0.619              1.899              2.634
 Vibration     6          0.645              1.816              1.990
 Vibration     7          0.673              1.732              1.609
 Vibration     8          0.686              1.693              1.475
 Vibration     9          0.719              1.598              1.218
 Vibration    10          0.777              1.442              0.917
 Vibration    11          0.890              1.173              0.577
 Vibration    12          0.936              1.076              0.487

                           ! Non-Optimized Parameters !
 Normal termination of Gaussian 16 at Tue Dec  8 10:41:59 2020.

 ----------------------------------------------------------------------
 # B3LYP/6-311++G(d,p) empiricaldispersion=gd3bj scf=xqc pop=npa geom=c
 heck
 ----------------------------------------------------------------------

 -------------------------------------
 CID_85655892_JID_422_Energie_neutraal
 -------------------------------------
 Structure from the checkpoint file:  "JID_422.chk"
 Charge =  0 Multiplicity = 1

 SCF Done:  E(RB3LYP) =  -457.583905295     A.U. after   14 cycles
 Normal termination of Gaussian 16 at Tue Dec  8 10:44:27 2020.

 ----------------------------------------------------------------------
 # B3LYP/6-311++G(d,p) empiricaldispersion=gd3bj scf=xqc pop=npa geom=c
 heck
 ----------------------------------------------------------------------

 -----------------------------------
 CID_85655892_JID_422_Energie_kation
 -----------------------------------
 Structure from the checkpoint file:  "JID_422.chk"
 Charge =  1 Multiplicity = 2

 SCF Done:  E(UB3LYP) =  -457.315638434     A.U. after   18 cycles
 Normal termination of Gaussian 16 at Tue Dec  8 10:47:55 2020.
 Gaussian 16:  ES64L-G16RevA.03 25-Dec-2016

 ----------------------------------------------------------------------
 # B3LYP/6-311++G(d,p) empiricaldispersion=gd3bj scf=xqc pop=npa geom=c
 heck
 ----------------------------------------------------------------------

 ----------------------------------
 CID_85655892_JID_422_Energie_anion
 ----------------------------------
 Structure from the checkpoint file:  "JID_422.chk"
 Charge = -1 Multiplicity = 2

                         Standard orientation:
 ---------------------------------------------------------------------
 Center     Atomic      Atomic             Coordinates (Angstroms)
 Number     Number       Type             X           Y           Z
 ---------------------------------------------------------------------
      1          6           0        2.569028    1.652477   -0.330880
      2          6           0        1.876365    0.361407   -0.082939
      3          6           0        2.293422   -0.875208    0.322253
      4          6           0        1.134106   -1.705287    0.364552
      5          6           0        0.067298   -0.922631   -0.007283
      6          8           0        0.523971    0.343983   -0.289873
      7          6           0       -1.310756   -1.306469   -0.235632
      8          7           0       -2.415523   -0.666995   -0.431907
      9          7           0       -2.519509    0.697085   -0.334255
     10          6           0       -1.949369    1.405755    0.816018
     11          1           0        2.430602    1.988972   -1.365576
     12          1           0        2.188621    2.445495    0.325487
     13          1           0        3.640570    1.539988   -0.145997
     14          1           0        3.310374   -1.155692    0.558741
     15          1           0        1.085239   -2.751285    0.633752
     16          1           0       -1.426581   -2.387552   -0.314842
     17          1           0       -3.507347    0.903316   -0.421009
     18          1           0       -2.528038    2.322895    0.958424
     19          1           0       -2.012853    0.798985    1.732414
     20          1           0       -0.907697    1.672121    0.644195
 ---------------------------------------------------------------------

 SCF Done:  E(UB3LYP) =  -457.571335606     A.U. after   33 cycles
 SCF Done:  E(UB3LYP) =  -457.571335606     a.u. after    1 cycles

 The electronic state is 2-A.
 Alpha  occ. eigenvalues --  -19.05731 -14.21822 -14.19923 -10.10338 -10.09979
 Alpha  occ. eigenvalues --  -10.07156 -10.06760 -10.05926 -10.04827 -10.04684
 Alpha  occ. eigenvalues --   -0.98542  -0.86471  -0.70685  -0.68029  -0.66043
 Alpha  occ. eigenvalues --   -0.59258  -0.55639  -0.48141  -0.47772  -0.42907
 Alpha  occ. eigenvalues --   -0.40922  -0.36382  -0.34581  -0.34082  -0.31932
 Alpha  occ. eigenvalues --   -0.30971  -0.29512  -0.29147  -0.28585  -0.27051
 Alpha  occ. eigenvalues --   -0.25828  -0.24880  -0.22751  -0.16869  -0.15659
 Alpha  occ. eigenvalues --   -0.12439  -0.07629   0.05056
 Alpha virt. eigenvalues --    0.07277   0.07864   0.08657   0.09931   0.10293
 Alpha virt. eigenvalues --    0.11336   0.11877   0.12351   0.12493   0.15254
 Alpha virt. eigenvalues --    0.15443   0.15808   0.16741   0.17097   0.17363

  Beta  occ. eigenvalues --  -19.05631 -14.21788 -14.19670 -10.10227 -10.09940
  Beta  occ. eigenvalues --  -10.07097 -10.06706 -10.05892 -10.04852 -10.04604
  Beta  occ. eigenvalues --   -0.98373  -0.86183  -0.70474  -0.67906  -0.65860
  Beta  occ. eigenvalues --   -0.59082  -0.55550  -0.48045  -0.47526  -0.42799
  Beta  occ. eigenvalues --   -0.40810  -0.36244  -0.34233  -0.33923  -0.31699
  Beta  occ. eigenvalues --   -0.30894  -0.29429  -0.28991  -0.28477  -0.26973
  Beta  occ. eigenvalues --   -0.25744  -0.24683  -0.22160  -0.16427  -0.15320
  Beta  occ. eigenvalues --   -0.12049  -0.07009
  Beta virt. eigenvalues --    0.07702   0.08366   0.08874   0.09229   0.10329
  Beta virt. eigenvalues --    0.10743   0.11648   0.12222   0.12679   0.13130
  Beta virt. eigenvalues --    0.15371   0.15649   0.15980   0.16818   0.17233

 Mulliken charges and spin densities:
               1          2
     1  C    2.500576  -3.158669
     2  C   -1.359174   1.628805
     3  C   -0.154059  -0.033703
     4  C   -0.594786   0.421412
     5  C    0.556889  -0.064777
     6  O   -0.059605   0.071614
     7  C   -0.223982  -0.563224
     8  N   -0.134012   0.123664
     9  N   -0.198834   0.089060
    10  C    0.259149  -0.725955
    11  H    0.032987   0.117466
    12  H   -0.433274   0.589666
    13  H   -0.600561   0.764365
    14  H   -0.562543   0.707411
    15  H    0.015764   0.111216
    16  H    0.177378  -0.017042
    17  H    0.198570   0.064846
    18  H   -0.603787   0.722977
    19  H   -0.077116   0.205333
    20  H    0.260420  -0.054463
 Sum of Mulliken charges =  -1.00000   1.00000

 Dipole moment (field-independent basis, Debye):
    X=             -1.9277    Y=             -3.8145    Z=             -1.0842  Tot=              4.4093
 Quadrupole moment (field-independent basis, Debye-Ang):
   XX=           -115.7019   YY=            -92.5779   ZZ=            -82.5748
   XY=             -4.2656   XZ=             -1.8232   YZ=             -4.4187

 Summary of Natural Population Analysis:

                                       Natural Population
                Natural  -----------------------------------------------
    Atom  No    Charge         Core      Valence    Rydberg      Total
 -----------------------------------------------------------------------
      C    1   -0.30719      0.99963     2.30165    0.00591     3.30719
      C    2    0.17551      0.99948     1.81068    0.01432     2.82449
      C    3   -0.16624      0.99950     2.15727    0.00948     3.16624
      C    4   -0.12533      0.99952     2.11643    0.00938     3.12533
      C    5    0.11709      0.99942     1.86971    0.01378     2.88291
      O    6   -0.23442      0.99985     3.22536    0.00921     4.23442
      C    7   -0.00768      0.99959     1.99286    0.01524     3.00768
      N    8   -0.10766      0.99969     2.59349    0.01448     3.60766
      N    9   -0.22244      0.99973     2.70772    0.01499     3.72244
      C   10   -0.19171      0.99964     2.18355    0.00852     3.19171
      H   11    0.10414      0.00000     0.39467    0.00118     0.39586
      H   12    0.11051      0.00000     0.38645    0.00304     0.38949
      H   13    0.10830      0.00000     0.38969    0.00200     0.39170
      H   14    0.10603      0.00000     0.39294    0.00104     0.39397
      H   15    0.10140      0.00000     0.39788    0.00072     0.39860
      H   16    0.08724      0.00000     0.41135    0.00141     0.41276
      H   17    0.16980      0.00000     0.32656    0.00363     0.33020
      H   18    0.09337      0.00000     0.40471    0.00192     0.40663
      H   19    0.08615      0.00000     0.41238    0.00147     0.41385
      H   20    0.10314      0.00000     0.39431    0.00255     0.39686
 =======================================================================
   * Total *   -0.00000      9.99606    26.86967    0.13427    37.00000

 Normal termination of Gaussian 16 at Tue Dec  8 10:55:05 2020.
