 Gaussian 16, Revision A.03,

 -----------------------------------------------------------
 # opt freq B3LYP/6-31G(d) empiricaldispersion=gd3bj scf=xqc
 -----------------------------------------------------------

 ------------------------------
 CID_88993522_JID_3541_neutraal
 ------------------------------
 Symbolic Z-matrix:
 Charge =  0 Multiplicity = 1

 SCF Done:  E(RB3LYP) =  -522.308203732     A.U. after   14 cycles
 SCF Done:  E(RB3LYP) =  -522.311258123     A.U. after   12 cycles
 SCF Done:  E(RB3LYP) =  -522.311447524     A.U. after   11 cycles
 SCF Done:  E(RB3LYP) =  -522.311515751     A.U. after   10 cycles
 SCF Done:  E(RB3LYP) =  -522.311532319     A.U. after    9 cycles
 SCF Done:  E(RB3LYP) =  -522.311542873     A.U. after   10 cycles
 SCF Done:  E(RB3LYP) =  -522.311545178     A.U. after    9 cycles
 SCF Done:  E(RB3LYP) =  -522.311547709     A.U. after    9 cycles
 SCF Done:  E(RB3LYP) =  -522.311549965     A.U. after    9 cycles
 SCF Done:  E(RB3LYP) =  -522.311551062     A.U. after    9 cycles
 SCF Done:  E(RB3LYP) =  -522.311551873     A.U. after    8 cycles
 SCF Done:  E(RB3LYP) =  -522.311551983     A.U. after    7 cycles
 SCF Done:  E(RB3LYP) =  -522.311552009     A.U. after    6 cycles
 Optimization completed.
    -- Stationary point found.
 Normal termination of Gaussian 16 at Wed Dec  9 23:38:22 2020.

 --------------------------------------------------------------------
 #N Geom=AllCheck Guess=TCheck SCRF=Check GenChk RB3LYP/6-31G(d) Freq
 --------------------------------------------------------------------

 Structure from the checkpoint file:  "JID_3541.chk"
 ------------------------------
 CID_88993522_JID_3541_neutraal
 ------------------------------
 Charge =  0 Multiplicity = 1

 SCF Done:  E(RB3LYP) =  -522.311552009     A.U. after    1 cycles

  Exact polarizability: 179.694 -11.295 150.966   0.840   0.867  77.208
 Approx polarizability: 254.902 -21.599 226.485   4.712   2.751 116.428

                      1                      2                      3
                      A                      A                      A
 Frequencies --     41.5456                70.8305               101.1227
 Red. masses --      3.9309                 3.3577                 2.4305
 Frc consts  --      0.0040                 0.0099                 0.0146
 IR Inten    --      0.1846                 0.2169                 0.0524

                      4                      5                      6
                      A                      A                      A
 Frequencies --    119.4266               129.0980               148.7775
 Red. masses --      1.7802                 2.8405                 2.1668
 Frc consts  --      0.0150                 0.0279                 0.0283
 IR Inten    --      0.7367                 0.2252                 1.2934

                      7                      8                      9
                      A                      A                      A
 Frequencies --    171.1226               195.0595               215.5173
 Red. masses --      1.0443                 1.2381                 1.0468
 Frc consts  --      0.0180                 0.0278                 0.0286
 IR Inten    --      0.1223                 1.1077                 0.2428

                     10                     11                     12
                      A                      A                      A
 Frequencies --    240.9771               303.3570               323.6601
 Red. masses --      3.4959                 2.8035                 3.2573
 Frc consts  --      0.1196                 0.1520                 0.2010
 IR Inten    --      0.6455                 2.2506                 0.2888

                     13                     14                     15
                      A                      A                      A
 Frequencies --    337.4501               370.2207               373.4003
 Red. masses --      3.1467                 2.7266                 3.4311
 Frc consts  --      0.2111                 0.2202                 0.2819
 IR Inten    --      0.1073                 3.7519                 0.2626

                     16                     17                     18
                      A                      A                      A
 Frequencies --    398.7127               471.7823               501.6941
 Red. masses --      2.5295                 4.6116                 1.2779
 Frc consts  --      0.2369                 0.6048                 0.1895
 IR Inten    --     14.6516                 0.5900                74.3230

                     19                     20                     21
                      A                      A                      A
 Frequencies --    517.4063               558.5896               577.2783
 Red. masses --      3.0092                 3.2274                 3.4749
 Frc consts  --      0.4746                 0.5933                 0.6823
 IR Inten    --      8.8902                 7.3308                 6.9496

                     22                     23                     24
                      A                      A                      A
 Frequencies --    627.6461               680.8293               709.2613
 Red. masses --      3.6388                 1.5282                 3.8930
 Frc consts  --      0.8446                 0.4174                 1.1538
 IR Inten    --      1.1981                 1.0726                 3.2019

                     25                     26                     27
                      A                      A                      A
 Frequencies --    753.8598               788.7631               794.0618
 Red. masses --      3.3526                 3.1408                 1.4514
 Frc consts  --      1.1226                 1.1513                 0.5392
 IR Inten    --      1.5479                 3.3159                49.7300

                     28                     29                     30
                      A                      A                      A
 Frequencies --    805.5699               820.4506               880.2680
 Red. masses --      1.5941                 1.2409                 2.5106
 Frc consts  --      0.6095                 0.4922                 1.1462
 IR Inten    --      1.4975                16.7685                 2.3647

                     31                     32                     33
                      A                      A                      A
 Frequencies --    940.4415               942.4815               992.6840
 Red. masses --      1.5062                 1.7330                 1.9249
 Frc consts  --      0.7849                 0.9070                 1.1176
 IR Inten    --      0.3766                 0.6522                 1.7831

                     34                     35                     36
                      A                      A                      A
 Frequencies --   1007.1075              1008.8607              1044.4073
 Red. masses --      1.6311                 1.1600                 1.3392
 Frc consts  --      0.9747                 0.6956                 0.8607
 IR Inten    --      2.7398                16.9670                 6.2398

                     37                     38                     39
                      A                      A                      A
 Frequencies --   1067.1376              1072.1892              1082.6019
 Red. masses --      1.5948                 1.5895                 1.7449
 Frc consts  --      1.0700                 1.0766                 1.2049
 IR Inten    --      5.4829                 5.6172                 6.0038

                     40                     41                     42
                      A                      A                      A
 Frequencies --   1099.5394              1135.6476              1203.2588
 Red. masses --      1.7723                 1.7987                 1.4993
 Frc consts  --      1.2624                 1.3668                 1.2789
 IR Inten    --      2.5979                 8.7724                 2.2978

                     43                     44                     45
                      A                      A                      A
 Frequencies --   1245.7824              1261.3407              1287.4081
 Red. masses --      3.6496                 3.3639                 1.6578
 Frc consts  --      3.3372                 3.1533                 1.6189
 IR Inten    --     33.0020                69.2070                 0.7740

                     46                     47                     48
                      A                      A                      A
 Frequencies --   1299.2807              1319.3376              1347.6848
 Red. masses --      1.6577                 3.1879                 1.2241
 Frc consts  --      1.6488                 3.2694                 1.3100
 IR Inten    --     12.0655                98.9924                19.6545

                     49                     50                     51
                      A                      A                      A
 Frequencies --   1355.4669              1376.4062              1416.4753
 Red. masses --      2.7452                 1.4777                 1.4973
 Frc consts  --      2.9717                 1.6494                 1.7700
 IR Inten    --      8.4100                 6.5426                13.3809

                     52                     53                     54
                      A                      A                      A
 Frequencies --   1438.4822              1444.2364              1446.9524
 Red. masses --      1.2499                 1.2613                 1.2284
 Frc consts  --      1.5238                 1.5501                 1.5153
 IR Inten    --      4.3982                 0.4527                 0.9259

                     55                     56                     57
                      A                      A                      A
 Frequencies --   1461.1514              1512.3246              1516.8388
 Red. masses --      1.9715                 1.2909                 1.0636
 Frc consts  --      2.4799                 1.7395                 1.4418
 IR Inten    --     12.5366                43.8672                 7.8719

                     58                     59                     60
                      A                      A                      A
 Frequencies --   1517.1039              1518.8621              1525.2099
 Red. masses --      1.0822                 1.2654                 1.0723
 Frc consts  --      1.4676                 1.7199                 1.4697
 IR Inten    --      5.7174                23.0428                 9.6371

                     61                     62                     63
                      A                      A                      A
 Frequencies --   1531.7816              1536.1650              1546.0134
 Red. masses --      1.2442                 1.1173                 1.1765
 Frc consts  --      1.7200                 1.5535                 1.6567
 IR Inten    --     24.5805                30.9087                12.4015

                     64                     65                     66
                      A                      A                      A
 Frequencies --   1549.2469              1637.0274              1661.1013
 Red. masses --      1.7544                 5.4031                 6.1269
 Frc consts  --      2.4810                 8.5310                 9.9605
 IR Inten    --      3.0292                23.8280                 5.8226

                     67                     68                     69
                      A                      A                      A
 Frequencies --   1729.5871              3041.4297              3044.8972
 Red. masses --      4.0772                 1.0392                 1.0402
 Frc consts  --      7.1862                 5.6639                 5.6820
 IR Inten    --    270.0930                32.3835                45.0793

                     70                     71                     72
                      A                      A                      A
 Frequencies --   3045.3055              3063.1967              3092.3090
 Red. masses --      1.0382                 1.0643                 1.0989
 Frc consts  --      5.6728                 5.8839                 6.1913
 IR Inten    --     13.4579                22.5091                20.0471

                     73                     74                     75
                      A                      A                      A
 Frequencies --   3094.6934              3101.4348              3114.1281
 Red. masses --      1.0984                 1.0935                 1.1007
 Frc consts  --      6.1979                 6.1974                 6.2893
 IR Inten    --      3.4318                21.1819                60.1287

                     76                     77                     78
                      A                      A                      A
 Frequencies --   3123.4700              3127.1338              3134.2827
 Red. masses --      1.1026                 1.1005                 1.1027
 Frc consts  --      6.3379                 6.3405                 6.3826
 IR Inten    --     49.6510                 7.9505                13.7639

                     79                     80                     81
                      A                      A                      A
 Frequencies --   3170.8115              3174.3077              3192.6273
 Red. masses --      1.0620                 1.0866                 1.0946
 Frc consts  --      6.2912                 6.4512                 6.5733
 IR Inten    --      6.6632                11.2976                33.4291

                     82                     83                     84
                      A                      A                      A
 Frequencies --   3211.5681              3265.9121              3612.5953
 Red. masses --      1.0911                 1.1130                 1.0747
 Frc consts  --      6.6306                 6.9946                 8.2641
 IR Inten    --      5.0008                13.0850                11.7419

 - Thermochemistry -
 -------------------
 Temperature   298.150 Kelvin.  Pressure   1.00000 Atm.
 Atom     1 has atomic number  6 and mass  12.00000

 Molecular mass:   175.13610 amu.
 Principal axes and moments of inertia in atomic units:
                           1         2         3
     Eigenvalues --  1757.970312723.712564121.87891
           X            0.99931   0.03714   0.00079
           Y           -0.03714   0.99930  -0.00529
           Z           -0.00098   0.00525   0.99999
 This molecule is an asymmetric top.
 Rotational symmetry number  1.
 Warning -- assumption of classical behavior for rotation
           may cause significant error
 Rotational temperatures (Kelvin)      0.04927     0.03180     0.02101
 Rotational constants (GHZ):           1.02661     0.66260     0.43784
 Zero-point vibrational energy     692132.2 (Joules/Mol)
                                  165.42356 (Kcal/Mol)
 Warning -- explicit consideration of  21 degrees of freedom as
           vibrations may cause significant error
 Vibrational temperatures:     59.77   101.91   145.49   171.83   185.74
          (Kelvin)            214.06   246.21   280.65   310.08   346.71
                              436.46   465.67   485.52   532.66   537.24
                              573.66   678.79   721.83   744.43   803.69
                              830.57   903.04   979.56  1020.47  1084.64
                             1134.85  1142.48  1159.04  1180.45  1266.51
                             1353.09  1356.02  1428.25  1449.00  1451.53
                             1502.67  1535.37  1542.64  1557.62  1581.99
                             1633.94  1731.22  1792.40  1814.79  1852.29
                             1869.38  1898.23  1939.02  1950.21  1980.34
                             2037.99  2069.66  2077.93  2081.84  2102.27
                             2175.90  2182.39  2182.77  2185.30  2194.44
                             2203.89  2210.20  2224.37  2229.02  2355.32
                             2389.95  2488.49  4375.94  4380.93  4381.52
                             4407.26  4449.14  4452.57  4462.27  4480.54
                             4493.98  4499.25  4509.53  4562.09  4567.12
                             4593.48  4620.73  4698.92  5197.72

 Zero-point correction=                           0.263619 (Hartree/Particle)
 Thermal correction to Energy=                    0.277652
 Thermal correction to Enthalpy=                  0.278596
 Thermal correction to Gibbs Free Energy=         0.223340
 Sum of electronic and zero-point Energies=           -522.047933
 Sum of electronic and thermal Energies=              -522.033900
 Sum of electronic and thermal Enthalpies=            -522.032956
 Sum of electronic and thermal Free Energies=         -522.088212

                     E (Thermal)             CV                S
                      KCal/Mol        Cal/Mol-Kelvin    Cal/Mol-Kelvin
 Total                  174.229             53.171            116.296
 Electronic               0.000              0.000              0.000
 Translational            0.889              2.981             41.388
 Rotational               0.889              2.981             31.357
 Vibrational            172.452             47.210             43.551
 Vibration     1          0.594              1.981              5.184
 Vibration     2          0.598              1.968              4.130
 Vibration     3          0.604              1.948              3.433
 Vibration     4          0.609              1.933              3.110
 Vibration     5          0.612              1.924              2.959
 Vibration     6          0.618              1.904              2.688
 Vibration     7          0.626              1.878              2.423
 Vibration     8          0.636              1.847              2.179
 Vibration     9          0.645              1.817              1.996
 Vibration    10          0.658              1.778              1.796
 Vibration    11          0.695              1.667              1.398
 Vibration    12          0.708              1.628              1.292
 Vibration    13          0.718              1.601              1.224
 Vibration    14          0.742              1.533              1.079
 Vibration    15          0.745              1.527              1.066
 Vibration    16          0.765              1.473              0.967
 Vibration    17          0.829              1.313              0.733
 Vibration    18          0.857              1.246              0.654
 Vibration    19          0.872              1.211              0.616
 Vibration    20          0.914              1.121              0.527
 Vibration    21          0.934              1.080              0.490

 Optimization completed.
    -- Stationary point found.
 Normal termination of Gaussian 16 at Wed Dec  9 23:47:09 2020.

 ----------------------------------------------------------------------
 # B3LYP/6-311++G(d,p) empiricaldispersion=gd3bj scf=xqc pop=npa geom=c
 heck
 ----------------------------------------------------------------------

 --------------------------------------
 CID_88993522_JID_3541_Energie_neutraal
 --------------------------------------
 Structure from the checkpoint file:  "JID_3541.chk"
 Charge =  0 Multiplicity = 1

 SCF Done:  E(RB3LYP) =  -522.453707475     A.U. after   15 cycles
 Normal termination of Gaussian 16 at Wed Dec  9 23:51:20 2020.

 ----------------------------------------------------------------------
 # B3LYP/6-311++G(d,p) empiricaldispersion=gd3bj scf=xqc pop=npa geom=c
 heck
 ----------------------------------------------------------------------

 ------------------------------------
 CID_88993522_JID_3541_Energie_kation
 ------------------------------------
 Structure from the checkpoint file:  "JID_3541.chk"
 Charge =  1 Multiplicity = 2

 SCF Done:  E(UB3LYP) =  -522.188654922     A.U. after   23 cycles
 Normal termination of Gaussian 16 at Thu Dec 10 00:00:31 2020.
 Gaussian 16:  ES64L-G16RevA.03 25-Dec-2016

 ----------------------------------------------------------------------
 # B3LYP/6-311++G(d,p) empiricaldispersion=gd3bj scf=xqc pop=npa geom=c
 heck
 ----------------------------------------------------------------------

 -----------------------------------
 CID_88993522_JID_3541_Energie_anion
 -----------------------------------
 Structure from the checkpoint file:  "JID_3541.chk"
 Charge = -1 Multiplicity = 2

                         Standard orientation:
 ---------------------------------------------------------------------
 Center     Atomic      Atomic             Coordinates (Angstroms)
 Number     Number       Type             X           Y           Z
 ---------------------------------------------------------------------
      1          6           0       -1.040263   -2.656193    1.067624
      2          6           0       -0.868425   -1.940278   -0.284922
      3          6           0       -0.829968   -0.432210   -0.157192
      4          6           0       -2.008864    0.327715   -0.273473
      5          6           0       -1.933194    1.718279   -0.164950
      6          6           0       -0.718789    2.350668    0.080864
      7          6           0        0.461872    1.623006    0.235009
      8          6           0        0.394924    0.220531    0.099501
      9          7           0        1.573369   -0.547968    0.261468
     10          6           0        2.692877   -0.420299   -0.553341
     11          6           0        3.744942   -1.249597   -0.573846
     12          6           0        1.746425    2.329929    0.592452
     13          6           0       -3.345282   -0.326831   -0.538582
     14          1           0       -0.222202   -2.420386    1.759358
     15          1           0       -1.069202   -3.743913    0.938518
     16          1           0       -1.968936   -2.345084    1.557661
     17          1           0        0.048492   -2.291503   -0.772058
     18          1           0       -1.690634   -2.235157   -0.943819
     19          1           0       -2.839342    2.310499   -0.262832
     20          1           0       -0.687182    3.432305    0.187080
     21          1           0        1.454863   -1.458418    0.682992
     22          1           0        2.655334    0.445123   -1.207676
     23          1           0        4.575082   -1.062337   -1.243595
     24          1           0        3.806258   -2.124384    0.068763
     25          1           0        2.343714    1.730715    1.286613
     26          1           0        2.378701    2.528485   -0.282249
     27          1           0        1.530764    3.295694    1.059882
     28          1           0       -3.369373   -0.826798   -1.515404
     29          1           0       -3.590887   -1.085305    0.213890
     30          1           0       -4.146564    0.417909   -0.532255
 ---------------------------------------------------------------------

 SCF Done:  E(UB3LYP) =  -522.438395955     A.U. after   33 cycles
 SCF Done:  E(UB3LYP) =  -522.438395955     a.u. after    1 cycles

 The electronic state is 2-A.
 Alpha  occ. eigenvalues --  -14.23214 -10.11269 -10.10675 -10.07882 -10.07588
 Alpha  occ. eigenvalues --  -10.07231 -10.07212 -10.06641 -10.06513 -10.06339
 Alpha  occ. eigenvalues --  -10.06150 -10.05331 -10.05272  -0.84698  -0.75413
 Alpha  occ. eigenvalues --   -0.69660  -0.67545  -0.64707  -0.62148  -0.60761
 Alpha  occ. eigenvalues --   -0.55661  -0.53070  -0.50727  -0.49128  -0.45767
 Alpha  occ. eigenvalues --   -0.41633  -0.39606  -0.37461  -0.36927  -0.33843
 Alpha  occ. eigenvalues --   -0.33218  -0.32880  -0.31836  -0.31469  -0.30340
 Alpha  occ. eigenvalues --   -0.29774  -0.28743  -0.28158  -0.27371  -0.26899
 Alpha  occ. eigenvalues --   -0.26287  -0.24674  -0.23380  -0.23096  -0.22192
 Alpha  occ. eigenvalues --   -0.15413  -0.13395  -0.10287   0.04682
 Alpha virt. eigenvalues --    0.06642   0.06923   0.07790   0.08588   0.08613
 Alpha virt. eigenvalues --    0.09072   0.09485   0.09769   0.10267   0.10850
 Alpha virt. eigenvalues --    0.11284   0.11665   0.12398   0.12444   0.12875

  Beta  occ. eigenvalues --  -14.23197 -10.11261 -10.10649 -10.07890 -10.07583
  Beta  occ. eigenvalues --  -10.07218 -10.07183 -10.06604 -10.06498 -10.06325
  Beta  occ. eigenvalues --  -10.06112 -10.05265 -10.05254  -0.84657  -0.75368
  Beta  occ. eigenvalues --   -0.69615  -0.67500  -0.64664  -0.62101  -0.60698
  Beta  occ. eigenvalues --   -0.55596  -0.52965  -0.50680  -0.49069  -0.45709
  Beta  occ. eigenvalues --   -0.41588  -0.39570  -0.37418  -0.36880  -0.33794
  Beta  occ. eigenvalues --   -0.33165  -0.32844  -0.31806  -0.31423  -0.30299
  Beta  occ. eigenvalues --   -0.29740  -0.28695  -0.28107  -0.27322  -0.26837
  Beta  occ. eigenvalues --   -0.26232  -0.24632  -0.23321  -0.23042  -0.22145
  Beta  occ. eigenvalues --   -0.15293  -0.13271  -0.10234
  Beta virt. eigenvalues --    0.06601   0.07404   0.07504   0.08086   0.08825
  Beta virt. eigenvalues --    0.08997   0.09378   0.09916   0.10139   0.10436
  Beta virt. eigenvalues --    0.11184   0.11640   0.11920   0.12659   0.12995

 Mulliken charges and spin densities:
               1          2
     1  C    2.124280  -2.724652
     2  C   -3.081381   2.456767
     3  C    0.101797   0.800390
     4  C   -0.848848   1.522395
     5  C    0.197525  -0.998993
     6  C   -0.570980  -0.191530
     7  C    1.840684  -0.839804
     8  C   -1.443227   0.605421
     9  N    0.077438  -0.006530
    10  C   -0.377038   0.289054
    11  C    0.041448  -0.459600
    12  C    0.458878  -0.998037
    13  C    2.955741  -3.473960
    14  H   -0.506065   0.629274
    15  H   -0.699356   0.853325
    16  H   -0.200118   0.337786
    17  H   -0.105587   0.313908
    18  H   -0.346968   0.489910
    19  H   -0.249309   0.361647
    20  H   -0.109552   0.230935
    21  H    0.391753  -0.111236
    22  H    0.047353   0.062240
    23  H    0.081793   0.026890
    24  H   -0.279918   0.381535
    25  H    0.094415   0.085491
    26  H    0.081921   0.063220
    27  H   -0.054185   0.195237
    28  H   -0.055521   0.219898
    29  H   -0.285395   0.447096
    30  H   -0.281577   0.431925
 Sum of Mulliken charges =  -1.00000   1.00000

 Dipole moment (field-independent basis, Debye):
    X=              3.6477    Y=              6.2187    Z=             -1.9203  Tot=              7.4609
 Quadrupole moment (field-independent basis, Debye-Ang):
   XX=           -142.0659   YY=           -141.7130   ZZ=           -110.9610
   XY=             -2.8937   XZ=             -1.8057   YZ=              3.9315

 Summary of Natural Population Analysis:

                                       Natural Population
                Natural  -----------------------------------------------
    Atom  No    Charge         Core      Valence    Rydberg      Total
 -----------------------------------------------------------------------
      C    1   -0.27950      0.99966     2.27439    0.00546     3.27950
      C    2   -0.20611      0.99961     2.19703    0.00947     3.20611
      C    3   -0.01342      0.99944     2.00344    0.01055     3.01342
      C    4   -0.01016      0.99948     2.00123    0.00945     3.01016
      C    5   -0.10443      0.99951     2.09464    0.01028     3.10443
      C    6   -0.10808      0.99955     2.09448    0.01405     3.10808
      C    7    0.01394      0.99948     1.98176    0.00482     2.98606
      C    8    0.06782      0.99942     1.91540    0.01736     2.93218
      N    9   -0.31592      0.99967     2.80517    0.01109     3.81592
      C   10    0.02044      0.99954     1.96882    0.01119     2.97956
      C   11   -0.25599      0.99959     2.24833    0.00807     3.25599
      C   12   -0.30379      0.99966     2.29612    0.00801     3.30379
      C   13   -0.29474      0.99964     2.28932    0.00578     3.29474
      H   14    0.09242      0.00000     0.40571    0.00187     0.40758
      H   15    0.10295      0.00000     0.39385    0.00320     0.39705
      H   16    0.09936      0.00000     0.39908    0.00156     0.40064
      H   17    0.10242      0.00000     0.39593    0.00164     0.39758
      H   18    0.10502      0.00000     0.39343    0.00154     0.39498
      H   19    0.09670      0.00000     0.40206    0.00124     0.40330
      H   20    0.09480      0.00000     0.40403    0.00116     0.40520
      H   21    0.19456      0.00000     0.30202    0.00342     0.30544
      H   22    0.09206      0.00000     0.40669    0.00125     0.40794
      H   23    0.09527      0.00000     0.40389    0.00084     0.40473
      H   24    0.09369      0.00000     0.40506    0.00125     0.40631
      H   25    0.10897      0.00000     0.38971    0.00132     0.39103
      H   26    0.09833      0.00000     0.40015    0.00152     0.40167
      H   27    0.10083      0.00000     0.39816    0.00100     0.39917
      H   28    0.10342      0.00000     0.39545    0.00114     0.39658
      H   29    0.10760      0.00000     0.39095    0.00145     0.39240
      H   30    0.10164      0.00000     0.39717    0.00119     0.39836
 =======================================================================
   * Total *    0.00009     12.99425    34.85349    0.15217    47.99991

 Normal termination of Gaussian 16 at Thu Dec 10 00:13:46 2020.
