 Gaussian 16, Revision A.03,

 -----------------------------------------------------------
 # opt freq B3LYP/6-31G(d) empiricaldispersion=gd3bj scf=xqc
 -----------------------------------------------------------

 ------------------------------
 CID_80319303_JID_5121_neutraal
 ------------------------------
 Symbolic Z-matrix:
 Charge =  0 Multiplicity = 1

 SCF Done:  E(RB3LYP) =  -996.941750469     A.U. after   15 cycles
 SCF Done:  E(RB3LYP) =  -996.945987362     A.U. after   12 cycles
 SCF Done:  E(RB3LYP) =  -996.946376090     A.U. after   12 cycles
 SCF Done:  E(RB3LYP) =  -996.946523137     A.U. after   12 cycles
 SCF Done:  E(RB3LYP) =  -996.946608378     A.U. after   11 cycles
 SCF Done:  E(RB3LYP) =  -996.946613575     A.U. after   10 cycles
 SCF Done:  E(RB3LYP) =  -996.946617766     A.U. after    9 cycles
 SCF Done:  E(RB3LYP) =  -996.946618954     A.U. after    8 cycles
 SCF Done:  E(RB3LYP) =  -996.946619964     A.U. after    9 cycles
 SCF Done:  E(RB3LYP) =  -996.946620373     A.U. after    9 cycles
 SCF Done:  E(RB3LYP) =  -996.946620445     A.U. after    9 cycles
 SCF Done:  E(RB3LYP) =  -996.946620397     A.U. after    8 cycles
 SCF Done:  E(RB3LYP) =  -996.946620372     A.U. after    7 cycles
 SCF Done:  E(RB3LYP) =  -996.946620334     A.U. after    7 cycles
 Optimization completed.
    -- Stationary point found.
 Normal termination of Gaussian 16 at Thu Dec 10 14:48:49 2020.

 --------------------------------------------------------------------
 #N Geom=AllCheck Guess=TCheck SCRF=Check GenChk RB3LYP/6-31G(d) Freq
 --------------------------------------------------------------------

 Structure from the checkpoint file:  "JID_5121.chk"
 ------------------------------
 CID_80319303_JID_5121_neutraal
 ------------------------------
 Charge =  0 Multiplicity = 1

 SCF Done:  E(RB3LYP) =  -996.946620334     A.U. after    1 cycles

  Exact polarizability: 168.573   6.410 142.414   9.943 -10.336 125.108
 Approx polarizability: 225.855  20.249 232.433  23.861 -24.062 195.922

                      1                      2                      3
                      A                      A                      A
 Frequencies --     16.2058                44.9095                63.0392
 Red. masses --      5.5262                 4.0109                 3.3577
 Frc consts  --      0.0009                 0.0048                 0.0079
 IR Inten    --      0.1383                 0.7160                 0.1939

                      4                      5                      6
                      A                      A                      A
 Frequencies --     90.5781               125.9617               131.6270
 Red. masses --      3.7240                 2.4528                 1.0661
 Frc consts  --      0.0180                 0.0229                 0.0109
 IR Inten    --      0.2282                 1.2707                 0.1213

                      7                      8                      9
                      A                      A                      A
 Frequencies --    169.2353               194.5729               203.5203
 Red. masses --      2.6095                 3.9332                 4.2325
 Frc consts  --      0.0440                 0.0877                 0.1033
 IR Inten    --      0.1655                 4.4821                 1.0789

                     10                     11                     12
                      A                      A                      A
 Frequencies --    252.6637               295.3432               308.1122
 Red. masses --      3.9460                 2.1838                 2.2765
 Frc consts  --      0.1484                 0.1122                 0.1273
 IR Inten    --      0.1762                 2.0021                 0.3398

                     13                     14                     15
                      A                      A                      A
 Frequencies --    329.4893               341.7264               356.4304
 Red. masses --      1.2310                 2.9822                 2.3576
 Frc consts  --      0.0787                 0.2052                 0.1765
 IR Inten    --     84.3337                 0.4672                16.0728

                     16                     17                     18
                      A                      A                      A
 Frequencies --    385.2375               386.8541               438.8497
 Red. masses --      2.7379                 2.7748                 3.5347
 Frc consts  --      0.2394                 0.2447                 0.4011
 IR Inten    --     15.9040                 3.3665                20.3611

                     19                     20                     21
                      A                      A                      A
 Frequencies --    506.6704               529.1416               538.0039
 Red. masses --      2.3891                 2.5898                 3.9988
 Frc consts  --      0.3614                 0.4272                 0.6819
 IR Inten    --      0.5297                 1.4990                 0.5989

                     22                     23                     24
                      A                      A                      A
 Frequencies --    560.3798               584.6763               631.5004
 Red. masses --      6.9938                 3.0734                 4.7251
 Frc consts  --      1.2940                 0.6190                 1.1102
 IR Inten    --      2.4405                 0.6385                 1.7841

                     25                     26                     27
                      A                      A                      A
 Frequencies --    651.2372               721.3743               742.7683
 Red. masses --      5.3979                 2.6545                 1.4661
 Frc consts  --      1.3488                 0.8139                 0.4766
 IR Inten    --      1.8633                13.1718                14.5240

                     28                     29                     30
                      A                      A                      A
 Frequencies --    761.4401               798.2454               832.9651
 Red. masses --      1.4174                 2.1987                 2.4272
 Frc consts  --      0.4842                 0.8254                 0.9922
 IR Inten    --      5.9617                 8.6571                 0.9997

                     31                     32                     33
                      A                      A                      A
 Frequencies --    861.0876               871.2829               908.7654
 Red. masses --      3.4215                 2.0947                 2.1190
 Frc consts  --      1.4947                 0.9369                 1.0311
 IR Inten    --      3.1961                 4.3857                 4.5671

                     34                     35                     36
                      A                      A                      A
 Frequencies --    936.9655               962.1966               984.3146
 Red. masses --      2.0881                 2.3169                 2.9155
 Frc consts  --      1.0801                 1.2638                 1.6643
 IR Inten    --      7.0517                 8.7063                 1.1382

                     37                     38                     39
                      A                      A                      A
 Frequencies --   1011.3949              1024.0706              1032.6797
 Red. masses --      2.8939                 1.5524                 2.3279
 Frc consts  --      1.7441                 0.9592                 1.4627
 IR Inten    --     15.2869                 5.1886                 2.3165

                     40                     41                     42
                      A                      A                      A
 Frequencies --   1041.5232              1050.8203              1075.0849
 Red. masses --      2.1880                 1.8835                 2.4689
 Frc consts  --      1.3984                 1.2254                 1.6812
 IR Inten    --     40.4465                35.3833                42.5138

                     43                     44                     45
                      A                      A                      A
 Frequencies --   1079.4133              1110.4345              1130.4534
 Red. masses --      1.5059                 2.4285                 2.5645
 Frc consts  --      1.0338                 1.7643                 1.9309
 IR Inten    --      3.6661                31.5038                47.6812

                     46                     47                     48
                      A                      A                      A
 Frequencies --   1150.8200              1159.3147              1174.3847
 Red. masses --      2.3063                 2.0437                 1.2406
 Frc consts  --      1.7997                 1.6184                 1.0081
 IR Inten    --      4.3558                 0.4233                10.9735

                     49                     50                     51
                      A                      A                      A
 Frequencies --   1186.0609              1215.6400              1248.9171
 Red. masses --      1.6729                 1.2372                 1.2331
 Frc consts  --      1.3865                 1.0772                 1.1332
 IR Inten    --      9.6618                 4.4739                 4.6353

                     52                     53                     54
                      A                      A                      A
 Frequencies --   1275.6110              1281.1383              1293.5931
 Red. masses --      1.4052                 1.2069                 1.3885
 Frc consts  --      1.3472                 1.1671                 1.3689
 IR Inten    --      7.1058                 1.4813                 4.2453

                     55                     56                     57
                      A                      A                      A
 Frequencies --   1330.2242              1333.2805              1353.0999
 Red. masses --      1.2954                 1.2372                 1.2218
 Frc consts  --      1.3505                 1.2958                 1.3180
 IR Inten    --     10.9246                 1.2484                 0.3258

                     58                     59                     60
                      A                      A                      A
 Frequencies --   1355.8238              1386.5845              1387.2356
 Red. masses --      3.4232                 1.3769                 1.3625
 Frc consts  --      3.7076                 1.5597                 1.5449
 IR Inten    --     32.9604                 0.3863                 9.0955

                     61                     62                     63
                      A                      A                      A
 Frequencies --   1401.2356              1409.2727              1415.6553
 Red. masses --      1.3888                 1.4323                 1.4247
 Frc consts  --      1.6066                 1.6760                 1.6823
 IR Inten    --      3.1823                 0.7479                 3.9769

                     64                     65                     66
                      A                      A                      A
 Frequencies --   1423.1302              1432.4197              1441.5002
 Red. masses --      1.4147                 1.4289                 1.2744
 Frc consts  --      1.6882                 1.7274                 1.5602
 IR Inten    --      6.1292                 9.1979                 1.6130

                     67                     68                     69
                      A                      A                      A
 Frequencies --   1452.1396              1503.0041              1505.5559
 Red. masses --      1.2062                 1.1212                 1.0447
 Frc consts  --      1.4985                 1.4923                 1.3952
 IR Inten    --     38.5616                12.3686                 5.5882

                     70                     71                     72
                      A                      A                      A
 Frequencies --   1512.0742              1512.6711              1517.1484
 Red. masses --      1.2107                 1.0901                 1.0834
 Frc consts  --      1.6310                 1.4697                 1.4693
 IR Inten    --      7.6020                 0.5607                 4.9381

                     73                     74                     75
                      A                      A                      A
 Frequencies --   1520.6376              1534.4371              1539.9203
 Red. masses --      1.0892                 1.0824                 1.1002
 Frc consts  --      1.4839                 1.5016                 1.5372
 IR Inten    --      3.6940                13.3996                 2.2260

                     76                     77                     78
                      A                      A                      A
 Frequencies --   1554.0161              1596.7646              2986.2861
 Red. masses --      5.3323                 5.0062                 1.0729
 Frc consts  --      7.5872                 7.5204                 5.6375
 IR Inten    --      9.0209                36.2689                15.8149

                     79                     80                     81
                      A                      A                      A
 Frequencies --   2993.2656              3026.1292              3032.6480
 Red. masses --      1.0810                 1.0634                 1.0674
 Frc consts  --      5.7062                 5.7375                 5.7837
 IR Inten    --     50.0253                18.4352                32.4200

                     82                     83                     84
                      A                      A                      A
 Frequencies --   3037.4279              3047.9095              3052.8791
 Red. masses --      1.0612                 1.0632                 1.0365
 Frc consts  --      5.7682                 5.8190                 5.6916
 IR Inten    --     27.7886                20.5466                24.7462

                     85                     86                     87
                      A                      A                      A
 Frequencies --   3057.4676              3066.9096              3071.9059
 Red. masses --      1.0976                 1.0623                 1.1022
 Frc consts  --      6.0451                 5.8872                 6.1279
 IR Inten    --     18.3613                18.5482                56.2668

                     88                     89                     90
                      A                      A                      A
 Frequencies --   3074.1858              3079.4270              3085.8992
 Red. masses --      1.0969                 1.0909                 1.1018
 Frc consts  --      6.1078                 6.0949                 6.1819
 IR Inten    --     46.3110                43.7765                62.2832

                     91                     92                     93
                      A                      A                      A
 Frequencies --   3108.4708              3111.9013              3114.5940
 Red. masses --      1.1012                 1.1007                 1.0887
 Frc consts  --      6.2691                 6.2802                 6.2225
 IR Inten    --     15.4189                 3.4444                19.6133

                     94                     95                     96
                      A                      A                      A
 Frequencies --   3138.7081              3274.9578              3712.0095
 Red. masses --      1.1020                 1.0946                 1.0657
 Frc consts  --      6.3965                 6.9169                 8.6514
 IR Inten    --     17.3622                 1.5990                 5.8234

 - Thermochemistry -
 -------------------
 Temperature   298.150 Kelvin.  Pressure   1.00000 Atm.
 Atom     1 has atomic number  6 and mass  12.00000

 Molecular mass:   225.11874 amu.
 Principal axes and moments of inertia in atomic units:
                           1         2         3
     Eigenvalues --  2080.006445764.932836173.51334
           X            0.99978  -0.01990   0.00596
           Y            0.02012   0.99900  -0.04000
           Z           -0.00515   0.04011   0.99918
 This molecule is an asymmetric top.
 Rotational symmetry number  1.
 Warning -- assumption of classical behavior for rotation
           may cause significant error
 Rotational temperatures (Kelvin)      0.04164     0.01502     0.01403
 Rotational constants (GHZ):           0.86766     0.31306     0.29234
 Zero-point vibrational energy     780859.7 (Joules/Mol)
                                  186.62994 (Kcal/Mol)
 Warning -- explicit consideration of  23 degrees of freedom as
           vibrations may cause significant error
 Vibrational temperatures:     23.32    64.61    90.70   130.32   181.23
          (Kelvin)            189.38   243.49   279.95   292.82   363.53
                              424.93   443.30   474.06   491.67   512.82
                              554.27   556.60   631.41   728.99   761.32
                              774.07   806.26   841.22   908.59   936.99
                             1037.90  1068.68  1095.54  1148.50  1198.45
                             1238.91  1253.58  1307.51  1348.08  1384.39
                             1416.21  1455.17  1473.41  1485.80  1498.52
                             1511.90  1546.81  1553.03  1597.67  1626.47
                             1655.77  1668.00  1689.68  1706.48  1749.03
                             1796.91  1835.32  1843.27  1861.19  1913.90
                             1918.29  1946.81  1950.73  1994.99  1995.92
                             2016.07  2027.63  2036.81  2047.57  2060.93
                             2074.00  2089.30  2162.49  2166.16  2175.54
                             2176.40  2182.84  2187.86  2207.71  2215.60
                             2235.88  2297.39  4296.60  4306.64  4353.92
                             4363.30  4370.18  4385.26  4392.41  4399.01
                             4412.60  4419.79  4423.07  4430.61  4439.92
                             4472.40  4477.33  4481.21  4515.90  4711.93
                             5340.75

 Zero-point correction=                           0.297414 (Hartree/Particle)
 Thermal correction to Energy=                    0.312547
 Thermal correction to Enthalpy=                  0.313491
 Thermal correction to Gibbs Free Energy=         0.253895
 Sum of electronic and zero-point Energies=           -996.649207
 Sum of electronic and thermal Energies=              -996.634073
 Sum of electronic and thermal Enthalpies=            -996.633129
 Sum of electronic and thermal Free Energies=         -996.692726

                     E (Thermal)             CV                S
                      KCal/Mol        Cal/Mol-Kelvin    Cal/Mol-Kelvin
 Total                  196.126             58.226            125.431
 Electronic               0.000              0.000              0.000
 Translational            0.889              2.981             42.137
 Rotational               0.889              2.981             32.670
 Vibrational            194.349             52.265             50.624
 Vibration     1          0.593              1.986              7.052
 Vibration     2          0.595              1.979              5.030
 Vibration     3          0.597              1.972              4.360
 Vibration     4          0.602              1.956              3.648
 Vibration     5          0.611              1.927              3.007
 Vibration     6          0.612              1.922              2.922
 Vibration     7          0.625              1.880              2.444
 Vibration     8          0.635              1.847              2.184
 Vibration     9          0.639              1.835              2.101
 Vibration    10          0.664              1.758              1.712
 Vibration    11          0.690              1.682              1.443
 Vibration    12          0.698              1.658              1.372
 Vibration    13          0.712              1.617              1.263
 Vibration    14          0.721              1.592              1.204
 Vibration    15          0.732              1.562              1.138
 Vibration    16          0.754              1.502              1.019
 Vibration    17          0.755              1.498              1.012
 Vibration    18          0.799              1.385              0.830
 Vibration    19          0.862              1.235              0.642
 Vibration    20          0.884              1.186              0.589
 Vibration    21          0.893              1.166              0.570
 Vibration    22          0.916              1.117              0.523
 Vibration    23          0.942              1.064              0.477

                           ! Non-Optimized Parameters !
 Normal termination of Gaussian 16 at Thu Dec 10 14:59:36 2020.

 ----------------------------------------------------------------------
 # B3LYP/6-311++G(d,p) empiricaldispersion=gd3bj scf=xqc pop=npa geom=c
 heck
 ----------------------------------------------------------------------

 --------------------------------------
 CID_80319303_JID_5121_Energie_neutraal
 --------------------------------------
 Structure from the checkpoint file:  "JID_5121.chk"
 Charge =  0 Multiplicity = 1

 SCF Done:  E(RB3LYP) =  -997.143086412     A.U. after   15 cycles
 Normal termination of Gaussian 16 at Thu Dec 10 15:04:27 2020.

 ----------------------------------------------------------------------
 # B3LYP/6-311++G(d,p) empiricaldispersion=gd3bj scf=xqc pop=npa geom=c
 heck
 ----------------------------------------------------------------------

 ------------------------------------
 CID_80319303_JID_5121_Energie_kation
 ------------------------------------
 Structure from the checkpoint file:  "JID_5121.chk"
 Charge =  1 Multiplicity = 2

 SCF Done:  E(UB3LYP) =  -996.839593797     A.U. after   23 cycles
 Normal termination of Gaussian 16 at Thu Dec 10 15:15:01 2020.
 Gaussian 16:  ES64L-G16RevA.03 25-Dec-2016

 ----------------------------------------------------------------------
 # B3LYP/6-311++G(d,p) empiricaldispersion=gd3bj scf=xqc pop=npa geom=c
 heck
 ----------------------------------------------------------------------

 -----------------------------------
 CID_80319303_JID_5121_Energie_anion
 -----------------------------------
 Structure from the checkpoint file:  "JID_5121.chk"
 Charge = -1 Multiplicity = 2

                         Standard orientation:
 ---------------------------------------------------------------------
 Center     Atomic      Atomic             Coordinates (Angstroms)
 Number     Number       Type             X           Y           Z
 ---------------------------------------------------------------------
      1          6           0       -3.196787    1.922833   -1.610933
      2          6           0       -2.828406    0.762700   -0.737009
      3          6           0       -3.564021   -0.374495   -0.553213
      4         16           0       -2.752324   -1.447947    0.542104
      5          6           0       -1.452232   -0.264337    0.685914
      6          7           0       -1.640249    0.806213   -0.030043
      7          6           0       -0.257649   -0.533200    1.555713
      8          6           0        1.100226   -0.416795    0.817267
      9          6           0        1.072278   -1.213243   -0.503767
     10          6           0        2.399016   -1.837062   -0.959856
     11          6           0        3.638090   -0.924162   -0.896189
     12          6           0        3.370940    0.565457   -1.163035
     13          6           0        2.891240    1.327192    0.081121
     14          6           0        1.468329    1.068133    0.592149
     15          8           0        1.274315    1.837703    1.786904
     16          1           0       -3.267363    2.843723   -1.020928
     17          1           0       -2.430924    2.087909   -2.377637
     18          1           0       -4.155661    1.754546   -2.109123
     19          1           0       -4.519182   -0.629343   -0.990279
     20          1           0       -0.264192    0.179036    2.386812
     21          1           0       -0.348367   -1.540536    1.976589
     22          1           0        1.853594   -0.855733    1.491471
     23          1           0        0.679821   -0.556102   -1.289173
     24          1           0        0.338571   -2.024452   -0.417951
     25          1           0        2.259905   -2.184068   -1.992100
     26          1           0        2.598226   -2.738476   -0.365217
     27          1           0        4.381088   -1.300756   -1.609871
     28          1           0        4.108879   -1.008912    0.092893
     29          1           0        2.658510    0.689766   -1.989861
     30          1           0        4.304186    1.035896   -1.496173
     31          1           0        2.967810    2.407227   -0.090901
     32          1           0        3.592268    1.098885    0.901774
     33          1           0        0.739690    1.480093   -0.111151
     34          1           0        1.981409    1.585210    2.403258
 ---------------------------------------------------------------------

 SCF Done:  E(UB3LYP) =  -997.129034704     A.U. after   33 cycles
 SCF Done:  E(UB3LYP) =  -997.129297458     a.u. after    6 cycles

 The electronic state is 2-A.
 Alpha  occ. eigenvalues --  -88.77462 -19.01479 -14.20322 -10.13011 -10.10992
 Alpha  occ. eigenvalues --  -10.10860 -10.09288 -10.07712 -10.07647 -10.07549
 Alpha  occ. eigenvalues --  -10.06838 -10.06652 -10.06507 -10.06409 -10.06357
 Alpha  occ. eigenvalues --   -7.86117  -5.82380  -5.82040  -5.81738  -0.91700
 Alpha  occ. eigenvalues --   -0.85992  -0.73008  -0.69744  -0.69257  -0.66731
 Alpha  occ. eigenvalues --   -0.65445  -0.61565  -0.57041  -0.54632  -0.53047
 Alpha  occ. eigenvalues --   -0.49015  -0.47283  -0.45541  -0.42792  -0.39629
 Alpha  occ. eigenvalues --   -0.37487  -0.36906  -0.36305  -0.35579  -0.33991
 Alpha  occ. eigenvalues --   -0.33788  -0.32852  -0.31688  -0.31485  -0.29688
 Alpha  occ. eigenvalues --   -0.29539  -0.28529  -0.27552  -0.26671  -0.26455
 Alpha  occ. eigenvalues --   -0.25806  -0.24815  -0.23895  -0.22453  -0.21560
 Alpha  occ. eigenvalues --   -0.21091  -0.20811  -0.18052  -0.17041  -0.16657
 Alpha  occ. eigenvalues --   -0.13624   0.04367
 Alpha virt. eigenvalues --    0.05654   0.06483   0.07206   0.07535   0.08065
 Alpha virt. eigenvalues --    0.08676   0.09305   0.09720   0.09968   0.10443
 Alpha virt. eigenvalues --    0.11069   0.11484   0.11739   0.12102   0.12721

  Beta  occ. eigenvalues --  -88.77449 -19.01453 -14.20297 -10.12898 -10.10993
  Beta  occ. eigenvalues --  -10.10864 -10.09227 -10.07715 -10.07629 -10.07524
  Beta  occ. eigenvalues --  -10.06828 -10.06641 -10.06504 -10.06387 -10.06333
  Beta  occ. eigenvalues --   -7.86106  -5.82375  -5.82033  -5.81697  -0.91652
  Beta  occ. eigenvalues --   -0.85899  -0.72970  -0.69674  -0.69175  -0.66690
  Beta  occ. eigenvalues --   -0.65411  -0.61510  -0.56968  -0.54593  -0.52988
  Beta  occ. eigenvalues --   -0.48922  -0.47211  -0.45483  -0.42711  -0.39569
  Beta  occ. eigenvalues --   -0.37422  -0.36848  -0.36272  -0.35546  -0.33897
  Beta  occ. eigenvalues --   -0.33740  -0.32794  -0.31618  -0.31439  -0.29643
  Beta  occ. eigenvalues --   -0.29504  -0.28453  -0.27485  -0.26604  -0.26396
  Beta  occ. eigenvalues --   -0.25741  -0.24783  -0.23847  -0.22419  -0.21526
  Beta  occ. eigenvalues --   -0.21049  -0.20777  -0.17823  -0.17003  -0.16611
  Beta  occ. eigenvalues --   -0.13310
  Beta virt. eigenvalues --    0.06375   0.06762   0.07276   0.07707   0.08109
  Beta virt. eigenvalues --    0.08426   0.08901   0.09645   0.10006   0.10250
  Beta virt. eigenvalues --    0.10626   0.11336   0.11658   0.11923   0.12240

 Mulliken charges and spin densities:
               1          2
     1  C    1.023097  -1.591231
     2  C   -0.648154   0.201398
     3  C   -0.479230   0.518949
     4  S    0.270531  -0.497281
     5  C   -1.081490   1.164789
     6  N    0.099702   0.025127
     7  C    1.312185  -1.799349
     8  C    0.449897   0.863357
     9  C   -0.492753   0.041040
    10  C   -0.209279  -0.621541
    11  C    0.604971  -0.868099
    12  C   -0.641501   0.422149
    13  C    0.650576  -0.772799
    14  C   -0.434228  -0.684170
    15  O   -0.166016  -0.004072
    16  H    0.079112   0.082609
    17  H    0.023629   0.124492
    18  H   -0.190482   0.333925
    19  H   -0.642959   0.881913
    20  H    0.003089   0.220138
    21  H   -0.000368   0.148593
    22  H   -0.216069   0.457242
    23  H    0.180901  -0.014113
    24  H    0.176266  -0.028419
    25  H   -0.007178   0.150399
    26  H   -0.106189   0.247700
    27  H   -0.349087   0.525366
    28  H   -0.067332   0.199863
    29  H    0.106403   0.005055
    30  H   -0.293668   0.477982
    31  H    0.106043   0.061311
    32  H   -0.417175   0.548981
    33  H    0.302966  -0.007416
    34  H    0.053789   0.186112
 Sum of Mulliken charges =  -1.00000   1.00000

 Dipole moment (field-independent basis, Debye):
    X=             -2.4145    Y=             -0.6613    Z=             -0.5545  Tot=              2.5640
 Quadrupole moment (field-independent basis, Debye-Ang):
   XX=           -190.3504   YY=           -134.6585   ZZ=           -138.1958
   XY=              3.5194   XZ=             -8.8194   YZ=             -2.9815

 Summary of Natural Population Analysis:

                                       Natural Population
                Natural  -----------------------------------------------
    Atom  No    Charge         Core      Valence    Rydberg      Total
 -----------------------------------------------------------------------
      C    1   -0.29409      0.99962     2.28850    0.00596     3.29409
      C    2    0.06354      0.99950     1.92337    0.01359     2.93646
      C    3   -0.20806      0.99945     2.19792    0.01069     3.20806
      S    4    0.17933      4.99942     2.80208    0.01916     7.82067
      C    5    0.07289      0.99960     1.91031    0.01719     2.92711
      N    6   -0.25392      0.99962     2.74369    0.01062     3.75392
      C    7   -0.21500      0.99956     2.20339    0.01206     3.21500
      C    8   -0.11488      0.99957     2.10226    0.01305     3.11488
      C    9   -0.19540      0.99961     2.18710    0.00869     3.19540
      C   10   -0.18489      0.99963     2.17609    0.00918     3.18489
      C   11   -0.19181      0.99963     2.18380    0.00838     3.19181
      C   12   -0.19293      0.99962     2.18467    0.00864     3.19293
      C   13   -0.19643      0.99960     2.18712    0.00971     3.19643
      C   14    0.05970      0.99951     1.92729    0.01350     2.94030
      O   15   -0.37118      0.99990     3.36477    0.00651     4.37118
      H   16    0.10531      0.00000     0.39369    0.00100     0.39469
      H   17    0.10554      0.00000     0.39344    0.00103     0.39446
      H   18    0.10261      0.00000     0.39648    0.00091     0.39739
      H   19    0.11108      0.00000     0.38738    0.00154     0.38892
      H   20    0.12395      0.00000     0.37454    0.00151     0.37605
      H   21    0.10204      0.00000     0.39700    0.00096     0.39796
      H   22    0.09851      0.00000     0.39922    0.00227     0.40149
      H   23    0.09907      0.00000     0.39927    0.00166     0.40093
      H   24    0.10082      0.00000     0.39798    0.00120     0.39918
      H   25    0.09374      0.00000     0.40532    0.00094     0.40626
      H   26    0.09544      0.00000     0.40349    0.00107     0.40456
      H   27    0.09868      0.00000     0.39999    0.00133     0.40132
      H   28    0.09565      0.00000     0.40253    0.00182     0.40435
      H   29    0.09384      0.00000     0.40499    0.00118     0.40616
      H   30    0.10002      0.00000     0.39897    0.00101     0.39998
      H   31    0.10113      0.00000     0.39793    0.00094     0.39887
      H   32    0.09216      0.00000     0.40594    0.00189     0.40784
      H   33    0.09841      0.00000     0.39898    0.00262     0.40159
      H   34    0.22512      0.00000     0.27145    0.00343     0.27488
 =======================================================================
   * Total *   -0.00000     18.99383    41.81093    0.19523    61.00000

 Normal termination of Gaussian 16 at Thu Dec 10 16:27:39 2020.
