 Gaussian 16, Revision A.03,

 -----------------------------------------------------------
 # opt freq B3LYP/6-31G(d) empiricaldispersion=gd3bj scf=xqc
 -----------------------------------------------------------

 -------------------------------
 CID_135183486_JID_1763_neutraal
 -------------------------------
 Symbolic Z-matrix:
 Charge =  0 Multiplicity = 1

 SCF Done:  E(RB3LYP) =  -839.581619763     A.U. after   15 cycles
 SCF Done:  E(RB3LYP) =  -839.593999985     A.U. after   12 cycles
 SCF Done:  E(RB3LYP) =  -839.594326512     A.U. after   13 cycles
 SCF Done:  E(RB3LYP) =  -839.594959980     A.U. after   13 cycles
 SCF Done:  E(RB3LYP) =  -839.595228907     A.U. after   12 cycles
 SCF Done:  E(RB3LYP) =  -839.595173534     A.U. after   11 cycles
 SCF Done:  E(RB3LYP) =  -839.595268429     A.U. after   11 cycles
 SCF Done:  E(RB3LYP) =  -839.595289582     A.U. after   11 cycles
 SCF Done:  E(RB3LYP) =  -839.595354008     A.U. after   13 cycles
 SCF Done:  E(RB3LYP) =  -839.595361270     A.U. after   12 cycles
 SCF Done:  E(RB3LYP) =  -839.596253523     A.U. after   10 cycles
 SCF Done:  E(RB3LYP) =  -839.596253666     A.U. after   10 cycles
 SCF Done:  E(RB3LYP) =  -839.596253737     A.U. after    9 cycles
 SCF Done:  E(RB3LYP) =  -839.596253757     A.U. after    8 cycles
 Optimization completed.
    -- Stationary point found.
 Normal termination of Gaussian 16 at Tue Dec  8 21:08:07 2020.

 --------------------------------------------------------------------
 #N Geom=AllCheck Guess=TCheck SCRF=Check GenChk RB3LYP/6-31G(d) Freq
 --------------------------------------------------------------------

 Structure from the checkpoint file:  "JID_1763.chk"
 -------------------------------
 CID_135183486_JID_1763_neutraal
 -------------------------------
 Charge =  0 Multiplicity = 1

 SCF Done:  E(RB3LYP) =  -839.596253757     A.U. after    1 cycles

  Exact polarizability: 161.804  -8.633  99.128   0.001  -0.000  70.981
 Approx polarizability: 194.659 -18.139 168.333   0.002  -0.000 100.901

                      1                      2                      3
                      A                      A                      A
 Frequencies --     11.3259                26.3048                42.1018
 Red. masses --      1.0184                 6.2133                 5.3195
 Frc consts  --      0.0001                 0.0025                 0.0056
 IR Inten    --      0.0000                 5.1433                 0.7853

                      4                      5                      6
                      A                      A                      A
 Frequencies --     48.5620                91.4755               160.1731
 Red. masses --      3.0323                 4.4099                 4.4600
 Frc consts  --      0.0042                 0.0217                 0.0674
 IR Inten    --      0.4043                 4.9300                 0.1191

                      7                      8                      9
                      A                      A                      A
 Frequencies --    200.7497               219.2475               259.9444
 Red. masses --      7.0091                 1.1899                 3.1093
 Frc consts  --      0.1664                 0.0337                 0.1238
 IR Inten    --      7.0483                 9.3660                 6.9918

                     10                     11                     12
                      A                      A                      A
 Frequencies --    273.0779               354.9692               355.6306
 Red. masses --      4.2717                 3.9133                 4.0156
 Frc consts  --      0.1877                 0.2905                 0.2992
 IR Inten    --      1.2890                11.2714                 7.1189

                     13                     14                     15
                      A                      A                      A
 Frequencies --    380.6794               421.8291               450.3440
 Red. masses --      3.2141                 3.6361                 3.1714
 Frc consts  --      0.2744                 0.3812                 0.3790
 IR Inten    --      1.5207                 0.4348                 0.4630

                     16                     17                     18
                      A                      A                      A
 Frequencies --    478.0143               532.4980               582.2096
 Red. masses --      1.1932                 2.9800                 7.3840
 Frc consts  --      0.1606                 0.4979                 1.4747
 IR Inten    --     89.8061                 4.1239                 9.4256

                     19                     20                     21
                      A                      A                      A
 Frequencies --    739.0579               748.4593               818.7526
 Red. masses --      8.4697                 3.2228                 1.2163
 Frc consts  --      2.7257                 1.0637                 0.4804
 IR Inten    --      6.3971                 9.1525                 2.8569

                     22                     23                     24
                      A                      A                      A
 Frequencies --    845.2690               887.8392               926.8219
 Red. masses --      3.1791                 1.8266                 2.2060
 Frc consts  --      1.3383                 0.8483                 1.1165
 IR Inten    --     21.4124                 6.3960                 0.3737

                     25                     26                     27
                      A                      A                      A
 Frequencies --    927.1281               998.2434              1035.2460
 Red. masses --      1.6755                 2.8074                 1.3986
 Frc consts  --      0.8485                 1.6483                 0.8832
 IR Inten    --     22.2655                 6.5484                 0.2302

                     28                     29                     30
                      A                      A                      A
 Frequencies --   1061.6049              1066.8472              1068.3906
 Red. masses --      4.0390                 1.4312                 1.3992
 Frc consts  --      2.6820                 0.9597                 0.9410
 IR Inten    --      3.4150                 4.0095                 3.0882

                     31                     32                     33
                      A                      A                      A
 Frequencies --   1081.0442              1145.8648              1172.6777
 Red. masses --      4.8261                 2.6065                 2.1528
 Frc consts  --      3.3231                 2.0164                 1.7442
 IR Inten    --      7.9483                 3.6954                 5.3301

                     34                     35                     36
                      A                      A                      A
 Frequencies --   1226.0447              1232.3508              1261.3405
 Red. masses --      1.7593                 1.3562                 1.1259
 Frc consts  --      1.5581                 1.2135                 1.0554
 IR Inten    --      1.1890                 0.5793                 0.0834

                     37                     38                     39
                      A                      A                      A
 Frequencies --   1272.6863              1279.1263              1306.2684
 Red. masses --      1.7317                 1.7226                 1.3237
 Frc consts  --      1.6526                 1.6606                 1.3308
 IR Inten    --     92.6122               183.3002                 0.0498

                     40                     41                     42
                      A                      A                      A
 Frequencies --   1341.8512              1394.9574              1440.8494
 Red. masses --      1.2700                 1.4762                 1.2396
 Frc consts  --      1.3473                 1.6925                 1.5162
 IR Inten    --     28.6164                65.1460                 6.7475

                     43                     44                     45
                      A                      A                      A
 Frequencies --   1502.0409              1502.1049              1504.8305
 Red. masses --      1.0926                 1.0395                 1.0401
 Frc consts  --      1.4523                 1.3819                 1.3877
 IR Inten    --      1.7513                 6.5340                 7.5491

                     46                     47                     48
                      A                      A                      A
 Frequencies --   1527.2000              1554.0678              1759.9972
 Red. masses --      1.1270                 1.9466                10.1817
 Frc consts  --      1.5487                 2.7699                18.5821
 IR Inten    --     11.6650               405.6996               294.4510

                     49                     50                     51
                      A                      A                      A
 Frequencies --   2357.6180              2665.3983              3045.0085
 Red. masses --     11.9070                 1.0384                 1.0345
 Frc consts  --     38.9941                 4.3466                 5.6514
 IR Inten    --    100.9463                23.5024                20.7489

                     52                     53                     54
                      A                      A                      A
 Frequencies --   3063.3493              3068.2009              3100.7200
 Red. masses --      1.0625                 1.0658                 1.0850
 Frc consts  --      5.8747                 5.9116                 6.1462
 IR Inten    --     24.0814                 9.5925                 4.2998

                     55                     56                     57
                      A                      A                      A
 Frequencies --   3107.4263              3112.2847              3133.6661
 Red. masses --      1.1013                 1.1019                 1.0988
 Frc consts  --      6.2654                 6.2887                 6.3574
 IR Inten    --      7.9353                 7.1633                15.7409

                     58                     59                     60
                      A                      A                      A
 Frequencies --   3135.2888              3154.0404              3613.6597
 Red. masses --      1.1039                 1.0903                 1.0775
 Frc consts  --      6.3936                 6.3906                 8.2903
 IR Inten    --     25.7879                16.5641                16.6483

 - Thermochemistry -
 -------------------
 Temperature   298.150 Kelvin.  Pressure   1.00000 Atm.
 Atom     1 has atomic number  6 and mass  12.00000

 Molecular mass:   169.05614 amu.
 Principal axes and moments of inertia in atomic units:
                           1         2         3
     Eigenvalues --   696.021885852.830346250.94431
           X            0.99985  -0.01742   0.00000
           Y            0.01742   0.99985  -0.00000
           Z           -0.00000   0.00000   1.00000
 This molecule is an asymmetric top.
 Rotational symmetry number  1.
 Warning -- assumption of classical behavior for rotation
           may cause significant error
 Rotational temperatures (Kelvin)      0.12444     0.01480     0.01386
 Rotational constants (GHZ):           2.59294     0.30835     0.28871
 Zero-point vibrational energy     461009.4 (Joules/Mol)
                                  110.18390 (Kcal/Mol)
 Warning -- explicit consideration of  18 degrees of freedom as
           vibrations may cause significant error
 Vibrational temperatures:     16.30    37.85    60.58    69.87   131.61
          (Kelvin)            230.45   288.83   315.45   374.00   392.90
                              510.72   511.67   547.71   606.92   647.94
                              687.76   766.15   837.67  1063.34  1076.87
                             1178.00  1216.15  1277.40  1333.49  1333.93
                             1436.25  1489.49  1527.41  1534.96  1537.18
                             1555.38  1648.64  1687.22  1764.00  1773.08
                             1814.79  1831.11  1840.38  1879.43  1930.62
                             2007.03  2073.06  2161.10  2161.19  2165.12
                             2197.30  2235.96  2532.24  3392.09  3834.91
                             4381.09  4407.48  4414.46  4461.24  4470.89
                             4477.88  4508.65  4510.98  4537.96  5199.25

 Zero-point correction=                           0.175589 (Hartree/Particle)
 Thermal correction to Energy=                    0.188348
 Thermal correction to Enthalpy=                  0.189292
 Thermal correction to Gibbs Free Energy=         0.132652
 Sum of electronic and zero-point Energies=           -839.420665
 Sum of electronic and thermal Energies=              -839.407906
 Sum of electronic and thermal Enthalpies=            -839.406961
 Sum of electronic and thermal Free Energies=         -839.463602

                     E (Thermal)             CV                S
                      KCal/Mol        Cal/Mol-Kelvin    Cal/Mol-Kelvin
 Total                  118.190             44.104            119.210
 Electronic               0.000              0.000              0.000
 Translational            0.889              2.981             41.283
 Rotational               0.889              2.981             31.610
 Vibrational            116.413             38.142             46.317
 Vibration     1          0.593              1.987              7.764
 Vibration     2          0.593              1.985              6.090
 Vibration     3          0.595              1.980              5.158
 Vibration     4          0.595              1.978              4.875
 Vibration     5          0.602              1.955              3.628
 Vibration     6          0.622              1.891              2.548
 Vibration     7          0.638              1.839              2.126
 Vibration     8          0.647              1.812              1.965
 Vibration     9          0.668              1.746              1.662
 Vibration    10          0.676              1.723              1.577
 Vibration    11          0.731              1.565              1.144
 Vibration    12          0.731              1.564              1.141
 Vibration    13          0.750              1.511              1.036
 Vibration    14          0.784              1.423              0.886
 Vibration    15          0.809              1.360              0.795
 Vibration    16          0.835              1.299              0.715
 Vibration    17          0.887              1.178              0.582
 Vibration    18          0.939              1.070              0.481

                           ! Non-Optimized Parameters !
 Normal termination of Gaussian 16 at Tue Dec  8 21:11:46 2020.

 ----------------------------------------------------------------------
 # B3LYP/6-311++G(d,p) empiricaldispersion=gd3bj scf=xqc pop=npa geom=c
 heck
 ----------------------------------------------------------------------

 ---------------------------------------
 CID_135183486_JID_1763_Energie_neutraal
 ---------------------------------------
 Structure from the checkpoint file:  "JID_1763.chk"
 Charge =  0 Multiplicity = 1

 SCF Done:  E(RB3LYP) =  -839.756025505     A.U. after   15 cycles
 Normal termination of Gaussian 16 at Tue Dec  8 21:13:36 2020.

 ----------------------------------------------------------------------
 # B3LYP/6-311++G(d,p) empiricaldispersion=gd3bj scf=xqc pop=npa geom=c
 heck
 ----------------------------------------------------------------------

 -------------------------------------
 CID_135183486_JID_1763_Energie_kation
 -------------------------------------
 Structure from the checkpoint file:  "JID_1763.chk"
 Charge =  1 Multiplicity = 2

 SCF Done:  E(UB3LYP) =  -839.442596864     A.U. after   33 cycles
 SCF Done:  E(UB3LYP) =  -839.442603593     a.u. after    4 cycles
 Normal termination of Gaussian 16 at Tue Dec  8 21:27:51 2020.
 Gaussian 16:  ES64L-G16RevA.03 25-Dec-2016

 ----------------------------------------------------------------------
 # B3LYP/6-311++G(d,p) empiricaldispersion=gd3bj scf=xqc pop=npa geom=c
 heck
 ----------------------------------------------------------------------

 ------------------------------------
 CID_135183486_JID_1763_Energie_anion
 ------------------------------------
 Structure from the checkpoint file:  "JID_1763.chk"
 Charge = -1 Multiplicity = 2

                         Standard orientation:
 ---------------------------------------------------------------------
 Center     Atomic      Atomic             Coordinates (Angstroms)
 Number     Number       Type             X           Y           Z
 ---------------------------------------------------------------------
      1          6           0        5.294882   -1.371691    0.000056
      2          6           0        4.044951   -0.622049    0.000035
      3          6           0        3.012511    0.009818   -0.000021
      4          6           0        1.801318    0.817174   -0.000005
      5          8           0        1.818065    2.042358    0.000072
      6          7           0        0.649988    0.071017   -0.000113
      7          6           0       -0.663689    0.658721   -0.000111
      8          6           0       -1.680869    0.216012   -1.086460
      9          6           0       -2.780719    0.308379   -0.000041
     10          6           0       -1.680842    0.216235    1.086374
     11         16           0       -4.188431   -0.852552    0.000087
     12          1           0        6.158279   -0.696686    0.001172
     13          1           0        5.367730   -2.014903    0.884994
     14          1           0        5.368719   -2.013229   -0.886016
     15          1           0        0.738789   -0.936090   -0.000084
     16          1           0       -0.517689    1.739284   -0.000205
     17          1           0       -1.785635    0.831498   -1.983631
     18          1           0       -1.508531   -0.824401   -1.386162
     19          1           0       -3.245169    1.298696   -0.000133
     20          1           0       -1.508474   -0.824102    1.386312
     21          1           0       -1.785593    0.831939    1.983397
     22          1           0       -3.447230   -1.982765    0.000217
 ---------------------------------------------------------------------

 SCF Done:  E(UB3LYP) =  -839.748622686     A.U. after   33 cycles
 SCF Done:  E(UB3LYP) =  -839.748622686     a.u. after    1 cycles

 The electronic state is 2-A.
 Alpha  occ. eigenvalues --  -88.74838 -18.99788 -14.24586 -10.19658 -10.12364
 Alpha  occ. eigenvalues --  -10.12187 -10.09610 -10.09175 -10.08569 -10.08568
 Alpha  occ. eigenvalues --  -10.07298  -7.83544  -5.79918  -5.79561  -5.78946
 Alpha  occ. eigenvalues --   -0.94883  -0.83988  -0.76590  -0.69547  -0.65868
 Alpha  occ. eigenvalues --   -0.62778  -0.58301  -0.57041  -0.50741  -0.49330
 Alpha  occ. eigenvalues --   -0.45420  -0.40751  -0.39789  -0.37324  -0.34560
 Alpha  occ. eigenvalues --   -0.34000  -0.33600  -0.33542  -0.30898  -0.30752
 Alpha  occ. eigenvalues --   -0.29708  -0.29273  -0.25703  -0.25069  -0.21852
 Alpha  occ. eigenvalues --   -0.19224  -0.18194  -0.16662  -0.16625  -0.14453
 Alpha  occ. eigenvalues --    0.04036
 Alpha virt. eigenvalues --    0.05897   0.06604   0.07171   0.08797   0.08802
 Alpha virt. eigenvalues --    0.09703   0.09729   0.09871   0.10917   0.11556
 Alpha virt. eigenvalues --    0.11655   0.13134   0.13581   0.14097   0.14291

  Beta  occ. eigenvalues --  -88.74816 -18.99787 -14.24556 -10.19658 -10.12365
  Beta  occ. eigenvalues --  -10.12181 -10.09537 -10.09172 -10.08545 -10.08544
  Beta  occ. eigenvalues --  -10.07291  -7.83521  -5.79863  -5.79545  -5.78930
  Beta  occ. eigenvalues --   -0.94873  -0.83950  -0.76561  -0.69496  -0.65794
  Beta  occ. eigenvalues --   -0.62707  -0.58243  -0.56986  -0.50678  -0.49256
  Beta  occ. eigenvalues --   -0.45367  -0.40693  -0.39746  -0.37246  -0.34533
  Beta  occ. eigenvalues --   -0.33946  -0.33563  -0.33486  -0.30844  -0.30647
  Beta  occ. eigenvalues --   -0.29651  -0.29261  -0.25622  -0.25039  -0.21798
  Beta  occ. eigenvalues --   -0.19204  -0.18178  -0.16648  -0.16596  -0.14408
  Beta virt. eigenvalues --    0.06498   0.06636   0.06864   0.08033   0.09035
  Beta virt. eigenvalues --    0.09183   0.09753   0.10292   0.10701   0.11133
  Beta virt. eigenvalues --    0.11960   0.12109   0.13514   0.13676   0.14071

 Mulliken charges and spin densities:
               1          2
     1  C    1.912648  -2.326804
     2  C   -0.621985   0.787649
     3  C    0.598076  -0.274684
     4  C   -1.035818   0.661556
     5  O   -0.364003  -0.008363
     6  N    0.161413  -0.087325
     7  C   -2.315816   2.033790
     8  C    1.592796  -2.338938
     9  C   -1.039190   1.772997
    10  C    1.592657  -2.338867
    11  S    0.604206  -0.893983
    12  H   -0.249560   0.410613
    13  H   -0.499845   0.671008
    14  H   -0.499725   0.670869
    15  H    0.043576   0.245334
    16  H    0.122672   0.097491
    17  H    0.130513  -0.013213
    18  H   -0.403365   0.590597
    19  H   -0.017951   0.275739
    20  H   -0.403371   0.590624
    21  H    0.130483  -0.013180
    22  H   -0.438411   0.487090
 Sum of Mulliken charges =  -1.00000   1.00000

 Dipole moment (field-independent basis, Debye):
    X=             -5.9871    Y=              4.7747    Z=             -0.0005  Tot=              7.6578
 Quadrupole moment (field-independent basis, Debye-Ang):
   XX=           -171.2201   YY=           -116.3707   ZZ=            -97.5327
   XY=              3.6771   XZ=              0.0044   YZ=              0.0007

 Summary of Natural Population Analysis:

                                       Natural Population
                Natural  -----------------------------------------------
    Atom  No    Charge         Core      Valence    Rydberg      Total
 -----------------------------------------------------------------------
      C    1   -0.32541      0.99961     2.31957    0.00623     3.32541
      C    2    0.04265      0.99928     1.95141    0.00667     2.95735
      C    3   -0.06914      0.99918     2.06126    0.00870     3.06914
      C    4    0.30870      0.99960     1.67038    0.02132     2.69130
      O    5   -0.31278      0.99988     3.30789    0.00500     4.31278
      N    6   -0.30647      0.99966     2.79583    0.01098     3.80647
      C    7   -0.01734      0.99957     2.00367    0.01410     3.01734
      C    8   -0.18826      0.99959     2.17910    0.00956     3.18826
      C    9   -0.17070      0.99954     2.15892    0.01225     3.17070
      C   10   -0.18826      0.99959     2.17910    0.00956     3.18826
      S   11   -0.01793      4.99962     3.00270    0.01561     8.01793
      H   12    0.11383      0.00000     0.38475    0.00142     0.38617
      H   13    0.11887      0.00000     0.37861    0.00252     0.38113
      H   14    0.11887      0.00000     0.37861    0.00252     0.38113
      H   15    0.20244      0.00000     0.29194    0.00562     0.29756
      H   16    0.11312      0.00000     0.38548    0.00140     0.38688
      H   17    0.10056      0.00000     0.39852    0.00092     0.39944
      H   18    0.10421      0.00000     0.39351    0.00228     0.39579
      H   19    0.10264      0.00000     0.39636    0.00100     0.39736
      H   20    0.10421      0.00000     0.39351    0.00228     0.39579
      H   21    0.10056      0.00000     0.39852    0.00092     0.39944
      H   22    0.06563      0.00000     0.43005    0.00432     0.43437
 =======================================================================
   * Total *   -0.00000     14.99512    29.85971    0.14518    45.00000

 Normal termination of Gaussian 16 at Tue Dec  8 21:34:48 2020.
