 Gaussian 16, Revision A.03,

 -----------------------------------------------------------
 # opt freq B3LYP/6-31G(d) empiricaldispersion=gd3bj scf=xqc
 -----------------------------------------------------------

 -------------------------------
 CID_144949932_JID_1801_neutraal
 -------------------------------
 Symbolic Z-matrix:
 Charge =  0 Multiplicity = 1

 SCF Done:  E(RB3LYP) =  -806.140509931     A.U. after   14 cycles
 SCF Done:  E(RB3LYP) =  -806.146220957     A.U. after   14 cycles
 SCF Done:  E(RB3LYP) =  -806.146879829     A.U. after   12 cycles
 SCF Done:  E(RB3LYP) =  -806.147411557     A.U. after   13 cycles
 SCF Done:  E(RB3LYP) =  -806.147564654     A.U. after   11 cycles
 SCF Done:  E(RB3LYP) =  -806.147682091     A.U. after   12 cycles
 SCF Done:  E(RB3LYP) =  -806.147814329     A.U. after   12 cycles
 SCF Done:  E(RB3LYP) =  -806.147855152     A.U. after   12 cycles
 SCF Done:  E(RB3LYP) =  -806.147866996     A.U. after   12 cycles
 SCF Done:  E(RB3LYP) =  -806.147979835     A.U. after   12 cycles
 SCF Done:  E(RB3LYP) =  -806.148277593     A.U. after   11 cycles
 SCF Done:  E(RB3LYP) =  -806.148300049     A.U. after   10 cycles
 SCF Done:  E(RB3LYP) =  -806.148301286     A.U. after   10 cycles
 SCF Done:  E(RB3LYP) =  -806.148301609     A.U. after    8 cycles
 SCF Done:  E(RB3LYP) =  -806.148301632     A.U. after    8 cycles
 Optimization completed.
    -- Stationary point found.
 Normal termination of Gaussian 16 at Tue Dec  8 21:54:37 2020.

 --------------------------------------------------------------------
 #N Geom=AllCheck Guess=TCheck SCRF=Check GenChk RB3LYP/6-31G(d) Freq
 --------------------------------------------------------------------

 Structure from the checkpoint file:  "JID_1801.chk"
 -------------------------------
 CID_144949932_JID_1801_neutraal
 -------------------------------
 Charge =  0 Multiplicity = 1

 SCF Done:  E(RB3LYP) =  -806.148301632     A.U. after    1 cycles

  Exact polarizability: 148.219   0.069 121.841  -2.310   1.785  95.394
 Approx polarizability: 200.855   1.223 183.507  -4.258   5.122 144.700

                      1                      2                      3
                      A                      A                      A
 Frequencies --     34.2744                46.9104                55.9950
 Red. masses --      2.7562                 2.8807                 2.5535
 Frc consts  --      0.0019                 0.0037                 0.0047
 IR Inten    --      0.1244                 0.0281                 0.1232

                      4                      5                      6
                      A                      A                      A
 Frequencies --     96.4994               118.3492               122.2711
 Red. masses --      2.1758                 2.4259                 1.3812
 Frc consts  --      0.0119                 0.0200                 0.0122
 IR Inten    --      2.2403                 7.3326                 0.6118

                      7                      8                      9
                      A                      A                      A
 Frequencies --    178.0924               189.0763               206.1662
 Red. masses --      2.8288                 2.9897                 2.5161
 Frc consts  --      0.0529                 0.0630                 0.0630
 IR Inten    --      3.1967                 0.6435                 1.6837

                     10                     11                     12
                      A                      A                      A
 Frequencies --    234.1306               262.3411               268.6333
 Red. masses --      1.1174                 1.1911                 1.7658
 Frc consts  --      0.0361                 0.0483                 0.0751
 IR Inten    --      1.0057                 1.3226                 0.1898

                     13                     14                     15
                      A                      A                      A
 Frequencies --    288.2952               301.6407               325.4713
 Red. masses --      1.5126                 2.6610                 3.1640
 Frc consts  --      0.0741                 0.1426                 0.1975
 IR Inten    --      1.4285                 6.1134                 2.0837

                     16                     17                     18
                      A                      A                      A
 Frequencies --    342.9111               391.6065               439.3963
 Red. masses --      3.5130                 3.2888                 3.1150
 Frc consts  --      0.2434                 0.2972                 0.3543
 IR Inten    --      1.6825                 0.2358                 3.1926

                     19                     20                     21
                      A                      A                      A
 Frequencies --    452.0460               532.2478               626.0244
 Red. masses --      3.1746                 2.3320                 3.6629
 Frc consts  --      0.3822                 0.3892                 0.8458
 IR Inten    --      2.9466                 7.2138                 2.8372

                     22                     23                     24
                      A                      A                      A
 Frequencies --    651.9044               692.8099               767.5015
 Red. masses --      4.5005                 2.2776                 2.1003
 Frc consts  --      1.1269                 0.6441                 0.7289
 IR Inten    --      1.0679                 1.0006                14.1671

                     25                     26                     27
                      A                      A                      A
 Frequencies --    781.8937               814.6768               914.6221
 Red. masses --      1.4041                 2.7125                 2.2257
 Frc consts  --      0.5058                 1.0607                 1.0970
 IR Inten    --      3.9891                 2.4522                 6.7787

                     28                     29                     30
                      A                      A                      A
 Frequencies --    944.7400               978.2578               995.3631
 Red. masses --      1.1614                 1.5138                 1.8603
 Frc consts  --      0.6107                 0.8535                 1.0859
 IR Inten    --      1.1385                 0.3673                 6.4894

                     31                     32                     33
                      A                      A                      A
 Frequencies --   1045.1384              1053.9523              1060.9995
 Red. masses --      1.6584                 1.5676                 1.3732
 Frc consts  --      1.0673                 1.0260                 0.9108
 IR Inten    --      8.0834                 7.4106                21.5353

                     34                     35                     36
                      A                      A                      A
 Frequencies --   1067.6670              1079.6048              1087.2547
 Red. masses --      1.3924                 1.8364                 1.8083
 Frc consts  --      0.9352                 1.2611                 1.2595
 IR Inten    --      0.3418                16.1154                 3.5257

                     37                     38                     39
                      A                      A                      A
 Frequencies --   1124.9112              1137.6138              1209.0075
 Red. masses --      2.5986                 2.2945                 1.8568
 Frc consts  --      1.9374                 1.7496                 1.5991
 IR Inten    --      3.9455                 5.3423                 4.6543

                     40                     41                     42
                      A                      A                      A
 Frequencies --   1227.4082              1261.7508              1293.5728
 Red. masses --      1.5473                 3.7495                 1.2009
 Frc consts  --      1.3734                 3.5170                 1.1839
 IR Inten    --     14.3698                30.3027                 1.5821

                     43                     44                     45
                      A                      A                      A
 Frequencies --   1323.4204              1356.5037              1379.8092
 Red. masses --      1.3032                 1.3595                 1.3692
 Frc consts  --      1.3448                 1.4739                 1.5359
 IR Inten    --     27.4666                 3.4238                 3.2588

                     46                     47                     48
                      A                      A                      A
 Frequencies --   1420.6137              1433.5257              1439.1200
 Red. masses --      1.2287                 1.2251                 1.2100
 Frc consts  --      1.4610                 1.4833                 1.4765
 IR Inten    --      4.8796                 2.1295                 2.0567

                     49                     50                     51
                      A                      A                      A
 Frequencies --   1442.7299              1495.1399              1512.9633
 Red. masses --      1.2206                 1.0888                 1.0776
 Frc consts  --      1.4969                 1.4341                 1.4533
 IR Inten    --      1.0364                 1.0366                 1.5933

                     52                     53                     54
                      A                      A                      A
 Frequencies --   1515.8018              1519.9044              1524.3439
 Red. masses --      1.0441                 1.0450                 1.0512
 Frc consts  --      1.4134                 1.4223                 1.4392
 IR Inten    --      0.9037                 3.9245                 1.0192

                     55                     56                     57
                      A                      A                      A
 Frequencies --   1524.8828              1529.1782              1530.9846
 Red. masses --      1.1404                 1.0497                 1.0499
 Frc consts  --      1.5623                 1.4462                 1.4500
 IR Inten    --     11.8580                 9.1389                 9.5048

                     58                     59                     60
                      A                      A                      A
 Frequencies --   1538.3355              1543.6261              1640.7214
 Red. masses --      1.0464                 1.0564                 6.8305
 Frc consts  --      1.4590                 1.4831                10.8335
 IR Inten    --      0.5162                 5.0201                36.0847

                     61                     62                     63
                      A                      A                      A
 Frequencies --   1751.5937              3035.0588              3048.9178
 Red. masses --      6.7300                 1.0422                 1.0352
 Frc consts  --     12.1655                 5.6565                 5.6698
 IR Inten    --     32.3732                24.8079                29.0378

                     64                     65                     66
                      A                      A                      A
 Frequencies --   3050.1214              3052.2873              3055.4291
 Red. masses --      1.0413                 1.0362                 1.0558
 Frc consts  --      5.7077                 5.6879                 5.8074
 IR Inten    --     30.7572                29.5231                22.3723

                     67                     68                     69
                      A                      A                      A
 Frequencies --   3062.5964              3084.8607              3094.1870
 Red. masses --      1.0592                 1.0999                 1.0849
 Frc consts  --      5.8536                 6.1670                 6.1197
 IR Inten    --     40.2097                24.2788                 7.0101

                     70                     71                     72
                      A                      A                      A
 Frequencies --   3100.8649              3114.0257              3117.0806
 Red. masses --      1.1052                 1.1026                 1.0990
 Frc consts  --      6.2614                 6.2995                 6.2916
 IR Inten    --      8.4762                20.3256                51.1161

                     73                     74                     75
                      A                      A                      A
 Frequencies --   3117.2576              3131.4858              3139.4838
 Red. masses --      1.1009                 1.1021                 1.1007
 Frc consts  --      6.3031                 6.3674                 6.3918
 IR Inten    --     26.4514                 8.2412                40.9534

                     76                     77                     78
                      A                      A                      A
 Frequencies --   3141.7572              3154.9698              3170.4618
 Red. masses --      1.1037                 1.0960                 1.1114
 Frc consts  --      6.4188                 6.4274                 6.5823
 IR Inten    --     29.2943                11.6978                35.4684

 - Thermochemistry -
 -------------------
 Temperature   298.150 Kelvin.  Pressure   1.00000 Atm.
 Atom     1 has atomic number  6 and mass  12.00000

 Molecular mass:   171.10817 amu.
 Principal axes and moments of inertia in atomic units:
                           1         2         3
     Eigenvalues --  1244.289523036.047713403.63370
           X            0.99986  -0.00251  -0.01675
           Y            0.00297   0.99962   0.02746
           Z            0.01668  -0.02751   0.99948
 This molecule is an asymmetric top.
 Rotational symmetry number  1.
 Warning -- assumption of classical behavior for rotation
           may cause significant error
 Rotational temperatures (Kelvin)      0.06961     0.02853     0.02545
 Rotational constants (GHZ):           1.45042     0.59444     0.53024
 Zero-point vibrational energy     644769.7 (Joules/Mol)
                                  154.10365 (Kcal/Mol)
 Warning -- explicit consideration of  20 degrees of freedom as
           vibrations may cause significant error
 Vibrational temperatures:     49.31    67.49    80.56   138.84   170.28
          (Kelvin)            175.92   256.24   272.04   296.63   336.86
                              377.45   386.50   414.79   433.99   468.28
                              493.37   563.43   632.19   650.39   765.79
                              900.71   937.95   996.80  1104.26  1124.97
                             1172.14  1315.94  1359.27  1407.49  1432.11
                             1503.72  1516.40  1526.54  1536.13  1553.31
                             1564.32  1618.50  1636.77  1739.49  1765.97
                             1815.38  1861.16  1904.11  1951.71  1985.24
                             2043.95  2062.52  2070.57  2075.77  2151.17
                             2176.82  2180.90  2186.80  2193.19  2193.97
                             2200.15  2202.75  2213.32  2220.93  2360.63
                             2520.15  4366.77  4386.71  4388.44  4391.56
                             4396.08  4406.39  4438.43  4451.85  4461.45
                             4480.39  4484.78  4485.04  4505.51  4517.02
                             4520.29  4539.30  4561.59

 Zero-point correction=                           0.245580 (Hartree/Particle)
 Thermal correction to Energy=                    0.260098
 Thermal correction to Enthalpy=                  0.261042
 Thermal correction to Gibbs Free Energy=         0.203785
 Sum of electronic and zero-point Energies=           -805.902722
 Sum of electronic and thermal Energies=              -805.888204
 Sum of electronic and thermal Enthalpies=            -805.887260
 Sum of electronic and thermal Free Energies=         -805.944517

                     E (Thermal)             CV                S
                      KCal/Mol        Cal/Mol-Kelvin    Cal/Mol-Kelvin
 Total                  163.214             51.580            120.508
 Electronic               0.000              0.000              0.000
 Translational            0.889              2.981             41.319
 Rotational               0.889              2.981             30.931
 Vibrational            161.436             45.619             48.258
 Vibration     1          0.594              1.983              5.565
 Vibration     2          0.595              1.979              4.944
 Vibration     3          0.596              1.975              4.594
 Vibration     4          0.603              1.952              3.524
 Vibration     5          0.609              1.934              3.127
 Vibration     6          0.610              1.931              3.064
 Vibration     7          0.629              1.869              2.348
 Vibration     8          0.633              1.855              2.237
 Vibration     9          0.641              1.831              2.077
 Vibration    10          0.654              1.789              1.847
 Vibration    11          0.670              1.742              1.646
 Vibration    12          0.673              1.731              1.605
 Vibration    13          0.685              1.695              1.484
 Vibration    14          0.694              1.671              1.408
 Vibration    15          0.710              1.625              1.282
 Vibration    16          0.722              1.590              1.199
 Vibration    17          0.759              1.488              0.994
 Vibration    18          0.799              1.384              0.829
 Vibration    19          0.811              1.356              0.790
 Vibration    20          0.887              1.179              0.582

 Optimization completed.
    -- Stationary point found.
 Normal termination of Gaussian 16 at Tue Dec  8 22:01:03 2020.

 ----------------------------------------------------------------------
 # B3LYP/6-311++G(d,p) empiricaldispersion=gd3bj scf=xqc pop=npa geom=c
 heck
 ----------------------------------------------------------------------

 ---------------------------------------
 CID_144949932_JID_1801_Energie_neutraal
 ---------------------------------------
 Structure from the checkpoint file:  "JID_1801.chk"
 Charge =  0 Multiplicity = 1

 SCF Done:  E(RB3LYP) =  -806.288158157     A.U. after   15 cycles
 Normal termination of Gaussian 16 at Tue Dec  8 22:04:21 2020.

 ----------------------------------------------------------------------
 # B3LYP/6-311++G(d,p) empiricaldispersion=gd3bj scf=xqc pop=npa geom=c
 heck
 ----------------------------------------------------------------------

 -------------------------------------
 CID_144949932_JID_1801_Energie_kation
 -------------------------------------
 Structure from the checkpoint file:  "JID_1801.chk"
 Charge =  1 Multiplicity = 2

 SCF Done:  E(UB3LYP) =  -806.001577145     A.U. after   23 cycles
 Normal termination of Gaussian 16 at Tue Dec  8 22:11:33 2020.
 Gaussian 16:  ES64L-G16RevA.03 25-Dec-2016

 ----------------------------------------------------------------------
 # B3LYP/6-311++G(d,p) empiricaldispersion=gd3bj scf=xqc pop=npa geom=c
 heck
 ----------------------------------------------------------------------

 ------------------------------------
 CID_144949932_JID_1801_Energie_anion
 ------------------------------------
 Structure from the checkpoint file:  "JID_1801.chk"
 Charge = -1 Multiplicity = 2

                         Standard orientation:
 ---------------------------------------------------------------------
 Center     Atomic      Atomic             Coordinates (Angstroms)
 Number     Number       Type             X           Y           Z
 ---------------------------------------------------------------------
      1          6           0       -3.173801   -0.661761    1.223178
      2          6           0       -2.799732    0.561130    0.392412
      3         16           0       -1.729851    0.223808   -1.069737
      4          6           0       -0.291820   -0.572985   -0.344396
      5          6           0        0.861975    0.106477   -0.123812
      6          6           0        2.138883   -0.580251    0.343840
      7          6           0        3.092235   -0.787582   -0.846610
      8          6           0        2.819997    0.210368    1.471537
      9          7           0        1.075230    1.450194   -0.456033
     10          6           0        0.405674    2.385403    0.077326
     11          6           0       -0.372846   -2.080778   -0.164273
     12          1           0       -3.655003   -1.426284    0.605330
     13          1           0       -3.867165   -0.377343    2.024444
     14          1           0       -2.288812   -1.105871    1.688560
     15          1           0       -3.694117    1.020942   -0.043294
     16          1           0       -2.314692    1.317951    1.018823
     17          1           0        1.867840   -1.561291    0.742944
     18          1           0        3.350637    0.175518   -1.296956
     19          1           0        4.015624   -1.278887   -0.518602
     20          1           0        2.627758   -1.408894   -1.619937
     21          1           0        2.139390    0.362643    2.317315
     22          1           0        3.699079   -0.332240    1.836301
     23          1           0        3.147268    1.193378    1.119086
     24          1           0       -0.344689    2.225392    0.860564
     25          1           0        0.581697    3.413691   -0.242171
     26          1           0       -1.323155   -2.454325   -0.548151
     27          1           0        0.428822   -2.601269   -0.702373
     28          1           0       -0.302850   -2.375519    0.890920
 ---------------------------------------------------------------------

 SCF Done:  E(UB3LYP) =  -806.273488148     A.U. after   33 cycles
 SCF Done:  E(UB3LYP) =  -806.273488148     a.u. after    1 cycles

 The electronic state is 2-A.
 Alpha  occ. eigenvalues --  -88.71898 -14.18455 -10.08743 -10.08546 -10.07939
 Alpha  occ. eigenvalues --  -10.06940 -10.06563 -10.05677 -10.04988 -10.04874
 Alpha  occ. eigenvalues --  -10.04668  -7.80495  -5.76892  -5.76531  -5.75859
 Alpha  occ. eigenvalues --   -0.81190  -0.70485  -0.68692  -0.65008  -0.58245
 Alpha  occ. eigenvalues --   -0.57750  -0.57425  -0.50561  -0.49396  -0.46065
 Alpha  occ. eigenvalues --   -0.40097  -0.36367  -0.35640  -0.34136  -0.32997
 Alpha  occ. eigenvalues --   -0.32279  -0.31508  -0.30361  -0.28843  -0.28176
 Alpha  occ. eigenvalues --   -0.27773  -0.27592  -0.26226  -0.25170  -0.23848
 Alpha  occ. eigenvalues --   -0.22813  -0.22277  -0.21326  -0.18625  -0.16176
 Alpha  occ. eigenvalues --   -0.11321  -0.09947   0.05161
 Alpha virt. eigenvalues --    0.06960   0.07240   0.08475   0.08926   0.09316
 Alpha virt. eigenvalues --    0.09877   0.10199   0.11189   0.11830   0.11949
 Alpha virt. eigenvalues --    0.12383   0.12883   0.13313   0.13984   0.14160

  Beta  occ. eigenvalues --  -88.71896 -14.18302 -10.08715 -10.08541 -10.07699
  Beta  occ. eigenvalues --  -10.06843 -10.06544 -10.05654 -10.04976 -10.04853
  Beta  occ. eigenvalues --  -10.04642  -7.80492  -5.76894  -5.76530  -5.75857
  Beta  occ. eigenvalues --   -0.80851  -0.70358  -0.68636  -0.64911  -0.58202
  Beta  occ. eigenvalues --   -0.57557  -0.57377  -0.50429  -0.49053  -0.45984
  Beta  occ. eigenvalues --   -0.39858  -0.36278  -0.35549  -0.34064  -0.32861
  Beta  occ. eigenvalues --   -0.32189  -0.31422  -0.30271  -0.28767  -0.28071
  Beta  occ. eigenvalues --   -0.27717  -0.27558  -0.26163  -0.25101  -0.23783
  Beta  occ. eigenvalues --   -0.22713  -0.22160  -0.20899  -0.18125  -0.15901
  Beta  occ. eigenvalues --   -0.11197  -0.09663
  Beta virt. eigenvalues --    0.07382   0.07842   0.08625   0.09057   0.09260
  Beta virt. eigenvalues --    0.09663   0.10248   0.10366   0.11329   0.12222
  Beta virt. eigenvalues --    0.12338   0.12529   0.13165   0.13401   0.14145

 Mulliken charges and spin densities:
               1          2
     1  C    0.389517  -0.948747
     2  C   -0.670953   0.316148
     3  S    0.398266  -0.507147
     4  C    0.766106   0.670782
     5  C   -1.427061   0.004335
     6  C   -0.739403   1.158162
     7  C   -0.005797  -0.704761
     8  C    0.001482  -0.710358
     9  N    0.123946   0.074270
    10  C   -0.224496   0.219993
    11  C    1.450563  -2.047687
    12  H    0.034960   0.094005
    13  H   -0.490669   0.623834
    14  H   -0.081232   0.244142
    15  H    0.088847   0.072216
    16  H    0.042768   0.080279
    17  H   -0.375375   0.569161
    18  H    0.087752   0.085206
    19  H   -0.034257   0.171122
    20  H    0.059349   0.058625
    21  H    0.030456   0.104683
    22  H   -0.438060   0.592399
    23  H    0.130192   0.006058
    24  H    0.134226  -0.067488
    25  H    0.069643   0.057363
    26  H    0.046090   0.077227
    27  H    0.065898   0.074031
    28  H   -0.432758   0.632148
 Sum of Mulliken charges =  -1.00000   1.00000

 Dipole moment (field-independent basis, Debye):
    X=             -0.5532    Y=              3.2247    Z=             -2.9035  Tot=              4.3744
 Quadrupole moment (field-independent basis, Debye-Ang):
   XX=           -131.7880   YY=           -111.2744   ZZ=           -112.5554
   XY=              0.8814   XZ=              0.6977   YZ=             11.2625

 Summary of Natural Population Analysis:

                                       Natural Population
                Natural  -----------------------------------------------
    Atom  No    Charge         Core      Valence    Rydberg      Total
 -----------------------------------------------------------------------
      C    1   -0.29227      0.99965     2.28649    0.00612     3.29227
      C    2   -0.24636      0.99960     2.23492    0.01185     3.24636
      S    3    0.09480      4.99954     2.88702    0.01864     7.90520
      C    4   -0.10805      0.99935     2.09487    0.01383     3.10805
      C    5    0.08850      0.99933     1.89546    0.01670     2.91150
      C    6   -0.12679      0.99957     2.11578    0.01144     3.12679
      C    7   -0.28004      0.99964     2.27440    0.00600     3.28004
      C    8   -0.28248      0.99965     2.27622    0.00660     3.28248
      N    9   -0.21383      0.99964     2.70262    0.01157     3.71383
      C   10    0.03630      0.99963     1.95348    0.01059     2.96370
      C   11   -0.30402      0.99962     2.29692    0.00748     3.30402
      H   12    0.09780      0.00000     0.40103    0.00117     0.40220
      H   13    0.09818      0.00000     0.40017    0.00165     0.40182
      H   14    0.10345      0.00000     0.39480    0.00175     0.39655
      H   15    0.09619      0.00000     0.40251    0.00130     0.40381
      H   16    0.09400      0.00000     0.40383    0.00217     0.40600
      H   17    0.10428      0.00000     0.39273    0.00299     0.39572
      H   18    0.10278      0.00000     0.39617    0.00105     0.39722
      H   19    0.09508      0.00000     0.40416    0.00076     0.40492
      H   20    0.09806      0.00000     0.40119    0.00075     0.40194
      H   21    0.09972      0.00000     0.39935    0.00093     0.40028
      H   22    0.09802      0.00000     0.40092    0.00107     0.40198
      H   23    0.10049      0.00000     0.39858    0.00093     0.39951
      H   24    0.06229      0.00000     0.43556    0.00215     0.43771
      H   25    0.07160      0.00000     0.42705    0.00135     0.42840
      H   26    0.10533      0.00000     0.39316    0.00151     0.39467
      H   27    0.09991      0.00000     0.39907    0.00102     0.40009
      H   28    0.10705      0.00000     0.39030    0.00265     0.39295
 =======================================================================
   * Total *    0.00000     14.99524    31.85877    0.14600    47.00000

 Normal termination of Gaussian 16 at Tue Dec  8 22:21:55 2020.
