 Gaussian 16, Revision A.03,

 -----------------------------------------------------------
 # opt freq B3LYP/6-31G(d) empiricaldispersion=gd3bj scf=xqc
 -----------------------------------------------------------

 ------------------------------
 CID_84406263_JID_1272_neutraal
 ------------------------------
 Symbolic Z-matrix:
 Charge =  0 Multiplicity = 1

 SCF Done:  E(RB3LYP) =  -839.646304584     A.U. after   15 cycles
 SCF Done:  E(RB3LYP) =  -839.649804893     A.U. after   12 cycles
 SCF Done:  E(RB3LYP) =  -839.650406766     A.U. after   12 cycles
 SCF Done:  E(RB3LYP) =  -839.650600184     A.U. after   12 cycles
 SCF Done:  E(RB3LYP) =  -839.650840585     A.U. after   11 cycles
 SCF Done:  E(RB3LYP) =  -839.650885762     A.U. after   11 cycles
 SCF Done:  E(RB3LYP) =  -839.650890360     A.U. after   10 cycles
 SCF Done:  E(RB3LYP) =  -839.650891118     A.U. after    8 cycles
 SCF Done:  E(RB3LYP) =  -839.650891348     A.U. after    8 cycles
 Optimization completed.
    -- Stationary point found.
 Normal termination of Gaussian 16 at Tue Dec  8 19:34:44 2020.

 --------------------------------------------------------------------
 #N Geom=AllCheck Guess=TCheck SCRF=Check GenChk RB3LYP/6-31G(d) Freq
 --------------------------------------------------------------------

 Structure from the checkpoint file:  "JID_1272.chk"
 ------------------------------
 CID_84406263_JID_1272_neutraal
 ------------------------------
 Charge =  0 Multiplicity = 1

 SCF Done:  E(RB3LYP) =  -839.650891348     A.U. after    1 cycles

  Exact polarizability: 126.563  -6.875 104.008  12.628   6.289  84.753
 Approx polarizability: 177.302 -19.428 174.202  29.644   5.237 134.090

                      1                      2                      3
                      A                      A                      A
 Frequencies --     32.2527                56.0095                83.3937
 Red. masses --      5.1138                 4.5146                 2.6718
 Frc consts  --      0.0031                 0.0083                 0.0109
 IR Inten    --      0.4129                 0.9523                 1.1552

                      4                      5                      6
                      A                      A                      A
 Frequencies --    116.8253               132.9430               187.8416
 Red. masses --      3.7566                 3.6960                 3.1562
 Frc consts  --      0.0302                 0.0385                 0.0656
 IR Inten    --      1.9454                 1.6167                 2.7726

                      7                      8                      9
                      A                      A                      A
 Frequencies --    261.7834               331.3985               372.6406
 Red. masses --      2.8907                 5.3159                 2.2203
 Frc consts  --      0.1167                 0.3440                 0.1817
 IR Inten    --      3.2474                 3.4679                 2.9267

                     10                     11                     12
                      A                      A                      A
 Frequencies --    379.2633               421.6261               470.4960
 Red. masses --      3.1880                 3.1577                 2.1013
 Frc consts  --      0.2702                 0.3307                 0.2741
 IR Inten    --      0.0978                13.8338                 1.9786

                     13                     14                     15
                      A                      A                      A
 Frequencies --    514.2364               545.8417               623.8722
 Red. masses --      3.9715                 3.8004                 3.2791
 Frc consts  --      0.6188                 0.6671                 0.7520
 IR Inten    --      3.8725                13.5113                 4.6525

                     16                     17                     18
                      A                      A                      A
 Frequencies --    673.5542               702.0864               710.5238
 Red. masses --      1.7031                 2.9463                 3.1090
 Frc consts  --      0.4552                 0.8557                 0.9248
 IR Inten    --     21.7279                16.6149                 5.9852

                     19                     20                     21
                      A                      A                      A
 Frequencies --    721.6687               781.8111               824.1399
 Red. masses --      2.1369                 5.3414                 3.1502
 Frc consts  --      0.6557                 1.9236                 1.2606
 IR Inten    --      8.1650                 2.3865                16.1008

                     22                     23                     24
                      A                      A                      A
 Frequencies --    840.5341               899.9850               907.8720
 Red. masses --      2.2441                 1.5748                 1.4901
 Frc consts  --      0.9341                 0.7515                 0.7237
 IR Inten    --     20.7568                 2.8811                11.8033

                     25                     26                     27
                      A                      A                      A
 Frequencies --    936.1163               941.0734              1004.6212
 Red. masses --      1.9161                 1.3565                 1.8275
 Frc consts  --      0.9893                 0.7078                 1.0867
 IR Inten    --      7.0536                38.1710                 1.4793

                     28                     29                     30
                      A                      A                      A
 Frequencies --   1024.3440              1042.3635              1116.0504
 Red. masses --      1.5127                 1.3717                 2.6338
 Frc consts  --      0.9352                 0.8781                 1.9329
 IR Inten    --      3.3437                18.7057                 3.6967

                     31                     32                     33
                      A                      A                      A
 Frequencies --   1147.5595              1167.2784              1208.7417
 Red. masses --      1.6256                 1.5178                 1.6398
 Frc consts  --      1.2613                 1.2185                 1.4116
 IR Inten    --     13.8856                 8.0045                19.7368

                     34                     35                     36
                      A                      A                      A
 Frequencies --   1236.4091              1268.9334              1288.9444
 Red. masses --      1.1442                 1.4882                 1.3678
 Frc consts  --      1.0306                 1.4119                 1.3389
 IR Inten    --      5.7687                22.4643                21.2429

                     37                     38                     39
                      A                      A                      A
 Frequencies --   1298.1238              1338.1860              1375.7246
 Red. masses --      1.7868                 1.2247                 1.6002
 Frc consts  --      1.7740                 1.2922                 1.7843
 IR Inten    --     70.1279                 0.5849                 5.2897

                     40                     41                     42
                      A                      A                      A
 Frequencies --   1387.8732              1420.5296              1438.1333
 Red. masses --      1.4514                 1.4131                 2.1056
 Frc consts  --      1.6471                 1.6800                 2.5658
 IR Inten    --     45.8593                 7.2397               108.9750

                     43                     44                     45
                      A                      A                      A
 Frequencies --   1475.8023              1477.5976              1506.4460
 Red. masses --      1.0913                 1.1777                 1.1301
 Frc consts  --      1.4004                 1.5149                 1.5110
 IR Inten    --      8.9802                 1.8692                 5.9798

                     46                     47                     48
                      A                      A                      A
 Frequencies --   1510.0423              1691.5033              1737.9948
 Red. masses --      1.0945                 6.4385                 4.5243
 Frc consts  --      1.4705                10.8538                 8.0519
 IR Inten    --     14.6019                29.5297                 4.6441

                     49                     50                     51
                      A                      A                      A
 Frequencies --   1779.4999              3021.6740              3058.2718
 Red. masses --     11.0376                 1.0654                 1.0715
 Frc consts  --     20.5930                 5.7316                 5.9048
 IR Inten    --    302.8165                21.4843                41.6952

                     52                     53                     54
                      A                      A                      A
 Frequencies --   3068.5975              3080.1170              3154.8633
 Red. masses --      1.0672                 1.0955                 1.0592
 Frc consts  --      5.9209                 6.1235                 6.2114
 IR Inten    --     12.5041                32.9724                16.5151

                     55                     56                     57
                      A                      A                      A
 Frequencies --   3168.7672              3169.3426              3176.6033
 Red. masses --      1.0923                 1.0941                 1.0982
 Frc consts  --      6.4620                 6.4753                 6.5291
 IR Inten    --      2.9493                 7.3072                 0.4612

                     58                     59                     60
                      A                      A                      A
 Frequencies --   3196.9405              3237.8753              3238.4711
 Red. masses --      1.0883                 1.1150                 1.0949
 Frc consts  --      6.5533                 6.8871                 6.7658
 IR Inten    --      5.6724                17.2412                 7.7950

 - Thermochemistry -
 -------------------
 Temperature   298.150 Kelvin.  Pressure   1.00000 Atm.
 Atom     1 has atomic number  6 and mass  12.00000

 Molecular mass:   169.05614 amu.
 Principal axes and moments of inertia in atomic units:
                           1         2         3
     Eigenvalues --  1160.583032859.790603023.19672
           X            0.99984   0.00765  -0.01604
           Y           -0.00564   0.99256   0.12159
           Z            0.01685  -0.12148   0.99245
 This molecule is an asymmetric top.
 Rotational symmetry number  1.
 Warning -- assumption of classical behavior for rotation
           may cause significant error
 Rotational temperatures (Kelvin)      0.07463     0.03029     0.02865
 Rotational constants (GHZ):           1.55503     0.63107     0.59696
 Zero-point vibrational energy     472429.3 (Joules/Mol)
                                  112.91332 (Kcal/Mol)
 Warning -- explicit consideration of  14 degrees of freedom as
           vibrations may cause significant error
 Vibrational temperatures:     46.40    80.59   119.98   168.09   191.28
          (Kelvin)            270.26   376.65   476.81   536.15   545.68
                              606.63   676.94   739.87   785.34   897.61
                              969.09  1010.15  1022.29  1038.32  1124.85
                             1185.75  1209.34  1294.88  1306.23  1346.86
                             1353.99  1445.43  1473.80  1499.73  1605.75
                             1651.08  1679.45  1739.11  1778.92  1825.71
                             1854.50  1867.71  1925.35  1979.36  1996.84
                             2043.83  2069.15  2123.35  2125.93  2167.44
                             2172.61  2433.70  2500.59  2560.30  4347.51
                             4400.17  4415.03  4431.60  4539.14  4559.15
                             4559.98  4570.42  4599.68  4658.58  4659.44

 Zero-point correction=                           0.179939 (Hartree/Particle)
 Thermal correction to Energy=                    0.190965
 Thermal correction to Enthalpy=                  0.191909
 Thermal correction to Gibbs Free Energy=         0.141718
 Sum of electronic and zero-point Energies=           -839.470953
 Sum of electronic and thermal Energies=              -839.459927
 Sum of electronic and thermal Enthalpies=            -839.458983
 Sum of electronic and thermal Free Energies=         -839.509173

                     E (Thermal)             CV                S
                      KCal/Mol        Cal/Mol-Kelvin    Cal/Mol-Kelvin
 Total                  119.832             40.743            105.635
 Electronic               0.000              0.000              0.000
 Translational            0.889              2.981             41.283
 Rotational               0.889              2.981             30.685
 Vibrational            118.055             34.782             33.667
 Vibration     1          0.594              1.983              5.686
 Vibration     2          0.596              1.975              4.593
 Vibration     3          0.600              1.961              3.809
 Vibration     4          0.608              1.935              3.152
 Vibration     5          0.613              1.920              2.903
 Vibration     6          0.633              1.857              2.249
 Vibration     7          0.669              1.743              1.650
 Vibration     8          0.714              1.613              1.253
 Vibration     9          0.744              1.528              1.069
 Vibration    10          0.749              1.514              1.042
 Vibration    11          0.784              1.423              0.886
 Vibration    12          0.828              1.316              0.736
 Vibration    13          0.869              1.218              0.623
 Vibration    14          0.901              1.149              0.553

 Optimization completed.
    -- Stationary point found.
 Normal termination of Gaussian 16 at Tue Dec  8 19:39:21 2020.

 ----------------------------------------------------------------------
 # B3LYP/6-311++G(d,p) empiricaldispersion=gd3bj scf=xqc pop=npa geom=c
 heck
 ----------------------------------------------------------------------

 --------------------------------------
 CID_84406263_JID_1272_Energie_neutraal
 --------------------------------------
 Structure from the checkpoint file:  "JID_1272.chk"
 Charge =  0 Multiplicity = 1

 SCF Done:  E(RB3LYP) =  -839.804281360     A.U. after   15 cycles
 Normal termination of Gaussian 16 at Tue Dec  8 19:41:27 2020.

 ----------------------------------------------------------------------
 # B3LYP/6-311++G(d,p) empiricaldispersion=gd3bj scf=xqc pop=npa geom=c
 heck
 ----------------------------------------------------------------------

 ------------------------------------
 CID_84406263_JID_1272_Energie_kation
 ------------------------------------
 Structure from the checkpoint file:  "JID_1272.chk"
 Charge =  1 Multiplicity = 2

 SCF Done:  E(UB3LYP) =  -839.514953947     A.U. after   24 cycles
 Normal termination of Gaussian 16 at Tue Dec  8 19:46:24 2020.
 Gaussian 16:  ES64L-G16RevA.03 25-Dec-2016

 ----------------------------------------------------------------------
 # B3LYP/6-311++G(d,p) empiricaldispersion=gd3bj scf=xqc pop=npa geom=c
 heck
 ----------------------------------------------------------------------

 -----------------------------------
 CID_84406263_JID_1272_Energie_anion
 -----------------------------------
 Structure from the checkpoint file:  "JID_1272.chk"
 Charge = -1 Multiplicity = 2

                         Standard orientation:
 ---------------------------------------------------------------------
 Center     Atomic      Atomic             Coordinates (Angstroms)
 Number     Number       Type             X           Y           Z
 ---------------------------------------------------------------------
      1          6           0       -3.559890    0.579836    1.309608
      2          6           0       -2.399913    0.045583    0.930502
      3          6           0       -2.254952   -1.015461   -0.123489
      4          6           0       -1.338162   -0.597696   -1.286144
      5          7           0        0.040649   -0.344340   -0.853377
      6          6           0        0.822843   -1.454739   -0.499784
      7          6           0        1.863737   -1.423368    0.344404
      8         16           0        2.425460    0.088589    1.062083
      9          6           0        1.930726    1.148084   -0.345760
     10          6           0        0.464363    0.966695   -0.715732
     11          8           0       -0.267662    1.921875   -0.924565
     12          1           0       -4.504208    0.270660    0.865511
     13          1           0       -3.611886    1.348253    2.075634
     14          1           0       -1.476004    0.383564    1.397954
     15          1           0       -1.845190   -1.932348    0.325883
     16          1           0       -3.238176   -1.273732   -0.535817
     17          1           0       -1.312707   -1.388823   -2.045298
     18          1           0       -1.699192    0.321240   -1.747227
     19          1           0        0.507190   -2.385740   -0.961137
     20          1           0        2.415055   -2.323573    0.588170
     21          1           0        2.566279    0.915097   -1.208025
     22          1           0        2.075718    2.189751   -0.060456
 ---------------------------------------------------------------------

 SCF Done:  E(UB3LYP) =  -839.791109749     A.U. after   33 cycles
 SCF Done:  E(UB3LYP) =  -839.791109749     a.u. after    1 cycles

 The electronic state is 2-A.
 Alpha  occ. eigenvalues --  -88.74435 -18.98449 -14.24610 -10.16471 -10.10174
 Alpha  occ. eigenvalues --  -10.09909 -10.09134 -10.07539 -10.07354 -10.07225
 Alpha  occ. eigenvalues --  -10.06438  -7.83019  -5.79395  -5.79038  -5.78428
 Alpha  occ. eigenvalues --   -0.93872  -0.84391  -0.72021  -0.69380  -0.64729
 Alpha  occ. eigenvalues --   -0.63067  -0.56434  -0.53924  -0.50179  -0.45980
 Alpha  occ. eigenvalues --   -0.40492  -0.39111  -0.38115  -0.37608  -0.36347
 Alpha  occ. eigenvalues --   -0.33680  -0.32732  -0.31624  -0.30847  -0.29523
 Alpha  occ. eigenvalues --   -0.27492  -0.26418  -0.25758  -0.24045  -0.23360
 Alpha  occ. eigenvalues --   -0.21621  -0.17399  -0.15849  -0.14606  -0.09690
 Alpha  occ. eigenvalues --    0.05088
 Alpha virt. eigenvalues --    0.06928   0.08139   0.08440   0.08891   0.09437
 Alpha virt. eigenvalues --    0.10036   0.10505   0.11076   0.11748   0.12490
 Alpha virt. eigenvalues --    0.12875   0.13756   0.13939   0.14368   0.14990

  Beta  occ. eigenvalues --  -88.74417 -18.98363 -14.24644 -10.16374 -10.10141
  Beta  occ. eigenvalues --  -10.09880 -10.09041 -10.07526 -10.07224 -10.07216
  Beta  occ. eigenvalues --  -10.06429  -7.82999  -5.79365  -5.79027  -5.78402
  Beta  occ. eigenvalues --   -0.93716  -0.84324  -0.71896  -0.69319  -0.64517
  Beta  occ. eigenvalues --   -0.63002  -0.56323  -0.53818  -0.49999  -0.45935
  Beta  occ. eigenvalues --   -0.40379  -0.39003  -0.37951  -0.37482  -0.36263
  Beta  occ. eigenvalues --   -0.33597  -0.32638  -0.31532  -0.30756  -0.29437
  Beta  occ. eigenvalues --   -0.27292  -0.26211  -0.25700  -0.23963  -0.23187
  Beta  occ. eigenvalues --   -0.21298  -0.17271  -0.15748  -0.14456  -0.09356
  Beta virt. eigenvalues --    0.07593   0.08296   0.08377   0.08874   0.09532
  Beta virt. eigenvalues --    0.09733   0.10529   0.10671   0.11610   0.12094
  Beta virt. eigenvalues --    0.12700   0.13126   0.14096   0.14364   0.14735

 Mulliken charges and spin densities:
               1          2
     1  C   -0.041326  -0.574594
     2  C   -0.052303   0.463513
     3  C    0.122951  -0.531905
     4  C    0.150774  -0.432039
     5  N    0.193898   0.085180
     6  C   -0.239973  -0.114512
     7  C    1.407986  -1.600008
     8  S    0.430592  -0.196226
     9  C   -0.240016  -0.299073
    10  C   -0.297613   0.220733
    11  O   -0.356985   0.031807
    12  H    0.043922   0.065658
    13  H    0.113080  -0.013003
    14  H    0.096789   0.059245
    15  H   -0.028310   0.175276
    16  H   -0.313840   0.468589
    17  H   -0.722524   0.926365
    18  H    0.201595  -0.027033
    19  H   -0.846220   1.011507
    20  H   -0.928774   1.184046
    21  H    0.091448   0.119505
    22  H    0.214850  -0.023032
 Sum of Mulliken charges =  -1.00000   1.00000

 Dipole moment (field-independent basis, Debye):
    X=             -0.5780    Y=              6.8568    Z=              1.8268  Tot=              7.1195
 Quadrupole moment (field-independent basis, Debye-Ang):
   XX=           -114.7224   YY=           -124.9871   ZZ=           -104.2575
   XY=              6.2745   XZ=             -7.1904   YZ=             -4.6077

 Summary of Natural Population Analysis:

                                       Natural Population
                Natural  -----------------------------------------------
    Atom  No    Charge         Core      Valence    Rydberg      Total
 -----------------------------------------------------------------------
      C    1   -0.20126      0.99956     2.19515    0.00655     3.20126
      C    2   -0.07078      0.99956     2.06203    0.00919     3.07078
      C    3   -0.21381      0.99960     2.20394    0.01027     3.21381
      C    4   -0.07968      0.99960     2.06790    0.01218     3.07968
      N    5   -0.26060      0.99962     2.74627    0.01471     3.76060
      C    6   -0.00328      0.99946     1.98820    0.01562     3.00328
      C    7   -0.18216      0.99948     2.17047    0.01221     3.18216
      S    8    0.12077      4.99958     2.85763    0.02202     7.87923
      C    9   -0.28230      0.99956     2.27316    0.00958     3.28230
      C   10    0.35007      0.99964     1.62688    0.02342     2.64993
      O   11   -0.31123      0.99988     3.30598    0.00538     4.31123
      H   12    0.08752      0.00000     0.41155    0.00093     0.41248
      H   13    0.09041      0.00000     0.40878    0.00081     0.40959
      H   14    0.09659      0.00000     0.40156    0.00185     0.40341
      H   15    0.10739      0.00000     0.39090    0.00171     0.39261
      H   16    0.10064      0.00000     0.39818    0.00117     0.39936
      H   17    0.10136      0.00000     0.39605    0.00259     0.39864
      H   18    0.11063      0.00000     0.38800    0.00136     0.38937
      H   19    0.10658      0.00000     0.38825    0.00516     0.39342
      H   20    0.11122      0.00000     0.38628    0.00250     0.38878
      H   21    0.10841      0.00000     0.39037    0.00121     0.39159
      H   22    0.11350      0.00000     0.38563    0.00086     0.38650
 =======================================================================
   * Total *   -0.00000     14.99553    29.84317    0.16129    45.00000

 Normal termination of Gaussian 16 at Tue Dec  8 19:53:29 2020.
