 Gaussian 16, Revision A.03,

 -----------------------------------------------------------
 # opt freq B3LYP/6-31G(d) empiricaldispersion=gd3bj scf=xqc
 -----------------------------------------------------------

 -------------------------------
 CID_153373284_JID_5155_neutraal
 -------------------------------
 Symbolic Z-matrix:
 Charge =  0 Multiplicity = 1

 SCF Done:  E(RB3LYP) =  -653.106842459     A.U. after   15 cycles
 SCF Done:  E(RB3LYP) =  -653.109797033     A.U. after   13 cycles
 SCF Done:  E(RB3LYP) =  -653.109564324     A.U. after   12 cycles
 SCF Done:  E(RB3LYP) =  -653.110044936     A.U. after   12 cycles
 SCF Done:  E(RB3LYP) =  -653.110126933     A.U. after   11 cycles
 SCF Done:  E(RB3LYP) =  -653.110182634     A.U. after   12 cycles
 SCF Done:  E(RB3LYP) =  -653.110202065     A.U. after   12 cycles
 SCF Done:  E(RB3LYP) =  -653.110212190     A.U. after   11 cycles
 SCF Done:  E(RB3LYP) =  -653.110216947     A.U. after   10 cycles
 SCF Done:  E(RB3LYP) =  -653.110217476     A.U. after    8 cycles
 SCF Done:  E(RB3LYP) =  -653.110218156     A.U. after    8 cycles
 SCF Done:  E(RB3LYP) =  -653.110218407     A.U. after    8 cycles
 SCF Done:  E(RB3LYP) =  -653.110218690     A.U. after    7 cycles
 SCF Done:  E(RB3LYP) =  -653.110219082     A.U. after    8 cycles
 SCF Done:  E(RB3LYP) =  -653.110219279     A.U. after    8 cycles
 SCF Done:  E(RB3LYP) =  -653.110219333     A.U. after    7 cycles
 Optimization completed.
    -- Stationary point found.
 Normal termination of Gaussian 16 at Thu Dec 10 14:50:00 2020.

 --------------------------------------------------------------------
 #N Geom=AllCheck Guess=TCheck SCRF=Check GenChk RB3LYP/6-31G(d) Freq
 --------------------------------------------------------------------

 Structure from the checkpoint file:  "JID_5155.chk"
 -------------------------------
 CID_153373284_JID_5155_neutraal
 -------------------------------
 Charge =  0 Multiplicity = 1

 SCF Done:  E(RB3LYP) =  -653.110219333     A.U. after    1 cycles

  Exact polarizability: 180.260  23.197 177.495  14.287  -3.212  70.598
 Approx polarizability: 284.330  59.761 312.296  31.565  -2.469 108.694

                      1                      2                      3
                      A                      A                      A
 Frequencies --     27.3148                45.9056                70.3890
 Red. masses --      8.0897                 3.4379                 1.9495
 Frc consts  --      0.0036                 0.0043                 0.0057
 IR Inten    --      1.1751                 0.4873                 0.3415

                      4                      5                      6
                      A                      A                      A
 Frequencies --     78.3744               135.6538               164.2041
 Red. masses --      6.1463                 1.7310                 3.9609
 Frc consts  --      0.0222                 0.0188                 0.0629
 IR Inten    --      1.3626                 1.5970                 0.1405

                      7                      8                      9
                      A                      A                      A
 Frequencies --    177.8482               188.5369               212.6806
 Red. masses --      3.3446                 3.5497                 4.4289
 Frc consts  --      0.0623                 0.0743                 0.1180
 IR Inten    --      0.3403                 1.6774                 0.0554

                     10                     11                     12
                      A                      A                      A
 Frequencies --    318.7913               358.2973               410.7069
 Red. masses --      3.1521                 3.7443                 3.9953
 Frc consts  --      0.1887                 0.2832                 0.3971
 IR Inten    --      0.5870                 1.2636                 1.8802

                     13                     14                     15
                      A                      A                      A
 Frequencies --    429.8071               434.8519               499.9083
 Red. masses --      2.6506                 3.1825                 3.7026
 Frc consts  --      0.2885                 0.3546                 0.5452
 IR Inten    --      1.2250                 2.2030                 4.9823

                     16                     17                     18
                      A                      A                      A
 Frequencies --    518.5576               549.5607               586.1250
 Red. masses --      4.7810                 4.5035                 4.3059
 Frc consts  --      0.7575                 0.8014                 0.8715
 IR Inten    --      0.5905                 1.1639                38.6133

                     19                     20                     21
                      A                      A                      A
 Frequencies --    600.5938               645.9970               661.2139
 Red. masses --      2.9580                 2.4548                 2.8149
 Frc consts  --      0.6286                 0.6036                 0.7251
 IR Inten    --     21.2789                38.4761                 0.9362

                     22                     23                     24
                      A                      A                      A
 Frequencies --    676.4764               758.0465               764.9602
 Red. masses --      1.9100                 3.8123                 4.7978
 Frc consts  --      0.5150                 1.2907                 1.6541
 IR Inten    --     70.7041                17.8864                 2.7452

                     25                     26                     27
                      A                      A                      A
 Frequencies --    772.5372               778.7453               816.9328
 Red. masses --      1.3727                 2.6916                 4.1584
 Frc consts  --      0.4827                 0.9617                 1.6351
 IR Inten    --     35.3656                12.1810                10.1541

                     28                     29                     30
                      A                      A                      A
 Frequencies --    820.7477               871.4399               895.4148
 Red. masses --      1.4855                 1.7180                 1.4412
 Frc consts  --      0.5896                 0.7687                 0.6808
 IR Inten    --      9.4672                21.9306                 1.0637

                     31                     32                     33
                      A                      A                      A
 Frequencies --    908.6515               942.3565               963.8211
 Red. masses --      3.4577                 1.3693                 2.0140
 Frc consts  --      1.6820                 0.7164                 1.1023
 IR Inten    --      3.5388                 4.1140                19.1710

                     34                     35                     36
                      A                      A                      A
 Frequencies --    983.5796               999.6880              1060.1086
 Red. masses --      1.2612                 2.1579                 1.9236
 Frc consts  --      0.7189                 1.2706                 1.2737
 IR Inten    --      1.5611                 2.3367                 3.5893

                     37                     38                     39
                      A                      A                      A
 Frequencies --   1060.2203              1079.9338              1089.2957
 Red. masses --      1.8683                 2.9438                 2.5191
 Frc consts  --      1.2373                 2.0228                 1.7611
 IR Inten    --      3.1504                 3.0409                 5.1228

                     40                     41                     42
                      A                      A                      A
 Frequencies --   1133.7619              1150.1878              1156.5808
 Red. masses --      2.3119                 1.7076                 1.7471
 Frc consts  --      1.7509                 1.3310                 1.3769
 IR Inten    --     11.3203                55.0734                73.0875

                     43                     44                     45
                      A                      A                      A
 Frequencies --   1197.4388              1218.4044              1242.0340
 Red. masses --      1.1248                 1.7680                 2.3103
 Frc consts  --      0.9502                 1.5463                 2.0999
 IR Inten    --      0.7308                14.8374                 9.6956

                     46                     47                     48
                      A                      A                      A
 Frequencies --   1251.9160              1328.8322              1330.8470
 Red. masses --      1.5243                 1.4045                 1.5366
 Frc consts  --      1.4076                 1.4612                 1.6035
 IR Inten    --    105.9008                 0.7242                 1.0148

                     49                     50                     51
                      A                      A                      A
 Frequencies --   1355.5927              1384.6380              1401.5295
 Red. masses --      3.8651                 2.2888                 1.7555
 Frc consts  --      4.1847                 2.5854                 2.0317
 IR Inten    --     11.4346                50.7914                28.5996

                     52                     53                     54
                      A                      A                      A
 Frequencies --   1420.1059              1438.7506              1495.1004
 Red. masses --      2.9152                 1.2839                 1.1385
 Frc consts  --      3.4638                 1.5658                 1.4994
 IR Inten    --     10.5563                 7.4448                10.7698

                     55                     56                     57
                      A                      A                      A
 Frequencies --   1501.4507              1510.8189              1516.2436
 Red. masses --      2.4582                 2.4645                 1.0449
 Frc consts  --      3.2650                 3.3144                 1.4154
 IR Inten    --     34.8059                 4.5069                 7.6591

                     58                     59                     60
                      A                      A                      A
 Frequencies --   1520.7864              1631.6908              1657.4223
 Red. masses --      1.0535                 5.5761                 7.3898
 Frc consts  --      1.4355                 8.7470                11.9605
 IR Inten    --      4.1298                 0.2274                 0.8177

                     61                     62                     63
                      A                      A                      A
 Frequencies --   1663.0084              1719.9383              1842.2560
 Red. masses --      6.3130                 8.0492                 9.5348
 Frc consts  --     10.2867                14.0290                19.0661
 IR Inten    --      4.7933                24.3693               255.1968

                     64                     65                     66
                      A                      A                      A
 Frequencies --   3037.3264              3074.3524              3085.2130
 Red. masses --      1.0394                 1.0583                 1.0999
 Frc consts  --      5.6493                 5.8933                 6.1683
 IR Inten    --     16.2832                13.1964                13.4101

                     67                     68                     69
                      A                      A                      A
 Frequencies --   3127.2024              3132.1927              3164.2507
 Red. masses --      1.1059                 1.0979                 1.0897
 Frc consts  --      6.3719                 6.3459                 6.4282
 IR Inten    --      6.5599                25.0593                20.3243

                     70                     71                     72
                      A                      A                      A
 Frequencies --   3185.7548              3201.3061              3216.1545
 Red. masses --      1.0860                 1.0915                 1.0941
 Frc consts  --      6.4937                 6.5908                 6.6678
 IR Inten    --      3.5366                24.1959                10.1826

                     73                     74                     75
                      A                      A                      A
 Frequencies --   3226.2114              3229.4743              3684.7302
 Red. masses --      1.0950                 1.0920                 1.0639
 Frc consts  --      6.7153                 6.7100                 8.5108
 IR Inten    --      6.8037                15.7946                50.4895

 - Thermochemistry -
 -------------------
 Temperature   298.150 Kelvin.  Pressure   1.00000 Atm.
 Atom     1 has atomic number  6 and mass  12.00000

 Molecular mass:   200.08373 amu.
 Principal axes and moments of inertia in atomic units:
                           1         2         3
     Eigenvalues --  1950.585284034.888145567.15717
           X            0.99988   0.01259   0.00955
           Y           -0.01256   0.99991  -0.00395
           Z           -0.00960   0.00383   0.99995
 This molecule is an asymmetric top.
 Rotational symmetry number  1.
 Warning -- assumption of classical behavior for rotation
           may cause significant error
 Rotational temperatures (Kelvin)      0.04440     0.02147     0.01556
 Rotational constants (GHZ):           0.92523     0.44728     0.32418
 Zero-point vibrational energy     572962.1 (Joules/Mol)
                                  136.94122 (Kcal/Mol)
 Warning -- explicit consideration of  19 degrees of freedom as
           vibrations may cause significant error
 Vibrational temperatures:     39.30    66.05   101.27   112.76   195.18
          (Kelvin)            236.25   255.88   271.26   306.00   458.67
                              515.51   590.92   618.40   625.65   719.26
                              746.09   790.70   843.30   864.12   929.45
                              951.34   973.30  1090.66  1100.61  1111.51
                             1120.44  1175.38  1180.87  1253.81  1288.30
                             1307.35  1355.84  1386.72  1415.15  1438.33
                             1525.26  1525.42  1553.78  1567.25  1631.23
                             1654.86  1664.06  1722.85  1753.01  1787.01
                             1801.23  1911.89  1914.79  1950.40  1992.19
                             2016.49  2043.22  2070.04  2151.12  2160.25
                             2173.73  2181.54  2188.07  2347.64  2384.66
                             2392.70  2474.61  2650.60  4370.04  4423.31
                             4438.93  4499.35  4506.53  4552.65  4583.59
                             4605.97  4627.33  4641.80  4646.49  5301.50

 Zero-point correction=                           0.218230 (Hartree/Particle)
 Thermal correction to Energy=                    0.231466
 Thermal correction to Enthalpy=                  0.232410
 Thermal correction to Gibbs Free Energy=         0.176892
 Sum of electronic and zero-point Energies=           -652.891990
 Sum of electronic and thermal Energies=              -652.878754
 Sum of electronic and thermal Enthalpies=            -652.877809
 Sum of electronic and thermal Free Energies=         -652.933328

                     E (Thermal)             CV                S
                      KCal/Mol        Cal/Mol-Kelvin    Cal/Mol-Kelvin
 Total                  145.247             50.335            116.848
 Electronic               0.000              0.000              0.000
 Translational            0.889              2.981             41.785
 Rotational               0.889              2.981             32.149
 Vibrational            143.469             44.373             42.913
 Vibration     1          0.593              1.984              6.015
 Vibration     2          0.595              1.979              4.986
 Vibration     3          0.598              1.968              4.142
 Vibration     4          0.600              1.964              3.931
 Vibration     5          0.613              1.918              2.864
 Vibration     6          0.623              1.886              2.501
 Vibration     7          0.628              1.870              2.351
 Vibration     8          0.633              1.856              2.242
 Vibration     9          0.644              1.822              2.021
 Vibration    10          0.705              1.638              1.316
 Vibration    11          0.733              1.558              1.129
 Vibration    12          0.775              1.447              0.924
 Vibration    13          0.791              1.405              0.859
 Vibration    14          0.795              1.394              0.843
 Vibration    15          0.855              1.250              0.658
 Vibration    16          0.874              1.209              0.613
 Vibration    17          0.905              1.141              0.545
 Vibration    18          0.943              1.061              0.474
 Vibration    19          0.959              1.031              0.449

 Optimization completed.
    -- Stationary point found.
 Normal termination of Gaussian 16 at Thu Dec 10 14:57:40 2020.

 ----------------------------------------------------------------------
 # B3LYP/6-311++G(d,p) empiricaldispersion=gd3bj scf=xqc pop=npa geom=c
 heck
 ----------------------------------------------------------------------

 ---------------------------------------
 CID_153373284_JID_5155_Energie_neutraal
 ---------------------------------------
 Structure from the checkpoint file:  "JID_5155.chk"
 Charge =  0 Multiplicity = 1

 SCF Done:  E(RB3LYP) =  -653.292102175     A.U. after   15 cycles
 Normal termination of Gaussian 16 at Thu Dec 10 15:01:05 2020.

 ----------------------------------------------------------------------
 # B3LYP/6-311++G(d,p) empiricaldispersion=gd3bj scf=xqc pop=npa geom=c
 heck
 ----------------------------------------------------------------------

 -------------------------------------
 CID_153373284_JID_5155_Energie_kation
 -------------------------------------
 Structure from the checkpoint file:  "JID_5155.chk"
 Charge =  1 Multiplicity = 2

 SCF Done:  E(UB3LYP) =  -653.009628600     A.U. after   25 cycles
 Normal termination of Gaussian 16 at Thu Dec 10 15:09:30 2020.
 Gaussian 16:  ES64L-G16RevA.03 25-Dec-2016

 ----------------------------------------------------------------------
 # B3LYP/6-311++G(d,p) empiricaldispersion=gd3bj scf=xqc pop=npa geom=c
 heck
 ----------------------------------------------------------------------

 ------------------------------------
 CID_153373284_JID_5155_Energie_anion
 ------------------------------------
 Structure from the checkpoint file:  "JID_5155.chk"
 Charge = -1 Multiplicity = 2

                         Standard orientation:
 ---------------------------------------------------------------------
 Center     Atomic      Atomic             Coordinates (Angstroms)
 Number     Number       Type             X           Y           Z
 ---------------------------------------------------------------------
      1          6           0       -3.980626   -1.410517   -0.403344
      2          6           0       -2.615007   -1.922696   -0.046951
      3          6           0       -1.504191   -1.180227    0.140327
      4          6           0       -0.186160   -1.729982    0.487599
      5          6           0        0.722411   -0.731579    0.607949
      6          6           0        0.051343    0.550161    0.335804
      7          6           0        0.546490    1.850422    0.326589
      8          6           0       -0.336086    2.898975    0.038758
      9          6           0       -1.681421    2.645277   -0.234081
     10          6           0       -2.181384    1.335566   -0.229968
     11          6           0       -1.315170    0.284343    0.054414
     12          6           0        2.176136   -0.863092    0.965055
     13          6           0        3.072547   -0.419325   -0.178094
     14          8           0        3.641743    0.646949   -0.256685
     15          8           0        3.150858   -1.363212   -1.145292
     16          1           0       -4.364176   -0.722742    0.361469
     17          1           0       -4.696364   -2.230545   -0.504290
     18          1           0       -3.967610   -0.857389   -1.351303
     19          1           0       -2.512596   -3.000485    0.070724
     20          1           0        0.004920   -2.788439    0.625382
     21          1           0        1.596515    2.046582    0.519608
     22          1           0        0.032568    3.920825    0.025130
     23          1           0       -2.351476    3.471184   -0.455572
     24          1           0       -3.229118    1.162268   -0.446632
     25          1           0        2.422282   -0.230215    1.823784
     26          1           0        2.404117   -1.903828    1.213440
     27          1           0        3.706835   -0.981056   -1.850261
 ---------------------------------------------------------------------

 SCF Done:  E(UB3LYP) =  -653.306382024     A.U. after   24 cycles

 The electronic state is 2-A.
 Alpha  occ. eigenvalues --  -19.06001 -18.99830 -10.18515 -10.06060 -10.03305
 Alpha  occ. eigenvalues --  -10.02532 -10.02243 -10.02115 -10.02092 -10.01442
 Alpha  occ. eigenvalues --  -10.01281 -10.01229 -10.00859 -10.00325 -10.00171
 Alpha  occ. eigenvalues --   -0.99793  -0.90683  -0.72608  -0.67423  -0.65092
 Alpha  occ. eigenvalues --   -0.61721  -0.59511  -0.56304  -0.53496  -0.49742
 Alpha  occ. eigenvalues --   -0.46105  -0.45337  -0.40393  -0.39790  -0.37828
 Alpha  occ. eigenvalues --   -0.36335  -0.34886  -0.32470  -0.32132  -0.31358
 Alpha  occ. eigenvalues --   -0.29806  -0.28656  -0.28244  -0.27950  -0.26823
 Alpha  occ. eigenvalues --   -0.26108  -0.23854  -0.23486  -0.22866  -0.21481
 Alpha  occ. eigenvalues --   -0.20786  -0.19220  -0.17640  -0.17069  -0.16482
 Alpha  occ. eigenvalues --   -0.12440  -0.08614  -0.06681   0.04219
 Alpha virt. eigenvalues --    0.08108   0.08981   0.09718   0.09983   0.10993
 Alpha virt. eigenvalues --    0.11432   0.11592   0.12487   0.13054   0.13180
 Alpha virt. eigenvalues --    0.13471   0.14864   0.15189   0.16235   0.16559

  Beta  occ. eigenvalues --  -19.05983 -18.99788 -10.18440 -10.06079 -10.03359
  Beta  occ. eigenvalues --  -10.02577 -10.02182 -10.02110 -10.02018 -10.01307
  Beta  occ. eigenvalues --  -10.01162 -10.01082 -10.00933 -10.00092  -9.99506
  Beta  occ. eigenvalues --   -0.99725  -0.90615  -0.72284  -0.67200  -0.64687
  Beta  occ. eigenvalues --   -0.61264  -0.59324  -0.56005  -0.53280  -0.49597
  Beta  occ. eigenvalues --   -0.45835  -0.44885  -0.40068  -0.39492  -0.37745
  Beta  occ. eigenvalues --   -0.36231  -0.34575  -0.32252  -0.32002  -0.31174
  Beta  occ. eigenvalues --   -0.29713  -0.28484  -0.27815  -0.27613  -0.26701
  Beta  occ. eigenvalues --   -0.26011  -0.23603  -0.22930  -0.22658  -0.21281
  Beta  occ. eigenvalues --   -0.20593  -0.19055  -0.17057  -0.16887  -0.16080
  Beta  occ. eigenvalues --   -0.11757  -0.07003  -0.05227
  Beta virt. eigenvalues --    0.08087   0.08954   0.09614   0.09718   0.10569
  Beta virt. eigenvalues --    0.11088   0.11407   0.12235   0.12627   0.13056
  Beta virt. eigenvalues --    0.13141   0.13662   0.14821   0.15152   0.16253

 Mulliken charges and spin densities:
               1          2
     1  C   -0.712670  -0.037155
     2  C   -0.180947   0.544173
     3  C    0.265830  -0.090622
     4  C   -0.187804   0.150291
     5  C    0.681161   0.103179
     6  C    0.668865   0.070021
     7  C   -0.664851   0.013972
     8  C   -0.529040   0.060828
     9  C   -0.383397   0.074687
    10  C   -0.707976  -0.022972
    11  C    0.440430   0.061487
    12  C   -0.556197  -0.045525
    13  C   -0.108120   0.034338
    14  O   -0.291730   0.016972
    15  O   -0.168933   0.002231
    16  H    0.117121   0.030203
    17  H    0.119861   0.000959
    18  H    0.119995   0.028132
    19  H    0.088992  -0.037962
    20  H    0.076533  -0.011467
    21  H    0.135972   0.003693
    22  H    0.106444  -0.004901
    23  H    0.121584  -0.006519
    24  H    0.030002   0.002452
    25  H    0.125917   0.032738
    26  H    0.128029   0.025137
    27  H    0.264930   0.001631
 Sum of Mulliken charges =  -1.00000   1.00000

 Dipole moment (field-independent basis, Debye):
    X=              1.9288    Y=             -1.0523    Z=             -0.6994  Tot=              2.3058
 Quadrupole moment (field-independent basis, Debye-Ang):
   XX=           -118.2381   YY=           -109.7948   ZZ=            -96.7058
   XY=             -7.7130   XZ=             -1.5086   YZ=             -0.3204

 Summary of Natural Population Analysis:

                                       Natural Population
                Natural  -----------------------------------------------
    Atom  No    Charge         Core      Valence    Rydberg      Total
 -----------------------------------------------------------------------
      C    1   -0.31268      0.99967     2.30848    0.00452     3.31268
      C    2    0.08562      0.99951     1.90568    0.00919     2.91438
      C    3   -0.07289      0.99949     2.06396    0.00943     3.07289
      C    4   -0.04107      0.99945     2.03284    0.00878     3.04107
      C    5   -0.02105      0.99946     2.01202    0.00957     3.02105
      C    6   -0.00092      0.99939     1.99148    0.01005     3.00092
      C    7   -0.11055      0.99945     2.10271    0.00839     3.11055
      C    8   -0.10856      0.99960     2.09880    0.01016     3.10856
      C    9   -0.10458      0.99958     2.09501    0.00998     3.10458
      C   10   -0.11585      0.99953     2.10745    0.00887     3.11585
      C   11    0.00680      0.99947     1.98512    0.00861     2.99320
      C   12   -0.24153      0.99955     2.23328    0.00870     3.24153
      C   13    0.41989      0.99974     1.55427    0.02610     2.58011
      O   14   -0.31578      0.99986     3.30786    0.00806     4.31578
      O   15   -0.34541      0.99987     3.33900    0.00653     4.34541
      H   16    0.10415      0.00000     0.39454    0.00131     0.39585
      H   17    0.09118      0.00000     0.40790    0.00091     0.40882
      H   18    0.10426      0.00000     0.39443    0.00131     0.39574
      H   19    0.07273      0.00000     0.42536    0.00190     0.42727
      H   20    0.08641      0.00000     0.41275    0.00084     0.41359
      H   21    0.10161      0.00000     0.39669    0.00170     0.39839
      H   22    0.08796      0.00000     0.41094    0.00110     0.41204
      H   23    0.08699      0.00000     0.41190    0.00110     0.41301
      H   24    0.09461      0.00000     0.40398    0.00141     0.40539
      H   25    0.10765      0.00000     0.39063    0.00172     0.39235
      H   26    0.10745      0.00000     0.39127    0.00128     0.39255
      H   27    0.23354      0.00000     0.26355    0.00291     0.26646
 =======================================================================
   * Total *    0.00001     14.99363    37.84191    0.16445    52.99999

 Normal termination of Gaussian 16 at Thu Dec 10 15:18:02 2020.
