 Gaussian 16, Revision A.03,

 -----------------------------------------------------------
 # opt freq B3LYP/6-31G(d) empiricaldispersion=gd3bj scf=xqc
 -----------------------------------------------------------

 -------------------------------
 CID_145171479_JID_5796_neutraal
 -------------------------------
 Symbolic Z-matrix:
 Charge =  0 Multiplicity = 1

 SCF Done:  E(RB3LYP) =  -661.521724832     A.U. after   14 cycles
 SCF Done:  E(RB3LYP) =  -661.528389670     A.U. after   13 cycles
 SCF Done:  E(RB3LYP) =  -661.530370053     A.U. after   12 cycles
 SCF Done:  E(RB3LYP) =  -661.531944673     A.U. after   12 cycles
 SCF Done:  E(RB3LYP) =  -661.532470997     A.U. after   12 cycles
 SCF Done:  E(RB3LYP) =  -661.532718682     A.U. after   12 cycles
 SCF Done:  E(RB3LYP) =  -661.532833967     A.U. after   11 cycles
 SCF Done:  E(RB3LYP) =  -661.532893365     A.U. after   11 cycles
 SCF Done:  E(RB3LYP) =  -661.532919009     A.U. after   10 cycles
 SCF Done:  E(RB3LYP) =  -661.532927673     A.U. after   10 cycles
 SCF Done:  E(RB3LYP) =  -661.533652224     A.U. after   12 cycles
 SCF Done:  E(RB3LYP) =  -661.533564622     A.U. after   11 cycles
 SCF Done:  E(RB3LYP) =  -661.533661184     A.U. after   11 cycles
 SCF Done:  E(RB3LYP) =  -661.533661713     A.U. after    8 cycles
 SCF Done:  E(RB3LYP) =  -661.533661774     A.U. after    7 cycles
 Optimization completed.
    -- Stationary point found.
 Normal termination of Gaussian 16 at Thu Dec 10 17:12:32 2020.

 --------------------------------------------------------------------
 #N Geom=AllCheck Guess=TCheck SCRF=Check GenChk RB3LYP/6-31G(d) Freq
 --------------------------------------------------------------------

 Structure from the checkpoint file:  "JID_5796.chk"
 -------------------------------
 CID_145171479_JID_5796_neutraal
 -------------------------------
 Charge =  0 Multiplicity = 1

 SCF Done:  E(RB3LYP) =  -661.533661774     A.U. after    1 cycles

  Exact polarizability: 230.750   2.865 149.258  -0.175   0.281  53.599
 Approx polarizability: 318.547  -3.322 258.827  -0.581   2.004  83.203

                      1                      2                      3
                      A                      A                      A
 Frequencies --     40.2352                43.0006                84.0524
 Red. masses --      4.5474                 4.5006                 1.0609
 Frc consts  --      0.0043                 0.0049                 0.0044
 IR Inten    --      0.8861                 0.0746                 0.1658

                      4                      5                      6
                      A                      A                      A
 Frequencies --    106.9385               167.4837               196.9054
 Red. masses --      4.9010                 4.2360                 4.3811
 Frc consts  --      0.0330                 0.0700                 0.1001
 IR Inten    --      0.6895                 1.6700                11.8363

                      7                      8                      9
                      A                      A                      A
 Frequencies --    213.2390               250.9783               256.6677
 Red. masses --      5.1148                 4.1102                 5.4252
 Frc consts  --      0.1370                 0.1525                 0.2106
 IR Inten    --      0.4223                 1.8062                 1.2778

                     10                     11                     12
                      A                      A                      A
 Frequencies --    285.5631               337.8059               422.7915
 Red. masses --      4.0979                 3.9249                 3.6408
 Frc consts  --      0.1969                 0.2639                 0.3834
 IR Inten    --     11.0394                 1.6803                 1.2997

                     13                     14                     15
                      A                      A                      A
 Frequencies --    432.5229               467.4566               511.8046
 Red. masses --      1.2810                 1.7249                 1.5850
 Frc consts  --      0.1412                 0.2221                 0.2446
 IR Inten    --    308.7576                26.5136                18.4361

                     16                     17                     18
                      A                      A                      A
 Frequencies --    523.6043               551.9117               595.6827
 Red. masses --      2.4847                 5.1750                 3.6331
 Frc consts  --      0.4014                 0.9288                 0.7596
 IR Inten    --     10.8396                 8.3190                 1.6406

                     19                     20                     21
                      A                      A                      A
 Frequencies --    608.1658               632.7648               634.3396
 Red. masses --      6.1196                 1.2343                 6.4922
 Frc consts  --      1.3336                 0.2912                 1.5392
 IR Inten    --     11.6207                52.9015                 6.7305

                     22                     23                     24
                      A                      A                      A
 Frequencies --    651.9663               708.1636               753.5079
 Red. masses --      5.3969                 3.6753                 5.7905
 Frc consts  --      1.3516                 1.0859                 1.9370
 IR Inten    --      0.9907                10.7648                 2.7637

                     25                     26                     27
                      A                      A                      A
 Frequencies --    760.0552               789.9575               797.0447
 Red. masses --      2.6417                 1.7205                 2.0836
 Frc consts  --      0.8991                 0.6326                 0.7799
 IR Inten    --      0.0204                45.7017                 8.4388

                     28                     29                     30
                      A                      A                      A
 Frequencies --    807.9170               864.6993               904.8530
 Red. masses --      2.8957                 5.2499                 1.3332
 Frc consts  --      1.1136                 2.3128                 0.6431
 IR Inten    --     58.7772                 0.2372                 3.6904

                     31                     32                     33
                      A                      A                      A
 Frequencies --    972.0665               992.0720              1002.3719
 Red. masses --      1.3793                 5.4791                 2.5741
 Frc consts  --      0.7679                 3.1772                 1.5238
 IR Inten    --      0.4746                10.1737                 4.3717

                     34                     35                     36
                      A                      A                      A
 Frequencies --   1007.5120              1011.0335              1032.1313
 Red. masses --      1.2790                 4.3827                 2.4160
 Frc consts  --      0.7649                 2.6395                 1.5164
 IR Inten    --      0.5867                18.6568                 5.1510

                     37                     38                     39
                      A                      A                      A
 Frequencies --   1073.8044              1079.3768              1112.4767
 Red. masses --      1.5985                 2.1252                 2.3272
 Frc consts  --      1.0860                 1.4588                 1.6969
 IR Inten    --      5.9616                 5.0012                 0.2872

                     40                     41                     42
                      A                      A                      A
 Frequencies --   1123.3566              1171.4024              1185.1008
 Red. masses --      1.6778                 2.2918                 1.1160
 Frc consts  --      1.2475                 1.8529                 0.9235
 IR Inten    --      2.7229                 0.2780                 9.4088

                     43                     44                     45
                      A                      A                      A
 Frequencies --   1221.3597              1276.1689              1309.3238
 Red. masses --      1.4238                 2.6634                 6.3230
 Frc consts  --      1.2513                 2.5557                 6.3866
 IR Inten    --     56.0393                29.4037                20.5940

                     46                     47                     48
                      A                      A                      A
 Frequencies --   1336.7719              1351.1797              1402.8713
 Red. masses --      1.7536                 4.5529                 2.2784
 Frc consts  --      1.8462                 4.8974                 2.6419
 IR Inten    --     49.5087                54.9588                61.2147

                     49                     50                     51
                      A                      A                      A
 Frequencies --   1434.1460              1484.9999              1493.5491
 Red. masses --      1.3011                 2.8055                 2.9871
 Frc consts  --      1.5767                 3.6451                 3.9259
 IR Inten    --      6.2282               377.6516                55.2933

                     52                     53                     54
                      A                      A                      A
 Frequencies --   1501.1777              1503.8304              1510.0555
 Red. masses --      1.9778                 1.0467                 1.7519
 Frc consts  --      2.6261                 1.3947                 2.3537
 IR Inten    --    117.3283                 5.9155               120.4717

                     55                     56                     57
                      A                      A                      A
 Frequencies --   1526.0248              1571.8261              1632.4395
 Red. masses --      1.8009                 4.0205                 5.0367
 Frc consts  --      2.4709                 5.8525                 7.9081
 IR Inten    --     10.6244               559.4578                81.6307

                     58                     59                     60
                      A                      A                      A
 Frequencies --   1633.3173              1646.4101              1662.3672
 Red. masses --      5.1771                 2.4021                 4.7859
 Frc consts  --      8.1372                 3.8363                 7.7924
 IR Inten    --    950.1672                49.8478                12.0238

                     61                     62                     63
                      A                      A                      A
 Frequencies --   1671.8346              3058.7619              3119.2665
 Red. masses --      2.1690                 1.0359                 1.1005
 Frc consts  --      3.5719                 5.7102                 6.3088
 IR Inten    --    491.3157                18.3882                11.5359

                     64                     65                     66
                      A                      A                      A
 Frequencies --   3142.8909              3172.3978              3194.4442
 Red. masses --      1.1034                 1.0893                 1.0895
 Frc consts  --      6.4216                 6.4589                 6.5504
 IR Inten    --     17.7403                33.3082                14.2065

                     67                     68                     69
                      A                      A                      A
 Frequencies --   3210.7106              3220.3673              3281.7220
 Red. masses --      1.0921                 1.0960                 1.0925
 Frc consts  --      6.6328                 6.6968                 6.9321
 IR Inten    --      6.7474                22.5256                 7.3315

                     70                     71                     72
                      A                      A                      A
 Frequencies --   3598.7595              3601.1652              3720.3150
 Red. masses --      1.0459                 1.0754                 1.1029
 Frc consts  --      7.9806                 8.2169                 8.9935
 IR Inten    --     60.4903                31.9803                32.2130

 - Thermochemistry -
 -------------------
 Temperature   298.150 Kelvin.  Pressure   1.00000 Atm.
 Atom     1 has atomic number  6 and mass  12.00000

 Molecular mass:   201.10145 amu.
 Principal axes and moments of inertia in atomic units:
                           1         2         3
     Eigenvalues --  1209.026395721.575336918.13456
           X            0.99990   0.01445   0.00052
           Y           -0.01445   0.99989  -0.00350
           Z           -0.00057   0.00350   0.99999
 This molecule is an asymmetric top.
 Rotational symmetry number  1.
 Warning -- assumption of classical behavior for rotation
           may cause significant error
 Rotational temperatures (Kelvin)      0.07164     0.01514     0.01252
 Rotational constants (GHZ):           1.49272     0.31543     0.26087
 Zero-point vibrational energy     548220.1 (Joules/Mol)
                                  131.02774 (Kcal/Mol)
 Warning -- explicit consideration of  19 degrees of freedom as
           vibrations may cause significant error
 Vibrational temperatures:     57.89    61.87   120.93   153.86   240.97
          (Kelvin)            283.30   306.80   361.10   369.29   410.86
                              486.03   608.30   622.30   672.57   736.37
                              753.35   794.08   857.05   875.01   910.41
                              912.67   938.03  1018.89  1084.13  1093.55
                             1136.57  1146.77  1162.41  1244.11  1301.88
                             1398.59  1427.37  1442.19  1449.59  1454.65
                             1485.01  1544.96  1552.98  1600.61  1616.26
                             1685.39  1705.10  1757.26  1836.12  1883.82
                             1923.32  1944.05  2018.42  2063.42  2136.58
                             2148.88  2159.86  2163.68  2172.63  2195.61
                             2261.51  2348.72  2349.98  2368.82  2391.78
                             2405.40  4400.88  4487.93  4521.92  4564.37
                             4596.09  4619.50  4633.39  4721.67  5177.81
                             5181.27  5352.70

 Zero-point correction=                           0.208806 (Hartree/Particle)
 Thermal correction to Energy=                    0.221608
 Thermal correction to Enthalpy=                  0.222552
 Thermal correction to Gibbs Free Energy=         0.168631
 Sum of electronic and zero-point Energies=           -661.324856
 Sum of electronic and thermal Energies=              -661.312054
 Sum of electronic and thermal Enthalpies=            -661.311110
 Sum of electronic and thermal Free Energies=         -661.365030

                     E (Thermal)             CV                S
                      KCal/Mol        Cal/Mol-Kelvin    Cal/Mol-Kelvin
 Total                  139.061             49.548            113.485
 Electronic               0.000              0.000              0.000
 Translational            0.889              2.981             41.801
 Rotational               0.889              2.981             32.237
 Vibrational            137.284             43.586             39.448
 Vibration     1          0.594              1.981              5.247
 Vibration     2          0.595              1.980              5.116
 Vibration     3          0.601              1.960              3.794
 Vibration     4          0.606              1.944              3.324
 Vibration     5          0.624              1.882              2.464
 Vibration     6          0.636              1.844              2.162
 Vibration     7          0.644              1.821              2.016
 Vibration     8          0.663              1.761              1.724
 Vibration     9          0.666              1.752              1.684
 Vibration    10          0.683              1.700              1.500
 Vibration    11          0.718              1.600              1.222
 Vibration    12          0.785              1.421              0.883
 Vibration    13          0.793              1.399              0.850
 Vibration    14          0.825              1.322              0.745
 Vibration    15          0.867              1.224              0.629
 Vibration    16          0.879              1.198              0.602
 Vibration    17          0.907              1.136              0.540
 Vibration    18          0.953              1.041              0.457
 Vibration    19          0.967              1.015              0.436

 Optimization completed.
    -- Stationary point found.
 Normal termination of Gaussian 16 at Thu Dec 10 17:19:47 2020.

 ----------------------------------------------------------------------
 # B3LYP/6-311++G(d,p) empiricaldispersion=gd3bj scf=xqc pop=npa geom=c
 heck
 ----------------------------------------------------------------------

 ---------------------------------------
 CID_145171479_JID_5796_Energie_neutraal
 ---------------------------------------
 Structure from the checkpoint file:  "JID_5796.chk"
 Charge =  0 Multiplicity = 1

 SCF Done:  E(RB3LYP) =  -661.716267735     A.U. after   14 cycles
 Normal termination of Gaussian 16 at Thu Dec 10 17:22:45 2020.

 ----------------------------------------------------------------------
 # B3LYP/6-311++G(d,p) empiricaldispersion=gd3bj scf=xqc pop=npa geom=c
 heck
 ----------------------------------------------------------------------

 -------------------------------------
 CID_145171479_JID_5796_Energie_kation
 -------------------------------------
 Structure from the checkpoint file:  "JID_5796.chk"
 Charge =  1 Multiplicity = 2

 SCF Done:  E(UB3LYP) =  -661.438711830     A.U. after   21 cycles
 Normal termination of Gaussian 16 at Thu Dec 10 17:28:22 2020.
 Gaussian 16:  ES64L-G16RevA.03 25-Dec-2016

 ----------------------------------------------------------------------
 # B3LYP/6-311++G(d,p) empiricaldispersion=gd3bj scf=xqc pop=npa geom=c
 heck
 ----------------------------------------------------------------------

 ------------------------------------
 CID_145171479_JID_5796_Energie_anion
 ------------------------------------
 Structure from the checkpoint file:  "JID_5796.chk"
 Charge = -1 Multiplicity = 2

                         Standard orientation:
 ---------------------------------------------------------------------
 Center     Atomic      Atomic             Coordinates (Angstroms)
 Number     Number       Type             X           Y           Z
 ---------------------------------------------------------------------
      1          6           0       -4.310661   -1.580611    0.011462
      2          6           0       -3.050566   -0.759412    0.007465
      3          6           0       -1.795775   -1.349323    0.014266
      4          6           0       -0.680742   -0.483909    0.001215
      5          7           0       -0.820677    0.844039   -0.009710
      6          6           0       -2.088208    1.301580   -0.004916
      7          7           0       -3.214789    0.576996   -0.004918
      8          7           0       -2.235423    2.662799    0.033810
      9          7           0        0.577729   -1.038494   -0.004421
     10          6           0        1.853364   -0.472652   -0.001421
     11          6           0        2.119912    0.906372    0.032347
     12          6           0        3.452071    1.302638    0.034945
     13          6           0        4.467933    0.345503    0.004566
     14          6           0        4.088898   -0.994441   -0.026268
     15          7           0        2.818731   -1.406529   -0.029489
     16          1           0       -4.911424   -1.340015    0.895469
     17          1           0       -4.920146   -1.336153   -0.865397
     18          1           0       -4.098302   -2.653275    0.008471
     19          1           0       -1.674289   -2.426977    0.022215
     20          1           0       -3.149334    3.013481   -0.212632
     21          1           0       -1.437264    3.213036   -0.246273
     22          1           0        0.623890   -2.049646   -0.014612
     23          1           0        1.301051    1.609210    0.055975
     24          1           0        3.694336    2.361618    0.061707
     25          1           0        5.516021    0.625487    0.005667
     26          1           0        4.839120   -1.782911   -0.049469
 ---------------------------------------------------------------------

 SCF Done:  E(UB3LYP) =  -661.706292473     A.U. after   33 cycles
 SCF Done:  E(UB3LYP) =  -661.706292473     a.u. after    1 cycles

 The electronic state is 2-A.
 Alpha  occ. eigenvalues --  -14.23031 -14.20832 -14.17590 -14.17216 -14.16930
 Alpha  occ. eigenvalues --  -10.14992 -10.12901 -10.11893 -10.09265 -10.08672
 Alpha  occ. eigenvalues --  -10.05958 -10.05724 -10.05012 -10.04949 -10.04901
 Alpha  occ. eigenvalues --   -0.88406  -0.85677  -0.80671  -0.77866  -0.75108
 Alpha  occ. eigenvalues --   -0.67865  -0.66325  -0.63531  -0.59976  -0.54419
 Alpha  occ. eigenvalues --   -0.52168  -0.50788  -0.48545  -0.44004  -0.42635
 Alpha  occ. eigenvalues --   -0.39683  -0.38008  -0.36538  -0.35948  -0.34687
 Alpha  occ. eigenvalues --   -0.33624  -0.33292  -0.31772  -0.31108  -0.29153
 Alpha  occ. eigenvalues --   -0.28328  -0.27873  -0.27282  -0.25775  -0.24802
 Alpha  occ. eigenvalues --   -0.19429  -0.18697  -0.17636  -0.16186  -0.14757
 Alpha  occ. eigenvalues --   -0.13145  -0.12401  -0.09499   0.05019
 Alpha virt. eigenvalues --    0.06919   0.07112   0.07546   0.08849   0.08905
 Alpha virt. eigenvalues --    0.09172   0.10268   0.10484   0.11000   0.11898
 Alpha virt. eigenvalues --    0.12115   0.12876   0.13629   0.14282   0.15282

  Beta  occ. eigenvalues --  -14.23086 -14.20805 -14.17337 -14.17100 -14.16848
  Beta  occ. eigenvalues --  -10.15001 -10.12725 -10.11759 -10.09065 -10.08690
  Beta  occ. eigenvalues --  -10.05962 -10.05529 -10.05005 -10.04961 -10.04940
  Beta  occ. eigenvalues --   -0.88242  -0.85508  -0.80416  -0.77725  -0.74909
  Beta  occ. eigenvalues --   -0.67545  -0.66141  -0.63352  -0.59898  -0.54316
  Beta  occ. eigenvalues --   -0.51948  -0.50604  -0.48383  -0.43879  -0.42533
  Beta  occ. eigenvalues --   -0.39552  -0.37920  -0.36443  -0.35842  -0.34617
  Beta  occ. eigenvalues --   -0.33392  -0.32998  -0.31731  -0.30700  -0.28773
  Beta  occ. eigenvalues --   -0.28254  -0.27727  -0.27135  -0.25687  -0.24336
  Beta  occ. eigenvalues --   -0.19070  -0.18489  -0.16686  -0.15438  -0.14474
  Beta  occ. eigenvalues --   -0.13013  -0.12028  -0.09254
  Beta virt. eigenvalues --    0.07097   0.07493   0.08005   0.08994   0.09028
  Beta virt. eigenvalues --    0.09372   0.09496   0.10623   0.10698   0.11272
  Beta virt. eigenvalues --    0.12013   0.12448   0.13470   0.13675   0.14311

 Mulliken charges and spin densities:
               1          2
     1  C    0.832821  -1.526212
     2  C   -0.265628   0.165858
     3  C   -0.638607   0.518997
     4  C    0.705564  -0.730072
     5  N   -0.240164   0.020919
     6  C   -0.179305   0.275643
     7  N   -0.186768   0.059047
     8  N   -0.354920   0.079610
     9  N   -0.108428  -0.048607
    10  C   -1.053760   0.345568
    11  C    1.363561  -0.664513
    12  C   -1.132858   0.716641
    13  C    0.591596  -0.522299
    14  C   -0.430652   0.292750
    15  N   -0.127391   0.155496
    16  H   -0.130479   0.286913
    17  H    0.111223   0.034135
    18  H   -0.058303   0.188674
    19  H   -0.113420   0.239535
    20  H    0.024660   0.233523
    21  H   -0.160987   0.412617
    22  H    0.274483   0.022309
    23  H    0.324656  -0.028970
    24  H   -0.213738   0.354734
    25  H    0.079925   0.041269
    26  H    0.086920   0.076436
 Sum of Mulliken charges =  -1.00000   1.00000

 Dipole moment (field-independent basis, Debye):
    X=              1.0824    Y=             -1.9542    Z=             -0.7573  Tot=              2.3588
 Quadrupole moment (field-independent basis, Debye-Ang):
   XX=           -153.3432   YY=           -118.3281   ZZ=           -104.3804
   XY=              1.3625   XZ=              4.5087   YZ=             -0.0964

 Summary of Natural Population Analysis:

                                       Natural Population
                Natural  -----------------------------------------------
    Atom  No    Charge         Core      Valence    Rydberg      Total
 -----------------------------------------------------------------------
      C    1   -0.29848      0.99963     2.29321    0.00564     3.29848
      C    2    0.15967      0.99956     1.82871    0.01206     2.84033
      C    3   -0.19777      0.99947     2.19068    0.00762     3.19777
      C    4    0.24887      0.99954     1.73823    0.01336     2.75113
      N    5   -0.28903      0.99963     2.77967    0.00973     3.78903
      C    6    0.30397      0.99963     1.67790    0.01850     2.69603
      N    7   -0.29278      0.99964     2.78242    0.01072     3.79278
      N    8   -0.39425      0.99970     2.88504    0.00951     3.89425
      N    9   -0.29506      0.99963     2.78672    0.00871     3.79506
      C   10    0.21637      0.99953     1.77004    0.01406     2.78363
      C   11   -0.15094      0.99953     2.14255    0.00887     3.15094
      C   12   -0.04888      0.99958     2.03988    0.00943     3.04888
      C   13   -0.13723      0.99956     2.12760    0.01008     3.13723
      C   14    0.02204      0.99960     1.96314    0.01521     2.97796
      N   15   -0.23076      0.99968     2.71975    0.01134     3.73076
      H   16    0.10755      0.00000     0.39027    0.00218     0.39245
      H   17    0.10447      0.00000     0.39408    0.00145     0.39553
      H   18    0.09614      0.00000     0.40288    0.00097     0.40386
      H   19    0.09969      0.00000     0.39925    0.00106     0.40031
      H   20    0.19110      0.00000     0.30679    0.00212     0.30890
      H   21    0.19313      0.00000     0.30425    0.00261     0.30687
      H   22    0.19488      0.00000     0.30136    0.00377     0.30512
      H   23    0.12337      0.00000     0.37489    0.00174     0.37663
      H   24    0.09441      0.00000     0.40471    0.00088     0.40559
      H   25    0.09617      0.00000     0.40296    0.00087     0.40383
      H   26    0.08335      0.00000     0.41553    0.00111     0.41665
 =======================================================================
   * Total *    0.00000     14.99391    37.82249    0.18360    53.00000

 Normal termination of Gaussian 16 at Thu Dec 10 17:37:10 2020.
