 Gaussian 16, Revision A.03,

 -----------------------------------------------------------
 # opt freq B3LYP/6-31G(d) empiricaldispersion=gd3bj scf=xqc
 -----------------------------------------------------------

 -------------------------------
 CID_130864775_JID_1884_neutraal
 -------------------------------
 Symbolic Z-matrix:
 Charge =  0 Multiplicity = 1

 SCF Done:  E(RB3LYP) =  -500.598812133     A.U. after   14 cycles
 SCF Done:  E(RB3LYP) =  -500.610795812     A.U. after   12 cycles
 SCF Done:  E(RB3LYP) =  -500.611337121     A.U. after   11 cycles
 SCF Done:  E(RB3LYP) =  -500.611413266     A.U. after   11 cycles
 SCF Done:  E(RB3LYP) =  -500.611383564     A.U. after   11 cycles
 SCF Done:  E(RB3LYP) =  -500.611465885     A.U. after   11 cycles
 SCF Done:  E(RB3LYP) =  -500.611483783     A.U. after   10 cycles
 SCF Done:  E(RB3LYP) =  -500.611490752     A.U. after   10 cycles
 SCF Done:  E(RB3LYP) =  -500.611495721     A.U. after    9 cycles
 SCF Done:  E(RB3LYP) =  -500.611506216     A.U. after   10 cycles
 SCF Done:  E(RB3LYP) =  -500.611510978     A.U. after    9 cycles
 SCF Done:  E(RB3LYP) =  -500.611513075     A.U. after   10 cycles
 SCF Done:  E(RB3LYP) =  -500.611513294     A.U. after    8 cycles
 SCF Done:  E(RB3LYP) =  -500.611513307     A.U. after    7 cycles
 Optimization completed.
    -- Stationary point found.

 1\1\GINC-NODE311\FOpt\RB3LYP\6-31G(d)\C9H12O2\VSC10255\08-Dec-2020\0\\
 # opt freq B3LYP/6-31G(d) empiricaldispersion=gd3bj scf=xqc\\CID_13086
 4775_JID_1884_neutraal\\0,1\C,2.1386067876,-0.3764232088,-0.0835594355
 \C,1.190028177,0.7431600316,-0.5885484686\C,0.0301950818,0.0445562538,
 0.1551663185\C,1.0812907048,-0.7212029685,0.9982109048\C,-1.1706185937
 ,0.7657484152,0.8227948334\C,-2.0837466211,-0.296086662,0.2435728623\C
 ,-3.3309364147,-0.7167953654,0.4813264781\C,-4.2676697003,-0.107132955
 7,1.4350720239\O,-5.3923109372,-0.5151986351,1.6533828104\O,-3.7688205

 Normal termination of Gaussian 16 at Tue Dec  8 21:24:45 2020.

 --------------------------------------------------------------------
 #N Geom=AllCheck Guess=TCheck SCRF=Check GenChk RB3LYP/6-31G(d) Freq
 --------------------------------------------------------------------

 Structure from the checkpoint file:  "JID_1884.chk"
 -------------------------------
 CID_130864775_JID_1884_neutraal
 -------------------------------
 Charge =  0 Multiplicity = 1

 SCF Done:  E(RB3LYP) =  -500.611513307     A.U. after    1 cycles

  Exact polarizability: 135.954   2.780  88.079   5.446   1.041  69.723
 Approx polarizability: 178.169   9.635 132.722  12.864   3.093 103.145

                      1                      2                      3
                      A                      A                      A
 Frequencies --     26.9060                69.9149                95.5506
 Red. masses --      4.4238                 5.5883                 2.9287
 Frc consts  --      0.0019                 0.0161                 0.0158
 IR Inten    --      0.8539                 0.3759                 0.3344

                      4                      5                      6
                      A                      A                      A
 Frequencies --    145.0418               155.1050               256.9340
 Red. masses --      3.5202                 3.3160                 2.2030
 Frc consts  --      0.0436                 0.0470                 0.0857
 IR Inten    --      0.2589                 0.5561                 0.1045

                      7                      8                      9
                      A                      A                      A
 Frequencies --    310.5852               342.9936               353.2872
 Red. masses --      2.9430                 3.8442                 3.1315
 Frc consts  --      0.1673                 0.2665                 0.2303
 IR Inten    --      0.6282                 0.6828                 2.2161

                     10                     11                     12
                      A                      A                      A
 Frequencies --    410.0371               431.9557               533.2081
 Red. masses --      2.1106                 2.2737                 4.3782
 Frc consts  --      0.2091                 0.2500                 0.7334
 IR Inten    --      0.7302                 1.2752                 3.5436

                     13                     14                     15
                      A                      A                      A
 Frequencies --    600.7288               625.0114               693.4093
 Red. masses --      1.1859                 3.5525                 1.5901
 Frc consts  --      0.2521                 0.8176                 0.4505
 IR Inten    --     84.9126                50.1163                 5.3840

                     16                     17                     18
                      A                      A                      A
 Frequencies --    711.8062               780.5411               785.9536
 Red. masses --      1.8518                 1.9102                 2.5275
 Frc consts  --      0.5528                 0.6857                 0.9199
 IR Inten    --     20.1570                 3.9224                 7.4283

                     19                     20                     21
                      A                      A                      A
 Frequencies --    831.7448               854.3787               878.4180
 Red. masses --      1.9051                 2.0186                 1.9903
 Frc consts  --      0.7765                 0.8682                 0.9048
 IR Inten    --     13.4648                 5.6131                 0.2192

                     22                     23                     24
                      A                      A                      A
 Frequencies --    907.3899               910.6623               914.9913
 Red. masses --      3.0654                 2.3997                 1.4632
 Frc consts  --      1.4871                 1.1725                 0.7218
 IR Inten    --     11.1356                 1.3547                17.8486

                     25                     26                     27
                      A                      A                      A
 Frequencies --    940.9785               944.8788               976.9980
 Red. masses --      2.7614                 2.5305                 2.9337
 Frc consts  --      1.4406                 1.3311                 1.6499
 IR Inten    --      3.4565                 3.4567                 0.1409

                     28                     29                     30
                      A                      A                      A
 Frequencies --   1045.2432              1092.3733              1098.1796
 Red. masses --      1.0619                 1.1642                 2.3413
 Frc consts  --      0.6835                 0.8185                 1.6636
 IR Inten    --      0.6278                 1.1523                13.9291

                     31                     32                     33
                      A                      A                      A
 Frequencies --   1124.2027              1164.4260              1195.6561
 Red. masses --      2.1943                 2.1528                 2.4736
 Frc consts  --      1.6339                 1.7198                 2.0835
 IR Inten    --      1.8148                21.8576                29.2806

                     34                     35                     36
                      A                      A                      A
 Frequencies --   1203.9811              1217.1659              1236.1700
 Red. masses --      1.3573                 1.9362                 1.4347
 Frc consts  --      1.1592                 1.6901                 1.2917
 IR Inten    --      3.1766               174.2017                 8.5754

                     37                     38                     39
                      A                      A                      A
 Frequencies --   1251.7768              1267.7654              1272.8664
 Red. masses --      1.5076                 1.4896                 1.2956
 Frc consts  --      1.3918                 1.4105                 1.2367
 IR Inten    --      1.0501                 3.9401                 0.8487

                     40                     41                     42
                      A                      A                      A
 Frequencies --   1294.5582              1298.8226              1328.1497
 Red. masses --      1.4739                 1.5657                 2.6794
 Frc consts  --      1.4553                 1.5562                 2.7847
 IR Inten    --      0.4330                 0.5858                 0.5079

                     43                     44                     45
                      A                      A                      A
 Frequencies --   1353.3703              1396.7484              1470.5658
 Red. masses --      1.5270                 3.1474                 1.0835
 Frc consts  --      1.6479                 3.6178                 1.3806
 IR Inten    --      4.6198                70.6469                 8.1547

                     46                     47                     48
                      A                      A                      A
 Frequencies --   1489.5142              1504.2302              1514.2584
 Red. masses --      1.1138                 1.0908                 1.0851
 Frc consts  --      1.4560                 1.4542                 1.4659
 IR Inten    --      0.7634                 1.0862                 1.5819

                     49                     50                     51
                      A                      A                      A
 Frequencies --   1536.9473              1747.4817              1820.9160
 Red. masses --      1.1340                 9.8738                 8.8626
 Frc consts  --      1.5783                17.7648                17.3138
 IR Inten    --      0.1234                27.2321               492.9617

                     52                     53                     54
                      A                      A                      A
 Frequencies --   3042.0962              3053.9214              3056.1814
 Red. masses --      1.0604                 1.0649                 1.0578
 Frc consts  --      5.7817                 5.8515                 5.8214
 IR Inten    --     19.4973                 1.8904                68.9118

                     55                     56                     57
                      A                      A                      A
 Frequencies --   3061.9944              3075.5602              3094.6385
 Red. masses --      1.0587                 1.0624                 1.1035
 Frc consts  --      5.8483                 5.9207                 6.2265
 IR Inten    --      8.5316                40.4478                13.9111

                     58                     59                     60
                      A                      A                      A
 Frequencies --   3103.4370              3108.6686              3117.7778
 Red. masses --      1.1064                 1.1083                 1.0989
 Frc consts  --      6.2785                 6.3102                 6.2933
 IR Inten    --     22.1821                19.7543                 7.1824

                     61                     62                     63
                      A                      A                      A
 Frequencies --   3130.6504              3205.6283              3695.6327
 Red. masses --      1.1084                 1.0905                 1.0641
 Frc consts  --      6.4006                 6.6021                 8.5625
 IR Inten    --     61.8253                 3.8883                57.9733

 - Thermochemistry -
 -------------------
 Temperature   298.150 Kelvin.  Pressure   1.00000 Atm.
 Atom     1 has atomic number  6 and mass  12.00000

 Molecular mass:   152.08373 amu.
 Principal axes and moments of inertia in atomic units:
                           1         2         3
     Eigenvalues --   520.708243608.666733775.59228
           X            1.00000  -0.00222  -0.00222
           Y            0.00222   0.99999  -0.00262
           Z            0.00223   0.00262   0.99999
 This molecule is an asymmetric top.
 Rotational symmetry number  1.
 Warning -- assumption of classical behavior for rotation
           may cause significant error
 Rotational temperatures (Kelvin)      0.16634     0.02400     0.02294
 Rotational constants (GHZ):           3.46594     0.50011     0.47800
 Zero-point vibrational energy     509375.7 (Joules/Mol)
                                  121.74371 (Kcal/Mol)
 Warning -- explicit consideration of  13 degrees of freedom as
           vibrations may cause significant error
 Vibrational temperatures:     38.71   100.59   137.48   208.68   223.16
          (Kelvin)            369.67   446.86   493.49   508.30   589.95
                              621.49   767.17   864.31   899.25   997.66
                             1024.13  1123.02  1130.81  1196.70  1229.26
                             1263.85  1305.53  1310.24  1316.47  1353.86
                             1359.47  1405.68  1503.87  1571.68  1580.04
                             1617.48  1675.35  1720.28  1732.26  1751.23
                             1778.57  1801.03  1824.03  1831.37  1862.58
                             1868.72  1910.91  1947.20  2009.61  2115.82
                             2143.08  2164.25  2178.68  2211.32  2514.24
                             2619.89  4376.90  4393.91  4397.16  4405.53
                             4425.05  4452.49  4465.15  4472.68  4485.79
                             4504.31  4612.18  5317.19

 Zero-point correction=                           0.194011 (Hartree/Particle)
 Thermal correction to Energy=                    0.204421
 Thermal correction to Enthalpy=                  0.205365
 Thermal correction to Gibbs Free Energy=         0.156882
 Sum of electronic and zero-point Energies=           -500.417502
 Sum of electronic and thermal Energies=              -500.407092
 Sum of electronic and thermal Enthalpies=            -500.406148
 Sum of electronic and thermal Free Energies=         -500.454632

                     E (Thermal)             CV                S
                      KCal/Mol        Cal/Mol-Kelvin    Cal/Mol-Kelvin
 Total                  128.276             39.484            102.042
 Electronic               0.000              0.000              0.000
 Translational            0.889              2.981             40.968
 Rotational               0.889              2.981             30.340
 Vibrational            126.499             33.522             30.734
 Vibration     1          0.593              1.984              6.045
 Vibration     2          0.598              1.968              4.156
 Vibration     3          0.603              1.952              3.543
 Vibration     4          0.616              1.908              2.736
 Vibration     5          0.620              1.897              2.609
 Vibration     6          0.667              1.751              1.683
 Vibration     7          0.699              1.654              1.359
 Vibration     8          0.722              1.590              1.198
 Vibration     9          0.729              1.569              1.151
 Vibration    10          0.774              1.448              0.926
 Vibration    11          0.793              1.401              0.852
 Vibration    12          0.888              1.177              0.580
 Vibration    13          0.959              1.030              0.448

 Optimization completed.
    -- Stationary point found.

 1\1\GINC-NODE311\Freq\RB3LYP\6-31G(d)\C9H12O2\VSC10255\08-Dec-2020\0\\
 #N Geom=AllCheck Guess=TCheck SCRF=Check GenChk RB3LYP/6-31G(d) Freq\\
 CID_130864775_JID_1884_neutraal\\0,1\C,2.1386067876,-0.3764232088,-0.0
 835594355\C,1.190028177,0.7431600316,-0.5885484686\C,0.0301950818,0.04
 45562538,0.1551663185\C,1.0812907048,-0.7212029685,0.9982109048\C,-1.1
 706185937,0.7657484152,0.8227948334\C,-2.0837466211,-0.296086662,0.243
 5728623\C,-3.3309364147,-0.7167953654,0.4813264781\C,-4.2676697003,-0.
 1071329557,1.4350720239\O,-5.3923109372,-0.5151986351,1.6533828104\O,-

 Normal termination of Gaussian 16 at Tue Dec  8 21:29:33 2020.

 ----------------------------------------------------------------------
 # B3LYP/6-311++G(d,p) empiricaldispersion=gd3bj scf=xqc pop=npa geom=c
 heck
 ----------------------------------------------------------------------

 ---------------------------------------
 CID_130864775_JID_1884_Energie_neutraal
 ---------------------------------------
 Structure from the checkpoint file:  "JID_1884.chk"
 Charge =  0 Multiplicity = 1

 SCF Done:  E(RB3LYP) =  -500.759336982     A.U. after   14 cycles
 Normal termination of Gaussian 16 at Tue Dec  8 21:31:20 2020.

 ----------------------------------------------------------------------
 # B3LYP/6-311++G(d,p) empiricaldispersion=gd3bj scf=xqc pop=npa geom=c
 heck
 ----------------------------------------------------------------------

 -------------------------------------
 CID_130864775_JID_1884_Energie_kation
 -------------------------------------
 Structure from the checkpoint file:  "JID_1884.chk"
 Charge =  1 Multiplicity = 2

 SCF Done:  E(UB3LYP) =  -500.417297960     A.U. after   28 cycles
 Normal termination of Gaussian 16 at Tue Dec  8 21:37:35 2020.
 Gaussian 16:  ES64L-G16RevA.03 25-Dec-2016

 ------------------------------------
 CID_130864775_JID_1884_Energie_anion
 ------------------------------------
 Structure from the checkpoint file:  "JID_1884.chk"
 Charge = -1 Multiplicity = 2

                         Standard orientation:
 ---------------------------------------------------------------------
 Center     Atomic      Atomic             Coordinates (Angstroms)
 Number     Number       Type             X           Y           Z
 ---------------------------------------------------------------------
      1          6           0       -3.664075    0.005938    0.383518
      2          6           0       -2.868296   -0.356551   -0.898520
      3          6           0       -1.562363   -0.077744   -0.121874
      4          6           0       -2.362338   -0.213746    1.198526
      5          6           0       -0.217571   -0.822916   -0.331760
      6          6           0        0.494277    0.512128   -0.243874
      7          6           0        1.753911    0.911345   -0.036623
      8          6           0        2.918559    0.024200    0.087305
      9          8           0        4.055067    0.403552    0.295720
     10          8           0        2.622868   -1.300326   -0.058445
     11          6           0       -0.813054    1.274648   -0.338714
     12          1           0       -4.529555   -0.613308    0.635735
     13          1           0       -3.972750    1.056142    0.385950
     14          1           0       -2.964289   -1.419238   -1.149365
     15          1           0       -3.048218    0.234893   -1.803021
     16          1           0       -2.130463    0.491940    2.003430
     17          1           0       -2.300928   -1.232829    1.596772
     18          1           0        0.064811   -1.574402    0.411345
     19          1           0       -0.127075   -1.280206   -1.325649
     20          1           0        1.991315    1.967142    0.054925
     21          1           0        3.475400   -1.761288    0.047286
     22          1           0       -0.978906    1.691621   -1.341011
     23          1           0       -0.977125    2.069932    0.397499
 ---------------------------------------------------------------------

 SCF Done:  E(UB3LYP) =  -500.752170710     A.U. after   33 cycles
 SCF Done:  E(UB3LYP) =  -500.752170710     a.u. after    1 cycles

 The electronic state is 2-A.
 Alpha  occ. eigenvalues --  -19.02292 -18.95011 -10.13731 -10.05964 -10.05255
 Alpha  occ. eigenvalues --  -10.05065 -10.04802 -10.04243 -10.03678 -10.02907
 Alpha  occ. eigenvalues --  -10.01628  -0.95788  -0.86390  -0.74826  -0.68749
 Alpha  occ. eigenvalues --   -0.60602  -0.54532  -0.54163  -0.50678  -0.47250
 Alpha  occ. eigenvalues --   -0.41357  -0.39658  -0.37101  -0.35703  -0.33726
 Alpha  occ. eigenvalues --   -0.33163  -0.31702  -0.30102  -0.28540  -0.28041
 Alpha  occ. eigenvalues --   -0.26015  -0.25356  -0.24449  -0.22240  -0.19582
 Alpha  occ. eigenvalues --   -0.18838  -0.18416  -0.17709  -0.16916  -0.13163
 Alpha  occ. eigenvalues --   -0.12105   0.05380
 Alpha virt. eigenvalues --    0.07169   0.08897   0.09043   0.09632   0.10236
 Alpha virt. eigenvalues --    0.11368   0.11954   0.12213   0.12614   0.13728
 Alpha virt. eigenvalues --    0.14130   0.15471   0.16132   0.17126   0.17749

  Beta  occ. eigenvalues --  -19.02238 -18.94766 -10.13525 -10.05956 -10.05224
  Beta  occ. eigenvalues --  -10.05050 -10.04788 -10.04281 -10.03718 -10.02420
  Beta  occ. eigenvalues --  -10.01611  -0.95554  -0.86032  -0.74655  -0.68355
  Beta  occ. eigenvalues --   -0.60289  -0.54483  -0.54079  -0.50394  -0.47025
  Beta  occ. eigenvalues --   -0.41100  -0.39351  -0.36924  -0.35656  -0.33532
  Beta  occ. eigenvalues --   -0.32698  -0.31459  -0.29228  -0.28371  -0.27932
  Beta  occ. eigenvalues --   -0.25825  -0.25210  -0.24377  -0.22090  -0.19403
  Beta  occ. eigenvalues --   -0.18707  -0.17587  -0.17495  -0.16770  -0.12918
  Beta  occ. eigenvalues --   -0.10611
  Beta virt. eigenvalues --    0.07815   0.09093   0.09465   0.09555   0.10394
  Beta virt. eigenvalues --    0.10998   0.11514   0.12197   0.12332   0.12850
  Beta virt. eigenvalues --    0.13792   0.14357   0.15572   0.16130   0.17042

 Mulliken charges and spin densities:
               1          2
     1  C    0.834031  -1.046140
     2  C   -0.601809   0.070534
     3  C    0.925281   0.668980
     4  C   -0.371779  -0.225244
     5  C   -0.990418  -0.256063
     6  C    0.903350   0.410066
     7  C   -0.316629   0.004756
     8  C    0.046640   0.087950
     9  O   -0.411920   0.074887
    10  O   -0.253975   0.009622
    11  C   -0.796121  -0.648957
    12  H   -0.606455   0.752126
    13  H   -0.041845   0.142364
    14  H    0.061820   0.065006
    15  H    0.048471   0.074081
    16  H   -0.018458   0.165916
    17  H   -0.064407   0.183833
    18  H    0.067714   0.123708
    19  H    0.158904   0.019376
    20  H    0.143016   0.010074
    21  H    0.266805   0.000616
    22  H    0.192725  -0.029428
    23  H   -0.174940   0.341936
 Sum of Mulliken charges =  -1.00000   1.00000

 Dipole moment (field-independent basis, Debye):
    X=              0.4595    Y=             -1.1284    Z=             -2.2063  Tot=              2.5204
 Quadrupole moment (field-independent basis, Debye-Ang):
   XX=           -144.4369   YY=            -83.1051   ZZ=            -81.5739
   XY=            -11.6953   XZ=              4.1527   YZ=             -1.0961

 Summary of Natural Population Analysis:

                                       Natural Population
                Natural  -----------------------------------------------
    Atom  No    Charge         Core      Valence    Rydberg      Total
 -----------------------------------------------------------------------
      C    1   -0.19149      0.99965     2.18256    0.00927     3.19149
      C    2   -0.18305      0.99959     2.17502    0.00844     3.18305
      C    3   -0.03555      0.99959     2.02338    0.01259     3.03555
      C    4   -0.18129      0.99959     2.17317    0.00852     3.18129
      C    5   -0.20506      0.99957     2.19714    0.00835     3.20506
      C    6    0.12498      0.99955     1.86440    0.01107     2.87502
      C    7   -0.18843      0.99939     2.17816    0.01088     3.18843
      C    8    0.41276      0.99969     1.56439    0.02316     2.58724
      O    9   -0.31335      0.99987     3.30678    0.00670     4.31335
      O   10   -0.35553      0.99988     3.34918    0.00647     4.35553
      C   11   -0.20205      0.99957     2.19475    0.00773     3.20205
      H   12    0.09485      0.00000     0.40257    0.00259     0.40515
      H   13    0.09392      0.00000     0.40459    0.00148     0.40608
      H   14    0.09530      0.00000     0.40376    0.00094     0.40470
      H   15    0.09265      0.00000     0.40650    0.00085     0.40735
      H   16    0.09659      0.00000     0.40244    0.00097     0.40341
      H   17    0.09548      0.00000     0.40341    0.00111     0.40452
      H   18    0.10970      0.00000     0.38911    0.00119     0.39030
      H   19    0.10667      0.00000     0.39236    0.00096     0.39333
      H   20    0.09968      0.00000     0.39955    0.00077     0.40032
      H   21    0.22758      0.00000     0.26732    0.00511     0.27242
      H   22    0.10200      0.00000     0.39700    0.00100     0.39800
      H   23    0.10366      0.00000     0.39519    0.00114     0.39634
 =======================================================================
   * Total *   -0.00000     10.99594    29.87276    0.13130    41.00000

 Normal termination of Gaussian 16 at Tue Dec  8 21:43:52 2020.
