 Gaussian 16, Revision A.03,

 -----------------------------------------------------------
 # opt freq B3LYP/6-31G(d) empiricaldispersion=gd3bj scf=xqc
 -----------------------------------------------------------

 ------------------------------
 CID_81051167_JID_9950_neutraal
 ------------------------------
 Symbolic Z-matrix:
 Charge =  0 Multiplicity = 1

 SCF Done:  E(RB3LYP) =  -1145.54058216     A.U. after   15 cycles
 SCF Done:  E(RB3LYP) =  -1145.54696211     A.U. after   12 cycles
 SCF Done:  E(RB3LYP) =  -1145.54792512     A.U. after   12 cycles
 SCF Done:  E(RB3LYP) =  -1145.54831544     A.U. after   12 cycles
 SCF Done:  E(RB3LYP) =  -1145.54844116     A.U. after   11 cycles
 SCF Done:  E(RB3LYP) =  -1145.54856785     A.U. after   11 cycles
 SCF Done:  E(RB3LYP) =  -1145.54868584     A.U. after   11 cycles
 SCF Done:  E(RB3LYP) =  -1145.54870569     A.U. after   11 cycles
 SCF Done:  E(RB3LYP) =  -1145.54872179     A.U. after    9 cycles
 SCF Done:  E(RB3LYP) =  -1145.54872909     A.U. after   10 cycles
 SCF Done:  E(RB3LYP) =  -1145.54900562     A.U. after   11 cycles
 SCF Done:  E(RB3LYP) =  -1145.54910097     A.U. after   11 cycles
 SCF Done:  E(RB3LYP) =  -1145.54910666     A.U. after    9 cycles
 SCF Done:  E(RB3LYP) =  -1145.54910723     A.U. after    9 cycles
 Optimization completed.
    -- Stationary point found.
 Normal termination of Gaussian 16 at Mon Dec 14 17:43:28 2020.

 --------------------------------------------------------------------
 #N Geom=AllCheck Guess=TCheck SCRF=Check GenChk RB3LYP/6-31G(d) Freq
 --------------------------------------------------------------------

 Structure from the checkpoint file:  "JID_9950.chk"
 ------------------------------
 CID_81051167_JID_9950_neutraal
 ------------------------------
 Charge =  0 Multiplicity = 1

 SCF Done:  E(RB3LYP) =  -1145.54910723     A.U. after    1 cycles

  Exact polarizability: 247.442  -8.542 176.838  -9.263 -11.672 144.666
 Approx polarizability: 340.475  -9.008 274.063 -22.672 -27.045 244.032

                      1                      2                      3
                      A                      A                      A
 Frequencies --     30.6682                37.0698                61.1520
 Red. masses --      4.3383                 4.1117                 1.5970
 Frc consts  --      0.0024                 0.0033                 0.0035
 IR Inten    --      0.2188                 1.2177                 0.1488

                      4                      5                      6
                      A                      A                      A
 Frequencies --     66.6865                81.4025                98.0266
 Red. masses --      1.8207                 3.4040                 3.2619
 Frc consts  --      0.0048                 0.0133                 0.0185
 IR Inten    --      1.3249                 0.1987                 1.0448

                      7                      8                      9
                      A                      A                      A
 Frequencies --    144.8757               153.2630               173.4837
 Red. masses --      3.9823                 1.1389                 3.0221
 Frc consts  --      0.0492                 0.0158                 0.0536
 IR Inten    --      0.9370                 0.9202                 1.6634

                     10                     11                     12
                      A                      A                      A
 Frequencies --    197.1348               212.9545               224.8092
 Red. masses --      4.0529                 3.1876                 3.1148
 Frc consts  --      0.0928                 0.0852                 0.0927
 IR Inten    --      0.0281                 3.6477                 4.7858

                     13                     14                     15
                      A                      A                      A
 Frequencies --    245.8708               271.8004               280.4007
 Red. masses --      3.7892                 1.4685                 2.4493
 Frc consts  --      0.1350                 0.0639                 0.1135
 IR Inten    --      3.2648                33.1956                 9.3824

                     16                     17                     18
                      A                      A                      A
 Frequencies --    292.8805               302.9262               334.8317
 Red. masses --      2.5029                 2.6655                 2.0966
 Frc consts  --      0.1265                 0.1441                 0.1385
 IR Inten    --      0.5658                 2.6437                11.3317

                     19                     20                     21
                      A                      A                      A
 Frequencies --    378.8910               386.6772               440.0686
 Red. masses --      3.9024                 2.7404                 4.4307
 Frc consts  --      0.3301                 0.2414                 0.5055
 IR Inten    --      0.5951                 0.9068                 0.7008

                     22                     23                     24
                      A                      A                      A
 Frequencies --    454.3108               485.6317               514.7445
 Red. masses --      3.8524                 4.8907                 4.1075
 Frc consts  --      0.4685                 0.6796                 0.6412
 IR Inten    --      3.6162                 1.5392                 3.3555

                     25                     26                     27
                      A                      A                      A
 Frequencies --    543.0105               560.8585               583.9489
 Red. masses --      6.8429                 3.1164                 4.8225
 Frc consts  --      1.1888                 0.5776                 0.9689
 IR Inten    --      0.9897                 9.0590                 4.1838

                     28                     29                     30
                      A                      A                      A
 Frequencies --    598.4932               608.5941               639.6322
 Red. masses --      3.2917                 3.1672                 4.6128
 Frc consts  --      0.6947                 0.6912                 1.1119
 IR Inten    --      6.4867                 0.0737                 3.8065

                     31                     32                     33
                      A                      A                      A
 Frequencies --    665.3135               691.2029               711.7102
 Red. masses --      3.9988                 4.5545                 1.4198
 Frc consts  --      1.0429                 1.2821                 0.4237
 IR Inten    --      2.5502                16.7807                28.6681

                     34                     35                     36
                      A                      A                      A
 Frequencies --    742.2386               761.2948               795.5482
 Red. masses --      3.7967                 3.5400                 3.6630
 Frc consts  --      1.2324                 1.2088                 1.3659
 IR Inten    --      4.2696                 6.2770                 9.4989

                     37                     38                     39
                      A                      A                      A
 Frequencies --    831.5095               849.7803               873.4869
 Red. masses --      3.0405                 3.0556                 1.3723
 Frc consts  --      1.2386                 1.3000                 0.6169
 IR Inten    --      8.6941                33.4180                 6.6654

                     40                     41                     42
                      A                      A                      A
 Frequencies --    879.7164               881.0158               928.2007
 Red. masses --      1.6564                 1.2633                 2.4825
 Frc consts  --      0.7553                 0.5777                 1.2602
 IR Inten    --     70.4548                 2.4909                 3.8014

                     43                     44                     45
                      A                      A                      A
 Frequencies --    964.8037               989.0307              1005.9957
 Red. masses --      2.2740                 2.5778                 2.1200
 Frc consts  --      1.2472                 1.4857                 1.2641
 IR Inten    --     46.9966                11.0279                11.7994

                     46                     47                     48
                      A                      A                      A
 Frequencies --   1010.3281              1027.1853              1041.3585
 Red. masses --      1.8944                 2.2638                 2.7389
 Frc consts  --      1.1393                 1.4073                 1.7500
 IR Inten    --     15.4162                29.4653                16.5470

                     49                     50                     51
                      A                      A                      A
 Frequencies --   1053.2659              1061.3760              1069.0017
 Red. masses --      2.3508                 1.6842                 1.5579
 Frc consts  --      1.5365                 1.1178                 1.0489
 IR Inten    --      6.0083                 2.7159                 8.8565

                     52                     53                     54
                      A                      A                      A
 Frequencies --   1080.4501              1082.5069              1110.9540
 Red. masses --      1.6097                 1.9045                 1.3133
 Frc consts  --      1.1071                 1.3149                 0.9550
 IR Inten    --      0.2550                12.3852                 6.7665

                     55                     56                     57
                      A                      A                      A
 Frequencies --   1132.6069              1169.6819              1185.1450
 Red. masses --      2.1836                 3.3199                 3.1564
 Frc consts  --      1.6504                 2.6761                 2.6121
 IR Inten    --     12.9005                 6.9968                 3.9819

                     58                     59                     60
                      A                      A                      A
 Frequencies --   1188.0860              1208.6163              1227.8772
 Red. masses --      1.5774                 2.3071                 1.1481
 Frc consts  --      1.3119                 1.9856                 1.0199
 IR Inten    --     16.8855                42.9389                 2.0080

                     61                     62                     63
                      A                      A                      A
 Frequencies --   1245.3068              1251.1631              1272.1438
 Red. masses --      1.5828                 1.5710                 1.4359
 Frc consts  --      1.4462                 1.4490                 1.3692
 IR Inten    --      8.0002                 7.1391                22.3686

                     64                     65                     66
                      A                      A                      A
 Frequencies --   1300.0210              1318.3074              1351.4067
 Red. masses --      2.8618                 1.7847                 1.4506
 Frc consts  --      2.8496                 1.8275                 1.5609
 IR Inten    --      1.5125                12.0763                 6.7157

                     67                     68                     69
                      A                      A                      A
 Frequencies --   1363.1551              1380.3715              1393.7623
 Red. masses --      1.5571                 2.0505                 1.6313
 Frc consts  --      1.7048                 2.3020                 1.8671
 IR Inten    --      7.9783                15.7625                21.2461

                     70                     71                     72
                      A                      A                      A
 Frequencies --   1415.7361              1423.2619              1439.5607
 Red. masses --      1.6467                 1.5841                 1.4890
 Frc consts  --      1.9446                 1.8906                 1.8181
 IR Inten    --     18.9593                11.2134                11.7068

                     73                     74                     75
                      A                      A                      A
 Frequencies --   1443.0493              1446.8451              1451.8006
 Red. masses --      2.3212                 1.5528                 2.4129
 Frc consts  --      2.8479                 1.9152                 2.9964
 IR Inten    --     24.6997                15.6241                43.6359

                     76                     77                     78
                      A                      A                      A
 Frequencies --   1486.8106              1502.9895              1505.8389
 Red. masses --      2.5211                 1.4367                 1.0461
 Frc consts  --      3.2837                 1.9121                 1.3977
 IR Inten    --      6.6482                 6.4967                 4.7262

                     79                     80                     81
                      A                      A                      A
 Frequencies --   1511.8130              1512.8691              1520.7976
 Red. masses --      1.1084                 2.5064                 1.1091
 Frc consts  --      1.4927                 3.3799                 1.5113
 IR Inten    --      9.5631                 1.8872                21.7397

                     82                     83                     84
                      A                      A                      A
 Frequencies --   1523.2673              1528.7807              1533.3559
 Red. masses --      1.1088                 1.2070                 1.1058
 Frc consts  --      1.5158                 1.6621                 1.5318
 IR Inten    --      8.2364                28.8408                20.3703

                     85                     86                     87
                      A                      A                      A
 Frequencies --   1539.3751              1619.9670              1630.0291
 Red. masses --      1.1408                 7.9219                 6.2882
 Frc consts  --      1.5927                12.2487                 9.8439
 IR Inten    --      3.9274                96.8371                 4.2208

                     88                     89                     90
                      A                      A                      A
 Frequencies --   1639.5359              1689.6714              2934.9690
 Red. masses --      5.5643                 1.0929                 1.0747
 Frc consts  --      8.8126                 1.8384                 5.4546
 IR Inten    --    195.0782                19.0410                48.8871

                     91                     92                     93
                      A                      A                      A
 Frequencies --   2959.6834              3040.4462              3042.0432
 Red. masses --      1.0725                 1.0611                 1.0472
 Frc consts  --      5.5353                 5.7793                 5.7096
 IR Inten    --     55.6033                31.6314                16.3503

                     94                     95                     96
                      A                      A                      A
 Frequencies --   3047.5076              3054.4424              3078.8125
 Red. masses --      1.0566                 1.0359                 1.1023
 Frc consts  --      5.7815                 5.6939                 6.1562
 IR Inten    --     50.2542                23.2062                56.7905

                     97                     98                     99
                      A                      A                      A
 Frequencies --   3079.5109              3090.7631              3114.1733
 Red. masses --      1.1039                 1.0865                 1.1001
 Frc consts  --      6.1679                 6.1154                 6.2862
 IR Inten    --     15.0435                 8.8768                10.5399

                    100                    101                    102
                      A                      A                      A
 Frequencies --   3114.4113              3117.5718              3134.4564
 Red. masses --      1.0885                 1.0907                 1.1033
 Frc consts  --      6.2204                 6.2460                 6.3864
 IR Inten    --     11.7192                25.3485                18.4259

                    103                    104                    105
                      A                      A                      A
 Frequencies --   3165.5788              3209.5283              3213.6035
 Red. masses --      1.1032                 1.0904                 1.0911
 Frc consts  --      6.5134                 6.6180                 6.6389
 IR Inten    --      7.7458                10.8030                 7.0742

                    106                    107                    108
                      A                      A                      A
 Frequencies --   3272.6242              3455.0071              3543.5081
 Red. masses --      1.0966                 1.0496                 1.0926
 Frc consts  --      6.9196                 7.3818                 8.0829
 IR Inten    --      0.9083                 4.5269                 1.0627

 - Thermochemistry -
 -------------------
 Temperature   298.150 Kelvin.  Pressure   1.00000 Atm.
 Atom     1 has atomic number  6 and mass  12.00000

 Molecular mass:   273.12997 amu.
 Principal axes and moments of inertia in atomic units:
                           1         2         3
     Eigenvalues --  2590.286229919.52796**********
           X            1.00000  -0.00063   0.00120
           Y            0.00064   0.99996  -0.00907
           Z           -0.00119   0.00907   0.99996
 This molecule is an asymmetric top.
 Rotational symmetry number  1.
 Warning -- assumption of classical behavior for rotation
           may cause significant error
 Rotational temperatures (Kelvin)      0.03344     0.00873     0.00780
 Rotational constants (GHZ):           0.69673     0.18194     0.16252
 Zero-point vibrational energy     840580.1 (Joules/Mol)
                                  200.90347 (Kcal/Mol)
 Warning -- explicit consideration of  29 degrees of freedom as
           vibrations may cause significant error
 Vibrational temperatures:     44.12    53.34    87.98    95.95   117.12
          (Kelvin)            141.04   208.44   220.51   249.60   283.63
                              306.39   323.45   353.75   391.06   403.43
                              421.39   435.84   481.75   545.14   556.34
                              633.16   653.65   698.72   740.60   781.27
                              806.95   840.17   861.10   875.63   920.29
                              957.24   994.49  1023.99  1067.92  1095.33
                             1144.62  1196.36  1222.64  1256.75  1265.72
                             1267.59  1335.47  1388.14  1422.99  1447.40
                             1453.64  1477.89  1498.28  1515.41  1527.08
                             1538.05  1554.53  1557.49  1598.42  1629.57
                             1682.91  1705.16  1709.39  1738.93  1766.64
                             1791.72  1800.14  1830.33  1870.44  1896.75
                             1944.37  1961.28  1986.05  2005.31  2036.93
                             2047.76  2071.21  2076.23  2081.69  2088.82
                             2139.19  2162.47  2166.57  2175.16  2176.68
                             2188.09  2191.64  2199.57  2206.16  2214.82
                             2330.77  2345.25  2358.93  2431.06  4222.77
                             4258.32  4374.52  4376.82  4384.68  4394.66
                             4429.72  4430.73  4446.92  4480.60  4480.94
                             4485.49  4509.78  4554.56  4617.80  4623.66
                             4708.58  4970.98  5098.32

 Zero-point correction=                           0.320160 (Hartree/Particle)
 Thermal correction to Energy=                    0.338285
 Thermal correction to Enthalpy=                  0.339229
 Thermal correction to Gibbs Free Energy=         0.273241
 Sum of electronic and zero-point Energies=          -1145.228947
 Sum of electronic and thermal Energies=             -1145.210822
 Sum of electronic and thermal Enthalpies=           -1145.209878
 Sum of electronic and thermal Free Energies=        -1145.275867

                     E (Thermal)             CV                S
                      KCal/Mol        Cal/Mol-Kelvin    Cal/Mol-Kelvin
 Total                  212.277             69.627            138.884
 Electronic               0.000              0.000              0.000
 Translational            0.889              2.981             42.713
 Rotational               0.889              2.981             34.011
 Vibrational            210.500             63.665             62.160
 Vibration     1          0.594              1.984              5.786
 Vibration     2          0.594              1.982              5.410
 Vibration     3          0.597              1.973              4.420
 Vibration     4          0.598              1.970              4.249
 Vibration     5          0.600              1.962              3.857
 Vibration     6          0.603              1.951              3.493
 Vibration     7          0.616              1.908              2.738
 Vibration     8          0.619              1.899              2.631
 Vibration     9          0.627              1.875              2.397
 Vibration    10          0.637              1.844              2.160
 Vibration    11          0.644              1.821              2.018
 Vibration    12          0.649              1.803              1.920
 Vibration    13          0.660              1.770              1.760
 Vibration    14          0.675              1.725              1.585
 Vibration    15          0.680              1.710              1.531
 Vibration    16          0.688              1.687              1.457
 Vibration    17          0.694              1.668              1.401
 Vibration    18          0.716              1.606              1.237
 Vibration    19          0.749              1.515              1.044
 Vibration    20          0.755              1.499              1.013
 Vibration    21          0.800              1.383              0.826
 Vibration    22          0.813              1.351              0.783
 Vibration    23          0.842              1.282              0.695
 Vibration    24          0.870              1.217              0.622
 Vibration    25          0.898              1.155              0.559
 Vibration    26          0.917              1.116              0.522
 Vibration    27          0.941              1.066              0.478
 Vibration    28          0.956              1.035              0.452
 Vibration    29          0.967              1.014              0.435

                           ! Non-Optimized Parameters !
 Normal termination of Gaussian 16 at Mon Dec 14 18:02:09 2020.

 ----------------------------------------------------------------------
 # B3LYP/6-311++G(d,p) empiricaldispersion=gd3bj scf=xqc pop=npa geom=c
 heck
 ----------------------------------------------------------------------

 --------------------------------------
 CID_81051167_JID_9950_Energie_neutraal
 --------------------------------------
 Structure from the checkpoint file:  "JID_9950.chk"
 Charge =  0 Multiplicity = 1

 SCF Done:  E(RB3LYP) =  -1145.77529688     A.U. after   16 cycles
 Normal termination of Gaussian 16 at Mon Dec 14 18:10:37 2020.

 ----------------------------------------------------------------------
 # B3LYP/6-311++G(d,p) empiricaldispersion=gd3bj scf=xqc pop=npa geom=c
 heck
 ----------------------------------------------------------------------

 ------------------------------------
 CID_81051167_JID_9950_Energie_kation
 ------------------------------------
 Structure from the checkpoint file:  "JID_9950.chk"
 Charge =  1 Multiplicity = 2

 SCF Done:  E(UB3LYP) =  -1145.49043078     A.U. after   33 cycles
 SCF Done:  E(UB3LYP) =  -1145.49043078     a.u. after    1 cycles
 Normal termination of Gaussian 16 at Mon Dec 14 18:33:52 2020.
 Gaussian 16:  ES64L-G16RevA.03 25-Dec-2016

 ----------------------------------------------------------------------
 # B3LYP/6-311++G(d,p) empiricaldispersion=gd3bj scf=xqc pop=npa geom=c
 heck
 ----------------------------------------------------------------------

 -----------------------------------
 CID_81051167_JID_9950_Energie_anion
 -----------------------------------
 Structure from the checkpoint file:  "JID_9950.chk"
 Charge = -1 Multiplicity = 2

                         Standard orientation:
 ---------------------------------------------------------------------
 Center     Atomic      Atomic             Coordinates (Angstroms)
 Number     Number       Type             X           Y           Z
 ---------------------------------------------------------------------
      1          6           0        4.067751   -2.831922   -0.294368
      2          6           0        3.268344   -1.556444   -0.215552
      3          6           0        1.888009   -1.570503   -0.028379
      4          6           0        1.191988   -0.357651    0.046067
      5          6           0        1.912702    0.842674   -0.063645
      6          6           0        3.304798    0.752583   -0.270915
      7          7           0        3.960587   -0.413724   -0.346897
      8          6           0        4.147903    1.994097   -0.413232
      9          6           0        1.247121    2.185865    0.137409
     10          7           0        1.662366    2.756349    1.434046
     11          7           0       -0.220552   -0.316510    0.226987
     12          6           0       -0.811238   -1.396992    1.017872
     13          6           0       -2.172506   -0.940967    1.561360
     14          6           0       -2.970105   -0.367894    0.428581
     15          6           0       -2.429081    0.027495   -0.764967
     16          6           0       -0.953137   -0.094574   -1.028974
     17          6           0       -3.407930    0.529168   -1.682294
     18          6           0       -4.672307    0.512548   -1.167017
     19         16           0       -4.696203   -0.121858    0.453683
     20          1           0        4.624079   -2.874913   -1.237035
     21          1           0        4.807081   -2.867619    0.513950
     22          1           0        3.429019   -3.717338   -0.221772
     23          1           0        1.360032   -2.515006    0.047187
     24          1           0        3.990026    2.662646    0.438203
     25          1           0        5.198954    1.707811   -0.480595
     26          1           0        3.880166    2.551752   -1.321029
     27          1           0        1.568973    2.884011   -0.644577
     28          1           0        0.159830    2.075374    0.052956
     29          1           0        1.199962    3.655482    1.566316
     30          1           0        1.317353    2.147771    2.175450
     31          1           0       -0.949172   -2.319720    0.425864
     32          1           0       -0.134311   -1.629237    1.843879
     33          1           0       -2.687596   -1.791444    2.024542
     34          1           0       -2.017633   -0.188048    2.345342
     35          1           0       -0.571303    0.816013   -1.501228
     36          1           0       -0.762126   -0.919429   -1.742387
     37          1           0       -3.173167    0.888208   -2.679059
     38          1           0       -5.591619    0.835707   -1.635578
 ---------------------------------------------------------------------

 SCF Done:  E(UB3LYP) =  -1145.76541377     A.U. after   33 cycles
 SCF Done:  E(UB3LYP) =  -1145.76541377     a.u. after    1 cycles

 The electronic state is 2-A.
 Alpha  occ. eigenvalues --  -88.78067 -14.22409 -14.19518 -14.18879 -10.11463
 Alpha  occ. eigenvalues --  -10.11405 -10.10884 -10.10696 -10.10669 -10.10570
 Alpha  occ. eigenvalues --  -10.10458 -10.09204 -10.08684 -10.08606 -10.08469
 Alpha  occ. eigenvalues --  -10.07332 -10.07193 -10.07049 -10.05816  -7.86684
 Alpha  occ. eigenvalues --   -5.82973  -5.82612  -5.82281  -0.85756  -0.83495
 Alpha  occ. eigenvalues --   -0.78877  -0.77951  -0.70677  -0.69432  -0.68183
 Alpha  occ. eigenvalues --   -0.65631  -0.62776  -0.62293  -0.60302  -0.56258
 Alpha  occ. eigenvalues --   -0.54629  -0.53483  -0.48973  -0.48560  -0.46733
 Alpha  occ. eigenvalues --   -0.42322  -0.41535  -0.40993  -0.40200  -0.38376
 Alpha  occ. eigenvalues --   -0.37445  -0.35798  -0.34837  -0.33985  -0.33349
 Alpha  occ. eigenvalues --   -0.33128  -0.32221  -0.31979  -0.31188  -0.30896
 Alpha  occ. eigenvalues --   -0.30019  -0.29925  -0.29029  -0.28286  -0.28243
 Alpha  occ. eigenvalues --   -0.27014  -0.26556  -0.25733  -0.25400  -0.24718
 Alpha  occ. eigenvalues --   -0.24086  -0.18692  -0.15899  -0.15607  -0.14590
 Alpha  occ. eigenvalues --   -0.14163  -0.13619  -0.12548   0.04182
 Alpha virt. eigenvalues --    0.06318   0.06468   0.06750   0.07133   0.07624
 Alpha virt. eigenvalues --    0.07722   0.08156   0.08777   0.08953   0.09462
 Alpha virt. eigenvalues --    0.09882   0.10282   0.10865   0.11274   0.11500

  Beta  occ. eigenvalues --  -88.78059 -14.22412 -14.19505 -14.18826 -10.11414
  Beta  occ. eigenvalues --  -10.11387 -10.10882 -10.10649 -10.10625 -10.10529
  Beta  occ. eigenvalues --  -10.10412 -10.09193 -10.08661 -10.08599 -10.08465
  Beta  occ. eigenvalues --  -10.07302 -10.07188 -10.07057 -10.05811  -7.86677
  Beta  occ. eigenvalues --   -5.82968  -5.82608  -5.82259  -0.85717  -0.83446
  Beta  occ. eigenvalues --   -0.78821  -0.77861  -0.70607  -0.69362  -0.68131
  Beta  occ. eigenvalues --   -0.65575  -0.62730  -0.62256  -0.60254  -0.56203
  Beta  occ. eigenvalues --   -0.54560  -0.53433  -0.48913  -0.48504  -0.46673
  Beta  occ. eigenvalues --   -0.42266  -0.41481  -0.40956  -0.40143  -0.38310
  Beta  occ. eigenvalues --   -0.37393  -0.35753  -0.34787  -0.33906  -0.33295
  Beta  occ. eigenvalues --   -0.33062  -0.32161  -0.31938  -0.31159  -0.30839
  Beta  occ. eigenvalues --   -0.29967  -0.29888  -0.28988  -0.28249  -0.28223
  Beta  occ. eigenvalues --   -0.26954  -0.26478  -0.25638  -0.25348  -0.24672
  Beta  occ. eigenvalues --   -0.24042  -0.18523  -0.15803  -0.15572  -0.14463
  Beta  occ. eigenvalues --   -0.14072  -0.13418  -0.12490
  Beta virt. eigenvalues --    0.06234   0.06585   0.06981   0.07174   0.07572
  Beta virt. eigenvalues --    0.07864   0.08089   0.08242   0.08974   0.09238
  Beta virt. eigenvalues --    0.09770   0.10206   0.10480   0.11047   0.11260

 Mulliken charges and spin densities:
               1          2
     1  C    0.292457  -0.862382
     2  C   -1.224763   1.166678
     3  C    0.067244  -0.221020
     4  C    0.240932  -0.355096
     5  C   -0.054720   0.900875
     6  C   -1.078649   0.474582
     7  N    0.033053   0.047096
     8  C   -0.419216  -0.138386
     9  C    0.985178  -2.031342
    10  N   -0.466015   0.141004
    11  N    0.496475   0.147882
    12  C   -0.263210   0.555580
    13  C    2.228043  -3.092240
    14  C   -0.326174   1.289216
    15  C    0.295122   0.685593
    16  C   -0.416159  -1.338748
    17  C   -0.367494  -0.159217
    18  C   -0.051076   0.218506
    19  S   -0.353287  -0.312047
    20  H    0.075738   0.079263
    21  H    0.118822   0.034718
    22  H   -0.107217   0.240512
    23  H   -0.282644   0.460972
    24  H    0.177055   0.037220
    25  H    0.095565   0.059332
    26  H    0.113839   0.023978
    27  H   -0.176376   0.350842
    28  H   -0.020123   0.160199
    29  H   -0.133991   0.355792
    30  H    0.010355   0.218410
    31  H   -0.005013   0.119307
    32  H   -0.117962   0.287845
    33  H   -0.188106   0.369162
    34  H   -0.259469   0.452408
    35  H    0.299424  -0.113471
    36  H   -0.075540   0.233857
    37  H   -0.216802   0.354794
    38  H    0.074704   0.158327
 Sum of Mulliken charges =  -1.00000   1.00000

 Dipole moment (field-independent basis, Debye):
    X=             -1.9534    Y=             -1.6809    Z=             -3.0873  Tot=              4.0215
 Quadrupole moment (field-independent basis, Debye-Ang):
   XX=           -188.9361   YY=           -170.9234   ZZ=           -156.5261
   XY=             -2.5465   XZ=              1.7825   YZ=             -7.3056

 Summary of Natural Population Analysis:

                                       Natural Population
                Natural  -----------------------------------------------
    Atom  No    Charge         Core      Valence    Rydberg      Total
 -----------------------------------------------------------------------
      C    1   -0.29575      0.99964     2.29089    0.00522     3.29575
      C    2    0.12133      0.99955     1.86540    0.01371     2.87867
      C    3   -0.14623      0.99945     2.13880    0.00797     3.14623
      C    4    0.12172      0.99943     1.86673    0.01212     2.87828
      C    5   -0.04682      0.99941     2.03655    0.01086     3.04682
      C    6    0.12741      0.99951     1.86028    0.01280     2.87259
      N    7   -0.25728      0.99965     2.74694    0.01069     3.75728
      C    8   -0.30606      0.99963     2.30159    0.00484     3.30606
      C    9   -0.10007      0.99960     2.08816    0.01231     3.10007
      N   10   -0.42150      0.99977     2.91134    0.01039     3.92150
      N   11   -0.27921      0.99967     2.76579    0.01375     3.77921
      C   12   -0.07891      0.99962     2.06710    0.01219     3.07891
      C   13   -0.20392      0.99957     2.19382    0.01053     3.20392
      C   14   -0.08431      0.99939     2.07189    0.01303     3.08431
      C   15   -0.05234      0.99940     2.04261    0.01034     3.05234
      C   16   -0.07837      0.99955     2.06999    0.00882     3.07837
      C   17   -0.12020      0.99949     2.11103    0.00968     3.12020
      C   18   -0.18971      0.99954     2.17896    0.01121     3.18971
      S   19    0.20214      4.99941     2.77792    0.02053     7.79786
      H   20    0.10558      0.00000     0.39321    0.00122     0.39442
      H   21    0.10497      0.00000     0.39395    0.00108     0.39503
      H   22    0.09852      0.00000     0.40068    0.00080     0.40148
      H   23    0.10531      0.00000     0.39340    0.00130     0.39469
      H   24    0.11838      0.00000     0.38008    0.00154     0.38162
      H   25    0.10548      0.00000     0.39344    0.00108     0.39452
      H   26    0.09957      0.00000     0.39929    0.00113     0.40043
      H   27    0.09260      0.00000     0.40590    0.00150     0.40740
      H   28    0.09404      0.00000     0.40344    0.00252     0.40596
      H   29    0.17631      0.00000     0.32055    0.00314     0.32369
      H   30    0.17591      0.00000     0.32172    0.00237     0.32409
      H   31    0.08356      0.00000     0.41455    0.00189     0.41644
      H   32    0.10538      0.00000     0.39309    0.00153     0.39462
      H   33    0.10435      0.00000     0.39450    0.00115     0.39565
      H   34    0.11094      0.00000     0.38645    0.00261     0.38906
      H   35    0.10416      0.00000     0.39424    0.00160     0.39584
      H   36    0.09097      0.00000     0.40751    0.00152     0.40903
      H   37    0.10571      0.00000     0.39329    0.00100     0.39429
      H   38    0.10633      0.00000     0.39294    0.00074     0.39367
 =======================================================================
   * Total *   -0.00000     22.99127    49.76801    0.24071    73.00000

 Normal termination of Gaussian 16 at Mon Dec 14 18:57:35 2020.
