 Gaussian 16, Revision A.03,

 -----------------------------------------------------------
 # opt freq B3LYP/6-31G(d) empiricaldispersion=gd3bj scf=xqc
 -----------------------------------------------------------

 -------------------------------
 CID_102405570_JID_8675_neutraal
 -------------------------------
 Symbolic Z-matrix:
 Charge =  0 Multiplicity = 1

 SCF Done:  E(RB3LYP) =  -698.035811367     A.U. after   14 cycles
 SCF Done:  E(RB3LYP) =  -698.038816793     A.U. after   12 cycles
 SCF Done:  E(RB3LYP) =  -698.039302099     A.U. after   12 cycles
 SCF Done:  E(RB3LYP) =  -698.039557965     A.U. after   12 cycles
 SCF Done:  E(RB3LYP) =  -698.039618604     A.U. after   11 cycles
 SCF Done:  E(RB3LYP) =  -698.039680977     A.U. after   11 cycles
 SCF Done:  E(RB3LYP) =  -698.039733227     A.U. after   12 cycles
 SCF Done:  E(RB3LYP) =  -698.039741194     A.U. after   10 cycles
 SCF Done:  E(RB3LYP) =  -698.039747545     A.U. after   10 cycles
 SCF Done:  E(RB3LYP) =  -698.039749904     A.U. after   10 cycles
 SCF Done:  E(RB3LYP) =  -698.041050795     A.U. after   11 cycles
 SCF Done:  E(RB3LYP) =  -698.041072420     A.U. after   11 cycles
 SCF Done:  E(RB3LYP) =  -698.041072447     A.U. after    8 cycles
 SCF Done:  E(RB3LYP) =  -698.041072566     A.U. after    9 cycles
 SCF Done:  E(RB3LYP) =  -698.041072619     A.U. after    9 cycles
 SCF Done:  E(RB3LYP) =  -698.041072635     A.U. after    7 cycles
 Optimization completed.
    -- Stationary point found.
 Normal termination of Gaussian 16 at Fri Dec 11 22:01:53 2020.

 --------------------------------------------------------------------
 #N Geom=AllCheck Guess=TCheck SCRF=Check GenChk RB3LYP/6-31G(d) Freq
 --------------------------------------------------------------------

 Structure from the checkpoint file:  "JID_8675.chk"
 -------------------------------
 CID_102405570_JID_8675_neutraal
 -------------------------------
 Charge =  0 Multiplicity = 1

 SCF Done:  E(RB3LYP) =  -698.041072635     A.U. after    1 cycles

  Exact polarizability: 306.421  -0.718 180.481   4.021 -17.996 116.883
 Approx polarizability: 440.821  -5.844 277.889   9.708 -42.228 192.948

                      1                      2                      3
                      A                      A                      A
 Frequencies --     21.8745                40.4310                43.6068
 Red. masses --      3.6013                 3.8587                 3.9940
 Frc consts  --      0.0010                 0.0037                 0.0045
 IR Inten    --      0.0008                 0.0360                 0.1512

                      4                      5                      6
                      A                      A                      A
 Frequencies --     84.6628                90.3090               106.8719
 Red. masses --      3.5416                 2.7026                 3.1658
 Frc consts  --      0.0150                 0.0130                 0.0213
 IR Inten    --      0.5522                 0.2135                 0.4395

                      7                      8                      9
                      A                      A                      A
 Frequencies --    131.6686               160.0698               183.6791
 Red. masses --      2.8318                 3.1261                 3.4527
 Frc consts  --      0.0289                 0.0472                 0.0686
 IR Inten    --      0.0358                 0.0339                 0.2540

                     10                     11                     12
                      A                      A                      A
 Frequencies --    206.7652               215.1831               230.0408
 Red. masses --      2.4729                 1.1531                 1.1919
 Frc consts  --      0.0623                 0.0315                 0.0372
 IR Inten    --      0.4774                 0.2495                 0.1618

                     13                     14                     15
                      A                      A                      A
 Frequencies --    250.0060               303.4413               326.5159
 Red. masses --      2.8118                 3.0735                 3.1316
 Frc consts  --      0.1035                 0.1667                 0.1967
 IR Inten    --      1.0841                 0.1816                 0.2435

                     16                     17                     18
                      A                      A                      A
 Frequencies --    365.1449               407.0217               414.3048
 Red. masses --      3.0878                 3.1211                 2.9902
 Frc consts  --      0.2426                 0.3046                 0.3024
 IR Inten    --      1.2374                 2.2132                 0.0922

                     19                     20                     21
                      A                      A                      A
 Frequencies --    430.6183               478.9175               510.9138
 Red. masses --      2.8683                 2.9665                 3.7759
 Frc consts  --      0.3134                 0.4009                 0.5807
 IR Inten    --      0.2915                 2.0812                 0.3794

                     22                     23                     24
                      A                      A                      A
 Frequencies --    528.8851               545.2825               554.7343
 Red. masses --      4.3190                 4.2351                 3.7839
 Frc consts  --      0.7118                 0.7419                 0.6861
 IR Inten    --      7.6394                 1.8654                 4.5462

                     25                     26                     27
                      A                      A                      A
 Frequencies --    605.2184               636.6542               640.4236
 Red. masses --      4.5913                 6.2648                 4.0189
 Frc consts  --      0.9909                 1.4961                 0.9712
 IR Inten    --      7.5067                 0.0237                 0.3532

                     28                     29                     30
                      A                      A                      A
 Frequencies --    705.0366               715.9852               753.5860
 Red. masses --      1.9548                 4.1450                 1.7593
 Frc consts  --      0.5725                 1.2519                 0.5887
 IR Inten    --     18.4829                 1.5385                11.6497

                     31                     32                     33
                      A                      A                      A
 Frequencies --    774.8440               796.0372               807.0457
 Red. masses --      2.0488                 1.2890                 1.1911
 Frc consts  --      0.7247                 0.4812                 0.4571
 IR Inten    --     31.6643                 4.2734                 2.7478

                     34                     35                     36
                      A                      A                      A
 Frequencies --    817.0887               847.5324               851.2833
 Red. masses --      1.7438                 2.9808                 1.4901
 Frc consts  --      0.6859                 1.2615                 0.6362
 IR Inten    --     12.1474                 0.1333                 0.2362

                     37                     38                     39
                      A                      A                      A
 Frequencies --    860.6397               891.7738               910.5704
 Red. masses --      2.3734                 2.1857                 2.8627
 Frc consts  --      1.0358                 1.0241                 1.3985
 IR Inten    --      3.2836                 1.2004                 3.0513

                     40                     41                     42
                      A                      A                      A
 Frequencies --    914.3997               926.8524               962.8803
 Red. masses --      1.3492                 1.6595                 1.3499
 Frc consts  --      0.6646                 0.8399                 0.7374
 IR Inten    --      0.1838                 0.1783                 0.0226

                     43                     44                     45
                      A                      A                      A
 Frequencies --    969.6361               981.1694               990.1975
 Red. masses --      1.2914                 2.2553                 1.2474
 Frc consts  --      0.7153                 1.2792                 0.7206
 IR Inten    --      0.5600                 0.4023                 1.6054

                     46                     47                     48
                      A                      A                      A
 Frequencies --   1013.8768              1018.4304              1021.2975
 Red. masses --      1.4344                 3.2182                 2.1290
 Frc consts  --      0.8687                 1.9666                 1.3084
 IR Inten    --     19.8885                 0.8716                 9.3467

                     49                     50                     51
                      A                      A                      A
 Frequencies --   1061.1134              1070.0510              1091.4814
 Red. masses --      2.2099                 1.7948                 1.8686
 Frc consts  --      1.4660                 1.2108                 1.3116
 IR Inten    --      1.6939                 4.1100                 1.4401

                     52                     53                     54
                      A                      A                      A
 Frequencies --   1095.9233              1111.9525              1115.8379
 Red. masses --      1.7947                 1.6394                 1.6303
 Frc consts  --      1.2700                 1.1943                 1.1959
 IR Inten    --      4.7367                 2.7643                 4.6089

                     55                     56                     57
                      A                      A                      A
 Frequencies --   1143.9348              1194.0477              1202.7853
 Red. masses --      1.6404                 1.0947                 1.1896
 Frc consts  --      1.2648                 0.9196                 1.0139
 IR Inten    --      2.1298                 0.1162                 1.0479

                     58                     59                     60
                      A                      A                      A
 Frequencies --   1216.7735              1219.2033              1251.8167
 Red. masses --      1.4132                 1.9710                 2.0043
 Frc consts  --      1.2327                 1.7262                 1.8505
 IR Inten    --      0.2405                 0.0361                 0.6132

                     61                     62                     63
                      A                      A                      A
 Frequencies --   1264.8696              1272.7150              1291.7817
 Red. masses --      2.0019                 1.9190                 1.5665
 Frc consts  --      1.8871                 1.8314                 1.5401
 IR Inten    --      1.1281                 0.3526                 1.1076

                     64                     65                     66
                      A                      A                      A
 Frequencies --   1309.6846              1326.5289              1348.9030
 Red. masses --      1.6761                 1.9083                 2.0573
 Frc consts  --      1.6939                 1.9785                 2.2055
 IR Inten    --      0.5290                 0.5452                 0.1839

                     67                     68                     69
                      A                      A                      A
 Frequencies --   1369.9833              1371.8088              1375.4972
 Red. masses --      1.6250                 1.6068                 2.0399
 Frc consts  --      1.7970                 1.7815                 2.2739
 IR Inten    --      0.1640                 5.1756                 3.9911

                     70                     71                     72
                      A                      A                      A
 Frequencies --   1380.5535              1383.7495              1434.8570
 Red. masses --      1.3229                 1.7729                 1.2194
 Frc consts  --      1.4855                 2.0001                 1.4792
 IR Inten    --      0.8847                 2.1339                 1.6052

                     73                     74                     75
                      A                      A                      A
 Frequencies --   1438.3095              1491.9088              1502.3202
 Red. masses --      1.2187                 2.5909                 2.4336
 Frc consts  --      1.4855                 3.3977                 3.2361
 IR Inten    --      3.1060                 1.2246                 5.7789

                     76                     77                     78
                      A                      A                      A
 Frequencies --   1511.1633              1523.9697              1524.5791
 Red. masses --      2.3350                 1.0526                 1.0543
 Frc consts  --      3.1417                 1.4404                 1.4438
 IR Inten    --      7.4537                 6.1113                 1.2497

                     79                     80                     81
                      A                      A                      A
 Frequencies --   1525.9299              1527.6368              1540.2000
 Red. masses --      1.0612                 1.0519                 1.1010
 Frc consts  --      1.4559                 1.4463                 1.5388
 IR Inten    --      0.5983                 4.0467                 5.4506

                     82                     83                     84
                      A                      A                      A
 Frequencies --   1544.1125              1548.8295              1630.7881
 Red. masses --      1.0908                 2.2211                 6.2197
 Frc consts  --      1.5324                 3.1393                 9.7458
 IR Inten    --      3.5169                15.8073                 5.1865

                     85                     86                     87
                      A                      A                      A
 Frequencies --   1637.1867              1653.4787              1664.1814
 Red. masses --      5.2045                 5.4365                 5.4921
 Frc consts  --      8.2192                 8.7572                 8.9617
 IR Inten    --      1.0201                 2.1942                 9.5309

                     88                     89                     90
                      A                      A                      A
 Frequencies --   1709.7779              3043.7280              3045.6978
 Red. masses --      5.4796                 1.0623                 1.0701
 Frc consts  --      9.4379                 5.7983                 5.8487
 IR Inten    --      0.3479                28.0694                29.6085

                     91                     92                     93
                      A                      A                      A
 Frequencies --   3049.0517              3052.8304              3079.1149
 Red. masses --      1.0355                 1.0357                 1.1003
 Frc consts  --      5.6718                 5.6869                 6.1462
 IR Inten    --     27.2138                33.9836                26.7358

                     94                     95                     96
                      A                      A                      A
 Frequencies --   3109.5082              3118.4665              3119.1603
 Red. masses --      1.0971                 1.1023                 1.1028
 Frc consts  --      6.2499                 6.3160                 6.3218
 IR Inten    --      6.4922                55.7950                29.8712

                     97                     98                     99
                      A                      A                      A
 Frequencies --   3129.8739              3135.5604              3158.5567
 Red. masses --      1.0973                 1.1021                 1.0866
 Frc consts  --      6.3334                 6.3841                 6.3869
 IR Inten    --     29.8399                31.5882                18.5853

                    100                    101                    102
                      A                      A                      A
 Frequencies --   3171.6465              3177.3150              3179.5196
 Red. masses --      1.0860                 1.0862                 1.0899
 Frc consts  --      6.4365                 6.4608                 6.4917
 IR Inten    --      4.2389                 4.3918                27.2913

                    103                    104                    105
                      A                      A                      A
 Frequencies --   3184.5372              3188.7609              3195.2146
 Red. masses --      1.0865                 1.0865                 1.0906
 Frc consts  --      6.4918                 6.5094                 6.5603
 IR Inten    --      2.6209                12.7984                20.5352

                    106                    107                    108
                      A                      A                      A
 Frequencies --   3201.6515              3204.0366              3212.4513
 Red. masses --      1.0963                 1.0930                 1.0977
 Frc consts  --      6.6212                 6.6110                 6.6743
 IR Inten    --     41.6090                37.1776                24.8342

 - Thermochemistry -
 -------------------
 Temperature   298.150 Kelvin.  Pressure   1.00000 Atm.
 Atom     1 has atomic number  6 and mass  12.00000

 Molecular mass:   236.15650 amu.
 Principal axes and moments of inertia in atomic units:
                           1         2         3
     Eigenvalues --  2566.340597739.333299529.34276
           X            1.00000   0.00114  -0.00215
           Y           -0.00115   0.99999  -0.00449
           Z            0.00214   0.00449   0.99999
 This molecule is an asymmetric top.
 Rotational symmetry number  1.
 Warning -- assumption of classical behavior for rotation
           may cause significant error
 Rotational temperatures (Kelvin)      0.03375     0.01119     0.00909
 Rotational constants (GHZ):           0.70324     0.23319     0.18939
 Zero-point vibrational energy     865380.5 (Joules/Mol)
                                  206.83089 (Kcal/Mol)
 Warning -- explicit consideration of  25 degrees of freedom as
           vibrations may cause significant error
 Vibrational temperatures:     31.47    58.17    62.74   121.81   129.93
          (Kelvin)            153.76   189.44   230.30   264.27   297.49
                              309.60   330.98   359.70   436.58   469.78
                              525.36   585.61   596.09   619.56   689.06
                              735.09   760.95   784.54   798.14   870.77
                              916.00   921.43  1014.39  1030.14  1084.24
                             1114.83  1145.32  1161.16  1175.61  1219.41
                             1224.81  1238.27  1283.06  1310.11  1315.62
                             1333.53  1385.37  1395.09  1411.68  1424.67
                             1458.74  1465.29  1469.42  1526.71  1539.56
                             1570.40  1576.79  1599.85  1605.44  1645.87
                             1717.97  1730.54  1750.67  1754.16  1801.08
                             1819.87  1831.15  1858.59  1884.34  1908.58
                             1940.77  1971.10  1973.73  1979.03  1986.31
                             1990.91  2064.44  2069.41  2146.52  2161.50
                             2174.23  2192.65  2193.53  2195.47  2197.93
                             2216.00  2221.63  2228.42  2346.34  2355.55
                             2378.99  2394.39  2459.99  4379.25  4382.08
                             4386.91  4392.34  4430.16  4473.89  4486.78
                             4487.78  4503.19  4511.37  4544.46  4563.29
                             4571.45  4574.62  4581.84  4587.92  4597.20
                             4606.46  4609.89  4622.00

 Zero-point correction=                           0.329606 (Hartree/Particle)
 Thermal correction to Energy=                    0.346482
 Thermal correction to Enthalpy=                  0.347426
 Thermal correction to Gibbs Free Energy=         0.283742
 Sum of electronic and zero-point Energies=           -697.711467
 Sum of electronic and thermal Energies=              -697.694590
 Sum of electronic and thermal Enthalpies=            -697.693646
 Sum of electronic and thermal Free Energies=         -697.757330

                     E (Thermal)             CV                S
                      KCal/Mol        Cal/Mol-Kelvin    Cal/Mol-Kelvin
 Total                  217.421             65.484            134.034
 Electronic               0.000              0.000              0.000
 Translational            0.889              2.981             42.279
 Rotational               0.889              2.981             33.603
 Vibrational            215.643             59.523             58.152
 Vibration     1          0.593              1.985              6.456
 Vibration     2          0.594              1.981              5.238
 Vibration     3          0.595              1.980              5.088
 Vibration     4          0.601              1.960              3.780
 Vibration     5          0.602              1.956              3.653
 Vibration     6          0.606              1.944              3.325
 Vibration     7          0.612              1.922              2.922
 Vibration     8          0.622              1.891              2.549
 Vibration     9          0.631              1.862              2.291
 Vibration    10          0.641              1.830              2.072
 Vibration    11          0.645              1.818              1.999
 Vibration    12          0.652              1.795              1.879
 Vibration    13          0.663              1.763              1.731
 Vibration    14          0.695              1.667              1.398
 Vibration    15          0.710              1.622              1.277
 Vibration    16          0.738              1.544              1.100
 Vibration    17          0.772              1.455              0.937
 Vibration    18          0.778              1.439              0.912
 Vibration    19          0.792              1.404              0.857
 Vibration    20          0.835              1.297              0.713
 Vibration    21          0.866              1.226              0.631
 Vibration    22          0.884              1.186              0.590
 Vibration    23          0.900              1.150              0.554
 Vibration    24          0.910              1.129              0.534
 Vibration    25          0.964              1.021              0.441

 Optimization completed.
    -- Stationary point found.
 Normal termination of Gaussian 16 at Fri Dec 11 22:20:23 2020.

 ----------------------------------------------------------------------
 # B3LYP/6-311++G(d,p) empiricaldispersion=gd3bj scf=xqc pop=npa geom=c
 heck
 ----------------------------------------------------------------------

 ---------------------------------------
 CID_102405570_JID_8675_Energie_neutraal
 ---------------------------------------
 Structure from the checkpoint file:  "JID_8675.chk"
 Charge =  0 Multiplicity = 1

 SCF Done:  E(RB3LYP) =  -698.217747515     A.U. after   15 cycles
 Normal termination of Gaussian 16 at Fri Dec 11 22:28:57 2020.

 ----------------------------------------------------------------------
 # B3LYP/6-311++G(d,p) empiricaldispersion=gd3bj scf=xqc pop=npa geom=c
 heck
 ----------------------------------------------------------------------

 -------------------------------------
 CID_102405570_JID_8675_Energie_kation
 -------------------------------------
 Structure from the checkpoint file:  "JID_8675.chk"
 Charge =  1 Multiplicity = 2

 SCF Done:  E(UB3LYP) =  -697.946923003     A.U. after   22 cycles
 Normal termination of Gaussian 16 at Fri Dec 11 22:46:25 2020.
 Gaussian 16:  ES64L-G16RevA.03 25-Dec-2016

 ----------------------------------------------------------------------
 # B3LYP/6-311++G(d,p) empiricaldispersion=gd3bj scf=xqc pop=npa geom=c
 heck
 ----------------------------------------------------------------------

 ------------------------------------
 CID_102405570_JID_8675_Energie_anion
 ------------------------------------
 Structure from the checkpoint file:  "JID_8675.chk"
 Charge = -1 Multiplicity = 2

                         Standard orientation:
 ---------------------------------------------------------------------
 Center     Atomic      Atomic             Coordinates (Angstroms)
 Number     Number       Type             X           Y           Z
 ---------------------------------------------------------------------
      1          6           0       -1.201088   -3.273429    0.669956
      2          6           0       -1.354244   -2.430035   -0.606528
      3          6           0       -2.120090   -1.142149   -0.378765
      4          6           0       -1.513054    0.135726   -0.317256
      5          6           0       -2.329998    1.287290   -0.159571
      6          6           0       -3.711259    1.142186   -0.031879
      7          6           0       -4.307599   -0.116475   -0.073520
      8          6           0       -3.511779   -1.240683   -0.253565
      9          6           0       -1.733834    2.676176   -0.057023
     10          6           0       -1.059245    2.940910    1.299096
     11          6           0       -0.059142    0.335423   -0.454815
     12          6           0        0.913756   -0.368631    0.152798
     13          6           0        2.357997   -0.156779    0.017128
     14          6           0        3.225284   -0.811817    0.908480
     15          6           0        4.604941   -0.634098    0.835729
     16          6           0        5.151549    0.202055   -0.137832
     17          6           0        4.304082    0.852605   -1.039231
     18          6           0        2.926865    0.673191   -0.966530
     19          1           0       -0.663062   -2.725673    1.451277
     20          1           0       -0.652386   -4.199288    0.463318
     21          1           0       -2.180649   -3.542525    1.080352
     22          1           0       -0.369983   -2.220738   -1.031783
     23          1           0       -1.897799   -3.027371   -1.349921
     24          1           0       -4.324963    2.029791    0.101162
     25          1           0       -5.385533   -0.216184    0.019539
     26          1           0       -3.972417   -2.224140   -0.314332
     27          1           0       -1.005977    2.847173   -0.860367
     28          1           0       -2.531998    3.411362   -0.211832
     29          1           0       -0.236212    2.240697    1.470579
     30          1           0       -0.658141    3.959774    1.343407
     31          1           0       -1.779335    2.819883    2.115727
     32          1           0        0.235947    1.177227   -1.078668
     33          1           0        0.632447   -1.154096    0.849614
     34          1           0        2.803536   -1.463155    1.670208
     35          1           0        5.253016   -1.149780    1.538977
     36          1           0        6.226955    0.341419   -0.200170
     37          1           0        4.721371    1.497014   -1.808208
     38          1           0        2.286331    1.169817   -1.688916
 ---------------------------------------------------------------------

 SCF Done:  E(UB3LYP) =  -698.222992767     A.U. after   27 cycles

 The electronic state is 2-A.
 Alpha  occ. eigenvalues --  -10.05643 -10.05309 -10.05021 -10.04719 -10.04675
 Alpha  occ. eigenvalues --  -10.04581 -10.04285 -10.04249 -10.04226 -10.04055
 Alpha  occ. eigenvalues --  -10.03882 -10.03758 -10.03209 -10.03159 -10.02817
 Alpha  occ. eigenvalues --  -10.02661 -10.01102 -10.00836  -0.73580  -0.71865
 Alpha  occ. eigenvalues --   -0.67793  -0.66076  -0.64398  -0.61623  -0.60963
 Alpha  occ. eigenvalues --   -0.59706  -0.57076  -0.51845  -0.51457  -0.48865
 Alpha  occ. eigenvalues --   -0.47002  -0.45223  -0.44026  -0.41473  -0.38114
 Alpha  occ. eigenvalues --   -0.37251  -0.35463  -0.33579  -0.33105  -0.32284
 Alpha  occ. eigenvalues --   -0.31579  -0.31241  -0.30144  -0.29803  -0.28719
 Alpha  occ. eigenvalues --   -0.28037  -0.27657  -0.27200  -0.25555  -0.25362
 Alpha  occ. eigenvalues --   -0.24228  -0.23886  -0.23398  -0.22589  -0.22261
 Alpha  occ. eigenvalues --   -0.21550  -0.20583  -0.20301  -0.18792  -0.16531
 Alpha  occ. eigenvalues --   -0.12875  -0.12361  -0.11835  -0.07722   0.04543
 Alpha virt. eigenvalues --    0.07760   0.08223   0.08433   0.09132   0.09621
 Alpha virt. eigenvalues --    0.10224   0.10474   0.10638   0.10972   0.11530
 Alpha virt. eigenvalues --    0.11845   0.12231   0.12263   0.12576   0.12827

  Beta  occ. eigenvalues --  -10.05648 -10.05299 -10.05030 -10.04712 -10.04578
  Beta  occ. eigenvalues --  -10.04466 -10.04315 -10.04284 -10.04175 -10.04130
  Beta  occ. eigenvalues --  -10.03760 -10.03700 -10.03126 -10.03062 -10.02566
  Beta  occ. eigenvalues --  -10.02491 -10.00901 -10.00562  -0.73366  -0.71585
  Beta  occ. eigenvalues --   -0.67690  -0.65779  -0.64083  -0.61306  -0.60737
  Beta  occ. eigenvalues --   -0.59628  -0.56699  -0.51733  -0.51400  -0.48367
  Beta  occ. eigenvalues --   -0.46898  -0.44974  -0.43922  -0.41160  -0.37970
  Beta  occ. eigenvalues --   -0.37150  -0.35303  -0.33453  -0.32995  -0.32173
  Beta  occ. eigenvalues --   -0.31537  -0.31098  -0.29963  -0.29734  -0.28656
  Beta  occ. eigenvalues --   -0.27904  -0.27478  -0.27133  -0.25516  -0.25257
  Beta  occ. eigenvalues --   -0.24059  -0.23455  -0.23047  -0.22515  -0.21940
  Beta  occ. eigenvalues --   -0.21360  -0.20501  -0.20145  -0.18585  -0.15189
  Beta  occ. eigenvalues --   -0.11930  -0.11638  -0.11463  -0.06312
  Beta virt. eigenvalues --    0.07678   0.08174   0.08364   0.09054   0.09501
  Beta virt. eigenvalues --    0.09558   0.10196   0.10440   0.10618   0.10957
  Beta virt. eigenvalues --    0.11734   0.11974   0.12305   0.12520   0.12789

 Mulliken charges and spin densities:
               1          2
     1  C   -0.578769  -0.062155
     2  C   -0.328398   0.044326
     3  C    0.735460   0.067263
     4  C    0.331873   0.058948
     5  C    0.500658   0.059535
     6  C   -0.286971  -0.023105
     7  C   -0.557170   0.133822
     8  C   -0.337041  -0.034627
     9  C   -0.214878  -0.000078
    10  C   -0.675047  -0.009756
    11  C   -0.344590   0.192781
    12  C   -0.523611   0.114966
    13  C    1.116093   0.008573
    14  C   -0.088922   0.117997
    15  C   -0.330850   0.013444
    16  C   -0.441496   0.181244
    17  C   -0.350282  -0.018888
    18  C   -0.827395   0.127344
    19  H    0.120441   0.031597
    20  H    0.080645   0.028667
    21  H    0.116240   0.003810
    22  H    0.168747   0.006565
    23  H    0.122307   0.007976
    24  H    0.091612   0.004457
    25  H    0.112000  -0.011229
    26  H    0.118227   0.003118
    27  H    0.138044   0.001797
    28  H    0.133660   0.000669
    29  H    0.145005  -0.001320
    30  H    0.091615   0.000427
    31  H    0.118750   0.005827
    32  H    0.069931  -0.003564
    33  H    0.057743  -0.056044
    34  H    0.100405   0.014355
    35  H    0.111451   0.003674
    36  H    0.093964  -0.016662
    37  H    0.125626   0.008635
    38  H    0.084922  -0.004387
 Sum of Mulliken charges =  -1.00000   1.00000

 Dipole moment (field-independent basis, Debye):
    X=             -2.8922    Y=              0.1605    Z=              0.3765  Tot=              2.9210
 Quadrupole moment (field-independent basis, Debye-Ang):
   XX=           -169.8881   YY=           -124.2771   ZZ=           -122.7359
   XY=              0.1140   XZ=             -0.6077   YZ=             -2.7264

 Summary of Natural Population Analysis:

                                       Natural Population
                Natural  -----------------------------------------------
    Atom  No    Charge         Core      Valence    Rydberg      Total
 -----------------------------------------------------------------------
      C    1   -0.27866      0.99966     2.27450    0.00449     3.27866
      C    2   -0.20258      0.99961     2.19426    0.00871     3.20258
      C    3    0.00150      0.99950     1.98724    0.01175     2.99850
      C    4   -0.01837      0.99943     2.00702    0.01191     3.01837
      C    5    0.01061      0.99948     1.97974    0.01017     2.98939
      C    6   -0.12013      0.99952     2.11139    0.00922     3.12013
      C    7   -0.09164      0.99961     2.07672    0.01531     3.09164
      C    8   -0.08846      0.99952     2.08442    0.00452     3.08846
      C    9   -0.19408      0.99962     2.18745    0.00702     3.19408
      C   10   -0.28201      0.99966     2.27845    0.00390     3.28201
      C   11   -0.05254      0.99952     2.04473    0.00829     3.05254
      C   12   -0.06486      0.99950     2.05677    0.00858     3.06486
      C   13   -0.01570      0.99951     2.00680    0.00939     3.01570
      C   14   -0.08225      0.99954     2.07443    0.00828     3.08225
      C   15   -0.11473      0.99957     2.10565    0.00950     3.11473
      C   16   -0.07239      0.99957     2.06266    0.01016     3.07239
      C   17   -0.12375      0.99958     2.11479    0.00938     3.12375
      C   18   -0.06402      0.99953     2.05653    0.00795     3.06402
      H   19    0.09816      0.00000     0.40077    0.00106     0.40184
      H   20    0.09128      0.00000     0.40730    0.00142     0.40872
      H   21    0.09210      0.00000     0.40663    0.00127     0.40790
      H   22    0.11347      0.00000     0.38531    0.00122     0.38653
      H   23    0.08915      0.00000     0.40839    0.00246     0.41085
      H   24    0.09002      0.00000     0.40885    0.00113     0.40998
      H   25    0.09186      0.00000     0.40751    0.00063     0.40814
      H   26    0.08655      0.00000     0.41186    0.00159     0.41345
      H   27    0.09935      0.00000     0.39960    0.00105     0.40065
      H   28    0.09016      0.00000     0.40863    0.00120     0.40984
      H   29    0.11057      0.00000     0.38856    0.00087     0.38943
      H   30    0.08899      0.00000     0.41004    0.00096     0.41101
      H   31    0.09208      0.00000     0.40695    0.00097     0.40792
      H   32    0.08633      0.00000     0.41138    0.00228     0.41367
      H   33    0.08402      0.00000     0.41378    0.00220     0.41598
      H   34    0.09058      0.00000     0.40807    0.00135     0.40942
      H   35    0.08966      0.00000     0.40924    0.00110     0.41034
      H   36    0.08687      0.00000     0.41208    0.00106     0.41313
      H   37    0.09021      0.00000     0.40872    0.00107     0.40979
      H   38    0.09273      0.00000     0.40591    0.00136     0.40727
 =======================================================================
   * Total *    0.00012     17.99195    45.82317    0.18477    63.99988

 Normal termination of Gaussian 16 at Fri Dec 11 23:07:53 2020.
