 Gaussian 16, Revision A.03,

 -----------------------------------------------------------
 # opt freq B3LYP/6-31G(d) empiricaldispersion=gd3bj scf=xqc
 -----------------------------------------------------------

 ------------------------------
 CID_79095811_JID_9305_neutraal
 ------------------------------
 Symbolic Z-matrix:
 Charge =  0 Multiplicity = 1

 SCF Done:  E(RB3LYP) =  -896.918623554     A.U. after   16 cycles
 SCF Done:  E(RB3LYP) =  -896.921275302     A.U. after   14 cycles
 SCF Done:  E(RB3LYP) =  -896.921111160     A.U. after   13 cycles
 SCF Done:  E(RB3LYP) =  -896.920109722     A.U. after   14 cycles
 SCF Done:  E(RB3LYP) =  -896.920989649     A.U. after   14 cycles
 SCF Done:  E(RB3LYP) =  -896.921539733     A.U. after    9 cycles
 SCF Done:  E(RB3LYP) =  -896.921725682     A.U. after   12 cycles
 SCF Done:  E(RB3LYP) =  -896.921934706     A.U. after   12 cycles
 SCF Done:  E(RB3LYP) =  -896.922104476     A.U. after   15 cycles
 SCF Done:  E(RB3LYP) =  -896.922397390     A.U. after   13 cycles
 SCF Done:  E(RB3LYP) =  -896.922820412     A.U. after   10 cycles
 SCF Done:  E(RB3LYP) =  -896.922820773     A.U. after    9 cycles
 SCF Done:  E(RB3LYP) =  -896.922821127     A.U. after   11 cycles
 SCF Done:  E(RB3LYP) =  -896.922821194     A.U. after    8 cycles
 SCF Done:  E(RB3LYP) =  -896.922821220     A.U. after    8 cycles
 Optimization completed.
    -- Stationary point found.
 Normal termination of Gaussian 16 at Mon Dec 14 16:51:21 2020.

 --------------------------------------------------------------------
 #N Geom=AllCheck Guess=TCheck SCRF=Check GenChk RB3LYP/6-31G(d) Freq
 --------------------------------------------------------------------

 Structure from the checkpoint file:  "JID_9305.chk"
 ------------------------------
 CID_79095811_JID_9305_neutraal
 ------------------------------
 Charge =  0 Multiplicity = 1

 SCF Done:  E(RB3LYP) =  -896.922821220     A.U. after    1 cycles

  Exact polarizability: 200.974   8.291 136.182   1.105   8.405 161.046
 Approx polarizability: 260.348  27.487 215.876   7.730  31.233 326.499

                      1                      2                      3
                      A                      A                      A
 Frequencies --     12.9455                20.5193                35.9940
 Red. masses --      5.6293                 4.5433                 4.9680
 Frc consts  --      0.0006                 0.0011                 0.0038
 IR Inten    --      1.9784                 0.2439                 0.5305

                      4                      5                      6
                      A                      A                      A
 Frequencies --     53.1530                66.8247                76.8760
 Red. masses --      2.9578                 6.4548                 6.6374
 Frc consts  --      0.0049                 0.0170                 0.0231
 IR Inten    --      1.2931                 0.3262                 2.1981

                      7                      8                      9
                      A                      A                      A
 Frequencies --    118.0871               125.0808               146.9541
 Red. masses --      5.4581                 7.2384                 3.3727
 Frc consts  --      0.0448                 0.0667                 0.0429
 IR Inten    --      3.8811                 1.0143                 0.7996

                     10                     11                     12
                      A                      A                      A
 Frequencies --    186.2325               215.5807               229.3039
 Red. masses --      4.9279                 2.2258                 2.1701
 Frc consts  --      0.1007                 0.0609                 0.0672
 IR Inten    --      1.0039                 2.0039                 0.9177

                     13                     14                     15
                      A                      A                      A
 Frequencies --    273.7162               325.6446               341.9094
 Red. masses --      3.8778                 5.4315                 2.8119
 Frc consts  --      0.1712                 0.3394                 0.1937
 IR Inten    --      2.4624                 0.6595                 4.0271

                     16                     17                     18
                      A                      A                      A
 Frequencies --    378.6930               395.1277               405.5274
 Red. masses --      6.5682                 2.8474                 3.9703
 Frc consts  --      0.5550                 0.2619                 0.3847
 IR Inten    --      3.0185                 0.8395                 2.0885

                     19                     20                     21
                      A                      A                      A
 Frequencies --    422.7192               491.8485               524.5613
 Red. masses --      3.0777                 3.3796                 4.6944
 Frc consts  --      0.3240                 0.4817                 0.7611
 IR Inten    --      0.0372                 1.1898                 5.4508

                     22                     23                     24
                      A                      A                      A
 Frequencies --    538.2585               572.5808               622.9786
 Red. masses --      6.8045                 5.3424                 3.8004
 Frc consts  --      1.1615                 1.0319                 0.8690
 IR Inten    --      1.5058                 9.9942                12.3020

                     25                     26                     27
                      A                      A                      A
 Frequencies --    642.9742               648.1660               670.4468
 Red. masses --      5.4671                 6.5640                 4.2048
 Frc consts  --      1.3317                 1.6248                 1.1136
 IR Inten    --      2.1063                 0.2602                15.2025

                     28                     29                     30
                      A                      A                      A
 Frequencies --    703.2771               714.5543               744.1853
 Red. masses --      4.4554                 3.8711                 3.8792
 Frc consts  --      1.2984                 1.1645                 1.2658
 IR Inten    --     12.0092                 5.8574                35.6086

                     31                     32                     33
                      A                      A                      A
 Frequencies --    777.5489               798.2520               806.5671
 Red. masses --      4.5005                 1.2622                 1.3280
 Frc consts  --      1.6031                 0.4739                 0.5090
 IR Inten    --     25.5936                 5.1064                20.9108

                     34                     35                     36
                      A                      A                      A
 Frequencies --    832.5576               856.7154               872.2161
 Red. masses --      3.0722                 1.3483                 1.6648
 Frc consts  --      1.2547                 0.5831                 0.7462
 IR Inten    --     17.0791                 0.8712                10.2409

                     37                     38                     39
                      A                      A                      A
 Frequencies --    874.9508               890.2809               938.6267
 Red. masses --      2.8127                 2.3958                 3.1272
 Frc consts  --      1.2686                 1.1188                 1.6233
 IR Inten    --     23.9994                 9.8858                37.3242

                     40                     41                     42
                      A                      A                      A
 Frequencies --    959.6056               965.9913               982.0990
 Red. masses --      2.8444                 3.3595                 1.3594
 Frc consts  --      1.5432                 1.8470                 0.7725
 IR Inten    --      4.2555                 3.2328                 0.8444

                     43                     44                     45
                      A                      A                      A
 Frequencies --   1000.7663              1014.7112              1040.0858
 Red. masses --      1.3318                 3.4140                 2.8796
 Frc consts  --      0.7859                 2.0711                 1.8354
 IR Inten    --      1.0696                 7.0029                 7.2123

                     46                     47                     48
                      A                      A                      A
 Frequencies --   1050.3810              1075.8243              1098.1785
 Red. masses --      1.5514                 1.5818                 1.9310
 Frc consts  --      1.0085                 1.0787                 1.3721
 IR Inten    --     24.0245                37.5299                39.0044

                     49                     50                     51
                      A                      A                      A
 Frequencies --   1109.8452              1137.6269              1140.9530
 Red. masses --      1.7665                 2.8424                 1.3919
 Frc consts  --      1.2820                 2.1674                 1.0675
 IR Inten    --     36.6713                49.1599                 9.8662

                     52                     53                     54
                      A                      A                      A
 Frequencies --   1194.8044              1216.8007              1225.6533
 Red. masses --      1.4193                 1.2747                 2.9403
 Frc consts  --      1.1937                 1.1120                 2.6024
 IR Inten    --      9.0462                 4.5748                 8.1325

                     55                     56                     57
                      A                      A                      A
 Frequencies --   1240.5340              1258.7347              1305.0635
 Red. masses --      1.5840                 2.9937                 1.4546
 Frc consts  --      1.4362                 2.7946                 1.4596
 IR Inten    --      8.5219                35.2293                 5.3871

                     58                     59                     60
                      A                      A                      A
 Frequencies --   1309.2066              1339.9971              1351.8499
 Red. masses --      1.5189                 1.9777                 2.1861
 Frc consts  --      1.5339                 2.0923                 2.3538
 IR Inten    --     19.4819                33.0395                88.7025

                     61                     62                     63
                      A                      A                      A
 Frequencies --   1370.5357              1382.7899              1399.7802
 Red. masses --      1.5973                 5.9775                13.5344
 Frc consts  --      1.7677                 6.7341                15.6246
 IR Inten    --     20.0655                23.2727               369.0876

                     64                     65                     66
                      A                      A                      A
 Frequencies --   1428.0096              1441.7799              1465.7971
 Red. masses --      2.0755                 1.5639                 2.8994
 Frc consts  --      2.4937                 1.9154                 3.6703
 IR Inten    --     16.3283                 1.1103                 4.0591

                     67                     68                     69
                      A                      A                      A
 Frequencies --   1505.4682              1506.4135              1527.0365
 Red. masses --      1.0918                 1.1073                 1.0424
 Frc consts  --      1.4579                 1.4804                 1.4322
 IR Inten    --      3.8857                 9.2777                 7.4799

                     70                     71                     72
                      A                      A                      A
 Frequencies --   1534.6780              1543.0806              1565.6986
 Red. masses --      1.1254                 2.3143                 5.3135
 Frc consts  --      1.5616                 3.2468                 7.6745
 IR Inten    --      9.0867                16.9934               203.1471

                     73                     74                     75
                      A                      A                      A
 Frequencies --   1618.5038              1632.5975              1659.0311
 Red. masses --     10.1903                 5.9665                 5.7626
 Frc consts  --     15.7277                 9.3698                 9.3450
 IR Inten    --    111.6675                 3.3563                43.2720

                     76                     77                     78
                      A                      A                      A
 Frequencies --   1671.9726              1762.7139              3047.1134
 Red. masses --      9.1407                11.3857                 1.0654
 Frc consts  --     15.0553                20.8436                 5.8283
 IR Inten    --     92.3597               237.2266                20.8664

                     79                     80                     81
                      A                      A                      A
 Frequencies --   3062.4441              3077.4303              3099.4705
 Red. masses --      1.0348                 1.0584                 1.0977
 Frc consts  --      5.7181                 5.9060                 6.2134
 IR Inten    --     25.7683                10.7329                 8.7186

                     82                     83                     84
                      A                      A                      A
 Frequencies --   3126.2269              3132.6847              3144.1913
 Red. masses --      1.1058                 1.1036                 1.1032
 Frc consts  --      6.3678                 6.3813                 6.4259
 IR Inten    --      7.5670                32.8054                22.0655

                     85                     86                     87
                      A                      A                      A
 Frequencies --   3193.1928              3213.7043              3253.8710
 Red. masses --      1.0902                 1.0908                 1.0924
 Frc consts  --      6.5495                 6.6375                 6.8145
 IR Inten    --     12.2315                 0.5795                 1.0598

                     88                     89                     90
                      A                      A                      A
 Frequencies --   3254.4438              3269.7573              3283.6977
 Red. masses --      1.0927                 1.0932                 1.1007
 Frc consts  --      6.8186                 6.8860                 6.9926
 IR Inten    --      0.9646                 5.6434                 0.8382

 - Thermochemistry -
 -------------------
 Temperature   298.150 Kelvin.  Pressure   1.00000 Atm.
 Atom     1 has atomic number  6 and mass  12.00000

 Molecular mass:   259.08446 amu.
 Principal axes and moments of inertia in atomic units:
                           1         2         3
     Eigenvalues --  2715.19245********************
           X            0.99970  -0.02433   0.00422
           Y            0.02452   0.99836  -0.05165
           Z           -0.00296   0.05174   0.99866
 This molecule is an asymmetric top.
 Rotational symmetry number  1.
 Warning -- assumption of classical behavior for rotation
           may cause significant error
 Rotational temperatures (Kelvin)      0.03190     0.00812     0.00762
 Rotational constants (GHZ):           0.66468     0.16917     0.15883
 Zero-point vibrational energy     655226.2 (Joules/Mol)
                                  156.60282 (Kcal/Mol)
 Warning -- explicit consideration of  23 degrees of freedom as
           vibrations may cause significant error
 Vibrational temperatures:     18.63    29.52    51.79    76.48    96.15
          (Kelvin)            110.61   169.90   179.96   211.43   267.95
                              310.17   329.92   393.82   468.53   491.93
                              544.85   568.50   583.46   608.20   707.66
                              754.73   774.43   823.82   896.33   925.10
                              932.57   964.62  1011.86  1028.08  1070.72
                             1118.72  1148.51  1160.47  1197.86  1232.62
                             1254.92  1258.86  1280.92  1350.47  1380.66
                             1389.85  1413.02  1439.88  1459.94  1496.45
                             1511.26  1547.87  1580.03  1596.82  1636.79
                             1641.58  1719.06  1750.70  1763.44  1784.85
                             1811.04  1877.70  1883.66  1927.96  1945.01
                             1971.90  1989.53  2013.97  2054.59  2074.40
                             2108.96  2166.03  2167.39  2197.06  2208.06
                             2220.15  2252.69  2328.67  2348.94  2386.98
                             2405.60  2536.15  4384.12  4406.17  4427.74
                             4459.45  4497.94  4507.23  4523.79  4594.29
                             4623.80  4681.59  4682.42  4704.45  4724.51

 Zero-point correction=                           0.249562 (Hartree/Particle)
 Thermal correction to Energy=                    0.266443
 Thermal correction to Enthalpy=                  0.267387
 Thermal correction to Gibbs Free Energy=         0.200972
 Sum of electronic and zero-point Energies=           -896.673259
 Sum of electronic and thermal Energies=              -896.656378
 Sum of electronic and thermal Enthalpies=            -896.655434
 Sum of electronic and thermal Free Energies=         -896.721849

                     E (Thermal)             CV                S
                      KCal/Mol        Cal/Mol-Kelvin    Cal/Mol-Kelvin
 Total                  167.195             62.587            139.781
 Electronic               0.000              0.000              0.000
 Translational            0.889              2.981             42.556
 Rotational               0.889              2.981             34.153
 Vibrational            165.418             56.625             63.073
 Vibration     1          0.593              1.987              7.498
 Vibration     2          0.593              1.986              6.583
 Vibration     3          0.594              1.982              5.468
 Vibration     4          0.596              1.976              4.696
 Vibration     5          0.598              1.970              4.245
 Vibration     6          0.599              1.965              3.969
 Vibration     7          0.608              1.934              3.131
 Vibration     8          0.610              1.928              3.020
 Vibration     9          0.617              1.906              2.711
 Vibration    10          0.632              1.859              2.265
 Vibration    11          0.645              1.817              1.996
 Vibration    12          0.652              1.796              1.884
 Vibration    13          0.676              1.722              1.573
 Vibration    14          0.710              1.624              1.282
 Vibration    15          0.721              1.592              1.203
 Vibration    16          0.749              1.516              1.044
 Vibration    17          0.762              1.481              0.981
 Vibration    18          0.771              1.458              0.943
 Vibration    19          0.785              1.421              0.883
 Vibration    20          0.848              1.268              0.679
 Vibration    21          0.880              1.196              0.599
 Vibration    22          0.893              1.165              0.569
 Vibration    23          0.929              1.091              0.499

 Optimization completed.
    -- Stationary point found.
 Normal termination of Gaussian 16 at Mon Dec 14 17:05:49 2020.

 ----------------------------------------------------------------------
 # B3LYP/6-311++G(d,p) empiricaldispersion=gd3bj scf=xqc pop=npa geom=c
 heck
 ----------------------------------------------------------------------

 --------------------------------------
 CID_79095811_JID_9305_Energie_neutraal
 --------------------------------------
 Structure from the checkpoint file:  "JID_9305.chk"
 Charge =  0 Multiplicity = 1

 SCF Done:  E(RB3LYP) =  -897.170728877     A.U. after   16 cycles
 Normal termination of Gaussian 16 at Mon Dec 14 17:12:23 2020.

 ----------------------------------------------------------------------
 # B3LYP/6-311++G(d,p) empiricaldispersion=gd3bj scf=xqc pop=npa geom=c
 heck
 ----------------------------------------------------------------------

 ------------------------------------
 CID_79095811_JID_9305_Energie_kation
 ------------------------------------
 Structure from the checkpoint file:  "JID_9305.chk"
 Charge =  1 Multiplicity = 2

 SCF Done:  E(UB3LYP) =  -896.854104100     A.U. after   33 cycles
 SCF Done:  E(UB3LYP) =  -896.854104099     a.u. after    1 cycles
 Normal termination of Gaussian 16 at Mon Dec 14 17:32:22 2020.
 Gaussian 16:  ES64L-G16RevA.03 25-Dec-2016

 ----------------------------------------------------------------------
 # B3LYP/6-311++G(d,p) empiricaldispersion=gd3bj scf=xqc pop=npa geom=c
 heck
 ----------------------------------------------------------------------

 -----------------------------------
 CID_79095811_JID_9305_Energie_anion
 -----------------------------------
 Structure from the checkpoint file:  "JID_9305.chk"
 Charge = -1 Multiplicity = 2

                         Standard orientation:
 ---------------------------------------------------------------------
 Center     Atomic      Atomic             Coordinates (Angstroms)
 Number     Number       Type             X           Y           Z
 ---------------------------------------------------------------------
      1          6           0       -4.542185    2.362915   -1.205067
      2          6           0       -4.889485    1.467855   -0.002870
      3          6           0       -3.718713    0.695250    0.498221
      4          6           0       -3.038586    0.682119    1.691270
      5          6           0       -1.988533   -0.264816    1.546311
      6          6           0       -2.086297   -0.772337    0.271106
      7          8           0       -3.148149   -0.180412   -0.367914
      8          6           0       -1.299836   -1.739518   -0.483413
      9          8           0       -1.540020   -2.022119   -1.648389
     10          6           0       -0.093712   -2.347544    0.243130
     11          6           0        1.100869   -1.421126    0.156190
     12          6           0        1.566035   -0.998495   -1.098461
     13          6           0        2.650989   -0.136357   -1.200090
     14          6           0        3.269497    0.303136   -0.030694
     15          6           0        2.832055   -0.097083    1.228580
     16          6           0        1.743364   -0.959752    1.311421
     17          7           0        4.415625    1.215154   -0.128438
     18          8           0        4.785685    1.550490   -1.253445
     19          8           0        4.938688    1.591456    0.920927
     20          1           0       -3.778493    3.099517   -0.934870
     21          1           0       -5.431294    2.899338   -1.551312
     22          1           0       -4.156978    1.762073   -2.033985
     23          1           0       -5.275983    2.071362    0.825275
     24          1           0       -5.686544    0.768127   -0.287266
     25          1           0       -3.268515    1.280858    2.561121
     26          1           0       -1.244718   -0.528900    2.283997
     27          1           0       -0.330313   -2.562887    1.289402
     28          1           0        0.121630   -3.294490   -0.261244
     29          1           0        1.061315   -1.344751   -1.994978
     30          1           0        3.023048    0.200510   -2.159282
     31          1           0        3.341678    0.266921    2.111578
     32          1           0        1.393381   -1.284561    2.287396
 ---------------------------------------------------------------------

 SCF Done:  E(UB3LYP) =  -897.218317503     A.U. after   26 cycles

 The electronic state is 2-A.
 Alpha  occ. eigenvalues --  -19.08777 -18.98259 -18.98190 -18.98160 -14.36395
 Alpha  occ. eigenvalues --  -10.13713 -10.13509 -10.12087 -10.10678 -10.08956
 Alpha  occ. eigenvalues --  -10.08471 -10.08169 -10.07935 -10.07006 -10.06793
 Alpha  occ. eigenvalues --  -10.06311 -10.06078 -10.05706 -10.05611  -1.06038
 Alpha  occ. eigenvalues --   -1.01788  -0.91773  -0.88871  -0.75369  -0.72143
 Alpha  occ. eigenvalues --   -0.71185  -0.68624  -0.64972  -0.63666  -0.61670
 Alpha  occ. eigenvalues --   -0.56567  -0.53678  -0.51568  -0.49928  -0.48389
 Alpha  occ. eigenvalues --   -0.45883  -0.45279  -0.41061  -0.39736  -0.38026
 Alpha  occ. eigenvalues --   -0.37868  -0.36915  -0.36547  -0.35830  -0.34782
 Alpha  occ. eigenvalues --   -0.33874  -0.33512  -0.32877  -0.32382  -0.31275
 Alpha  occ. eigenvalues --   -0.31196  -0.30225  -0.29227  -0.28431  -0.27864
 Alpha  occ. eigenvalues --   -0.27217  -0.26768  -0.24833  -0.24010  -0.23214
 Alpha  occ. eigenvalues --   -0.19483  -0.16647  -0.15470  -0.15179  -0.14543
 Alpha  occ. eigenvalues --   -0.13758  -0.13500  -0.12794   0.00706
 Alpha virt. eigenvalues --    0.03746   0.05786   0.07368   0.08264   0.08601
 Alpha virt. eigenvalues --    0.09648   0.09802   0.10087   0.10565   0.11212
 Alpha virt. eigenvalues --    0.11755   0.12141   0.12590   0.12713   0.13368

  Beta  occ. eigenvalues --  -19.08699 -18.98029 -18.97860 -18.97819 -14.35963
  Beta  occ. eigenvalues --  -10.13590 -10.13346 -10.12104 -10.10688 -10.08943
  Beta  occ. eigenvalues --  -10.08409 -10.08218 -10.07812 -10.07037 -10.06594
  Beta  occ. eigenvalues --  -10.06343 -10.06012 -10.05745 -10.05503  -1.05308
  Beta  occ. eigenvalues --   -1.01654  -0.91352  -0.88238  -0.75161  -0.72040
  Beta  occ. eigenvalues --   -0.71036  -0.68302  -0.64772  -0.63512  -0.61364
  Beta  occ. eigenvalues --   -0.56390  -0.53185  -0.51437  -0.49863  -0.48135
  Beta  occ. eigenvalues --   -0.45772  -0.45053  -0.40650  -0.39535  -0.37832
  Beta  occ. eigenvalues --   -0.36791  -0.36254  -0.35742  -0.35539  -0.34460
  Beta  occ. eigenvalues --   -0.33692  -0.33403  -0.32778  -0.32190  -0.31218
  Beta  occ. eigenvalues --   -0.30998  -0.30132  -0.29153  -0.28346  -0.27733
  Beta  occ. eigenvalues --   -0.26701  -0.26640  -0.24342  -0.23537  -0.23015
  Beta  occ. eigenvalues --   -0.19062  -0.15132  -0.14754  -0.14564  -0.13682
  Beta  occ. eigenvalues --   -0.13205  -0.13088  -0.12267
  Beta virt. eigenvalues --    0.04904   0.05869   0.06914   0.07336   0.08250
  Beta virt. eigenvalues --    0.08605   0.09776   0.09970   0.10055   0.10545
  Beta virt. eigenvalues --    0.11216   0.11855   0.12461   0.12588   0.13287

 Mulliken charges and spin densities:
               1          2
     1  C   -0.490609  -0.022315
     2  C   -0.454251   0.013086
     3  C    0.343959   0.074586
     4  C   -0.367767  -0.039857
     5  C   -0.290057   0.107857
     6  C    0.203433  -0.035981
     7  O   -0.001835   0.016908
     8  C   -0.359876   0.130552
     9  O   -0.307795   0.083810
    10  C    0.182839  -0.061426
    11  C    0.838282   0.113309
    12  C   -0.431667  -0.002556
    13  C   -0.350955   0.127957
    14  C   -0.202682  -0.021493
    15  C   -0.327490   0.076817
    16  C   -0.429170  -0.023822
    17  N   -0.266760   0.143251
    18  O   -0.139250   0.126454
    19  O   -0.138243   0.129531
    20  H    0.128270   0.002959
    21  H    0.114360   0.008337
    22  H    0.174372  -0.001694
    23  H    0.153788   0.000457
    24  H    0.134508   0.014576
    25  H    0.154775   0.002631
    26  H    0.095363  -0.006285
    27  H    0.122257   0.005137
    28  H    0.177237   0.039872
    29  H    0.174168   0.000641
    30  H    0.221689  -0.006534
    31  H    0.222701  -0.004438
    32  H    0.116408   0.007675
 Sum of Mulliken charges =  -1.00000   1.00000

 Dipole moment (field-independent basis, Debye):
    X=            -10.8463    Y=             -1.1268    Z=              3.6015  Tot=             11.4840
 Quadrupole moment (field-independent basis, Debye-Ang):
   XX=           -195.5492   YY=           -130.8732   ZZ=           -122.8231
   XY=            -30.4176   XZ=             -3.5432   YZ=             -4.9359

 Summary of Natural Population Analysis:

                                       Natural Population
                Natural  -----------------------------------------------
    Atom  No    Charge         Core      Valence    Rydberg      Total
 -----------------------------------------------------------------------
      C    1   -0.28122      0.99967     2.27741    0.00415     3.28122
      C    2   -0.21129      0.99961     2.20488    0.00680     3.21129
      C    3    0.18641      0.99949     1.80019    0.01391     2.81359
      C    4   -0.16976      0.99951     2.16231    0.00794     3.16976
      C    5   -0.09710      0.99954     2.09028    0.00729     3.09710
      C    6    0.09514      0.99942     1.89219    0.01326     2.90486
      O    7   -0.22205      0.99985     3.21310    0.00910     4.22205
      C    8    0.27528      0.99960     1.70497    0.02015     2.72472
      O    9   -0.26828      0.99988     3.26196    0.00644     4.26828
      C   10   -0.23386      0.99958     2.22670    0.00758     3.23386
      C   11    0.02263      0.99950     1.96794    0.00993     2.97737
      C   12   -0.11327      0.99952     2.10568    0.00807     3.11327
      C   13   -0.06999      0.99953     2.06135    0.00911     3.06999
      C   14    0.04111      0.99939     1.94501    0.01449     2.95889
      C   15   -0.08137      0.99953     2.07247    0.00937     3.08137
      C   16   -0.11659      0.99952     2.10892    0.00815     3.11659
      N   17    0.28633      0.99972     2.18737    0.02658     3.21367
      O   18   -0.19612      0.99990     3.18868    0.00754     4.19612
      O   19   -0.19712      0.99990     3.18969    0.00753     4.19712
      H   20    0.09875      0.00000     0.40031    0.00093     0.40125
      H   21    0.09280      0.00000     0.40625    0.00095     0.40720
      H   22    0.10556      0.00000     0.39351    0.00093     0.39444
      H   23    0.10013      0.00000     0.39882    0.00105     0.39987
      H   24    0.10303      0.00000     0.39561    0.00136     0.39697
      H   25    0.10430      0.00000     0.39482    0.00088     0.39570
      H   26    0.10763      0.00000     0.39139    0.00098     0.39237
      H   27    0.10019      0.00000     0.39852    0.00130     0.39981
      H   28    0.11239      0.00000     0.38564    0.00197     0.38761
      H   29    0.10635      0.00000     0.39233    0.00132     0.39365
      H   30    0.11355      0.00000     0.38537    0.00109     0.38645
      H   31    0.11353      0.00000     0.38534    0.00113     0.38647
      H   32    0.09294      0.00000     0.40578    0.00128     0.40706
 =======================================================================
   * Total *    0.00000     18.99265    48.79481    0.21254    68.00000

 Normal termination of Gaussian 16 at Mon Dec 14 17:47:25 2020.
