 Gaussian 16, Revision A.03,

 -----------------------------------------------------------
 # opt freq B3LYP/6-31G(d) empiricaldispersion=gd3bj scf=xqc
 -----------------------------------------------------------

 -------------------------------
 CID_116085373_JID_3224_neutraal
 -------------------------------
 Symbolic Z-matrix:
 Charge =  0 Multiplicity = 1

 SCF Done:  E(RB3LYP) =  -1257.31392134     A.U. after   15 cycles
 SCF Done:  E(RB3LYP) =  -1257.31895533     A.U. after   12 cycles
 SCF Done:  E(RB3LYP) =  -1257.31918592     A.U. after   12 cycles
 SCF Done:  E(RB3LYP) =  -1257.32026292     A.U. after   12 cycles
 SCF Done:  E(RB3LYP) =  -1257.32033812     A.U. after   11 cycles
 SCF Done:  E(RB3LYP) =  -1257.32036311     A.U. after   10 cycles
 SCF Done:  E(RB3LYP) =  -1257.32037518     A.U. after    9 cycles
 SCF Done:  E(RB3LYP) =  -1257.32037597     A.U. after    8 cycles
 SCF Done:  E(RB3LYP) =  -1257.32037615     A.U. after    8 cycles
 SCF Done:  E(RB3LYP) =  -1257.32037618     A.U. after    6 cycles
 Optimization completed.
    -- Stationary point found.
 Normal termination of Gaussian 16 at Wed Dec  9 22:28:38 2020.

 --------------------------------------------------------------------
 #N Geom=AllCheck Guess=TCheck SCRF=Check GenChk RB3LYP/6-31G(d) Freq
 --------------------------------------------------------------------

 Structure from the checkpoint file:  "JID_3224.chk"
 -------------------------------
 CID_116085373_JID_3224_neutraal
 -------------------------------
 Charge =  0 Multiplicity = 1

 SCF Done:  E(RB3LYP) =  -1257.32037618     A.U. after    1 cycles

  Exact polarizability: 161.077  -6.186 128.048  -4.167  -7.206 111.349
 Approx polarizability: 221.533  -8.952 213.263 -14.275 -31.374 195.204

                      1                      2                      3
                      A                      A                      A
 Frequencies --     49.0976                64.8683                71.1048
 Red. masses --      4.0802                 1.3647                 2.4798
 Frc consts  --      0.0058                 0.0034                 0.0074
 IR Inten    --      0.1025                 0.6866                 0.4382

                      4                      5                      6
                      A                      A                      A
 Frequencies --     96.6775               168.4047               197.1064
 Red. masses --      3.1568                 5.5800                 2.9881
 Frc consts  --      0.0174                 0.0932                 0.0684
 IR Inten    --      0.5803                 1.0403                 2.4646

                      7                      8                      9
                      A                      A                      A
 Frequencies --    230.6850               255.6378               263.5342
 Red. masses --      3.2322                 2.2244                 1.7911
 Frc consts  --      0.1013                 0.0856                 0.0733
 IR Inten    --      2.3703                 1.7616                 1.3968

                     10                     11                     12
                      A                      A                      A
 Frequencies --    272.8676               300.7681               365.5616
 Red. masses --      2.5288                 4.1047                 3.8713
 Frc consts  --      0.1109                 0.2188                 0.3048
 IR Inten    --      0.8406                 1.6686                 2.3251

                     13                     14                     15
                      A                      A                      A
 Frequencies --    381.2208               384.3363               460.3129
 Red. masses --      5.3906                 2.0843                 2.7975
 Frc consts  --      0.4616                 0.1814                 0.3492
 IR Inten    --      3.6732                 0.8142                11.9509

                     16                     17                     18
                      A                      A                      A
 Frequencies --    482.0467               516.4919               573.1454
 Red. masses --      3.3881                 5.0223                 5.2094
 Frc consts  --      0.4639                 0.7894                 1.0082
 IR Inten    --     11.0765                 0.1664                 4.2901

                     19                     20                     21
                      A                      A                      A
 Frequencies --    610.2863               627.9617               657.3551
 Red. masses --      5.3157                 4.7547                 3.6365
 Frc consts  --      1.1665                 1.1047                 0.9258
 IR Inten    --      5.1788                16.4021                 5.5542

                     22                     23                     24
                      A                      A                      A
 Frequencies --    666.4650               704.6821               745.0560
 Red. masses --      3.6072                 2.6354                 3.7875
 Frc consts  --      0.9440                 0.7710                 1.2387
 IR Inten    --      2.7137                42.5931                66.7125

                     25                     26                     27
                      A                      A                      A
 Frequencies --    770.5380               789.3514               827.0155
 Red. masses --      1.5636                 1.9148                 2.7036
 Frc consts  --      0.5470                 0.7030                 1.0895
 IR Inten    --     21.3784                21.1071                79.2118

                     28                     29                     30
                      A                      A                      A
 Frequencies --    859.5739               908.2137               927.4859
 Red. masses --      3.8281                 2.5407                 1.8837
 Frc consts  --      1.6665                 1.2348                 0.9547
 IR Inten    --      5.3152                 4.8796                 6.2790

                     31                     32                     33
                      A                      A                      A
 Frequencies --    958.4617               984.4062              1008.7388
 Red. masses --      2.1477                 2.3946                 1.9169
 Frc consts  --      1.1624                 1.3672                 1.1493
 IR Inten    --      3.9680                14.1363                10.0849

                     34                     35                     36
                      A                      A                      A
 Frequencies --   1029.1038              1062.5997              1064.2297
 Red. masses --      2.1385                 1.7519                 1.4260
 Frc consts  --      1.3344                 1.1655                 0.9516
 IR Inten    --      3.1589                 2.3640                 1.0214

                     37                     38                     39
                      A                      A                      A
 Frequencies --   1100.6876              1123.6371              1146.0832
 Red. masses --      1.6250                 1.7514                 1.5553
 Frc consts  --      1.1599                 1.3028                 1.2036
 IR Inten    --     16.8372                 6.5750                21.6604

                     40                     41                     42
                      A                      A                      A
 Frequencies --   1178.2284              1201.1951              1217.7281
 Red. masses --      2.0687                 2.3936                 1.5755
 Frc consts  --      1.6920                 2.0348                 1.3764
 IR Inten    --     35.2656                32.4771                 3.9213

                     43                     44                     45
                      A                      A                      A
 Frequencies --   1249.1994              1263.6669              1321.6975
 Red. masses --      1.3783                 1.5363                 2.8005
 Frc consts  --      1.2673                 1.4454                 2.8823
 IR Inten    --     35.6384                29.2135                 5.3757

                     46                     47                     48
                      A                      A                      A
 Frequencies --   1336.4942              1342.9213              1361.7150
 Red. masses --      1.3527                 1.1787                 1.4612
 Frc consts  --      1.4236                 1.2524                 1.5963
 IR Inten    --      3.1813                12.4823                 7.6781

                     49                     50                     51
                      A                      A                      A
 Frequencies --   1401.1801              1428.0584              1433.0229
 Red. masses --      1.3515                 1.3156                 1.2645
 Frc consts  --      1.5633                 1.5807                 1.5300
 IR Inten    --      1.0777                 1.0858                 1.2837

                     52                     53                     54
                      A                      A                      A
 Frequencies --   1438.9117              1498.1407              1505.0153
 Red. masses --      1.3088                 1.0794                 1.1616
 Frc consts  --      1.5966                 1.4274                 1.5502
 IR Inten    --     12.5627                 1.2591                17.7457

                     55                     56                     57
                      A                      A                      A
 Frequencies --   1508.2668              1508.6766              1522.0247
 Red. masses --      1.0456                 1.0975                 1.0593
 Frc consts  --      1.4015                 1.4718                 1.4458
 IR Inten    --     10.5925                 4.3875                 7.0097

                     58                     59                     60
                      A                      A                      A
 Frequencies --   1529.7219              1542.9711              1557.5407
 Red. masses --      1.2717                 1.0750                 4.9289
 Frc consts  --      1.7533                 1.5079                 7.0450
 IR Inten    --      4.9957                 6.5285                 0.7805

                     61                     62                     63
                      A                      A                      A
 Frequencies --   1591.2387              3032.3625              3049.3504
 Red. masses --      6.6140                 1.0631                 1.0829
 Frc consts  --      9.8669                 5.7596                 5.9326
 IR Inten    --     53.6002                22.3251                47.2142

                     64                     65                     66
                      A                      A                      A
 Frequencies --   3056.5556              3063.5955              3070.8324
 Red. masses --      1.0372                 1.0420                 1.0775
 Frc consts  --      5.7090                 5.7624                 5.9867
 IR Inten    --     18.3541                23.4037                 5.6433

                     67                     68                     69
                      A                      A                      A
 Frequencies --   3074.6081              3082.5665              3111.6565
 Red. masses --      1.0853                 1.0827                 1.1016
 Frc consts  --      6.0447                 6.0614                 6.2842
 IR Inten    --      9.4454                46.0886                10.9472

                     70                     71                     72
                      A                      A                      A
 Frequencies --   3123.5734              3133.6440              3157.4201
 Red. masses --      1.1062                 1.0967                 1.1026
 Frc consts  --      6.3588                 6.3449                 6.4762
 IR Inten    --     15.3276                39.3235                13.1350

                     73                     74                     75
                      A                      A                      A
 Frequencies --   3159.5472              3295.0182              3513.9766
 Red. masses --      1.1008                 1.0941                 1.0743
 Frc consts  --      6.4748                 6.9987                 7.8158
 IR Inten    --      4.6133                 2.7281                 0.3065

 - Thermochemistry -
 -------------------
 Temperature   298.150 Kelvin.  Pressure   1.00000 Atm.
 Atom     1 has atomic number  6 and mass  12.00000

 Molecular mass:   214.05984 amu.
 Principal axes and moments of inertia in atomic units:
                           1         2         3
     Eigenvalues --  1606.965004140.272174715.72454
           X            0.99984  -0.00493   0.01691
           Y            0.00466   0.99987   0.01562
           Z           -0.01699  -0.01553   0.99974
 This molecule is an asymmetric top.
 Rotational symmetry number  1.
 Warning -- assumption of classical behavior for rotation
           may cause significant error
 Rotational temperatures (Kelvin)      0.05390     0.02092     0.01837
 Rotational constants (GHZ):           1.12307     0.43590     0.38271
 Zero-point vibrational energy     589568.3 (Joules/Mol)
                                  140.91021 (Kcal/Mol)
 Warning -- explicit consideration of  19 degrees of freedom as
           vibrations may cause significant error
 Vibrational temperatures:     70.64    93.33   102.30   139.10   242.30
          (Kelvin)            283.59   331.90   367.81   379.17   392.60
                              432.74   525.96   548.49   552.97   662.29
                              693.56   743.12   824.63   878.07   903.50
                              945.79   958.89  1013.88  1071.97  1108.63
                             1135.70  1189.89  1236.74  1306.72  1334.45
                             1379.01  1416.34  1451.35  1480.65  1528.84
                             1531.19  1583.64  1616.66  1648.96  1695.21
                             1728.25  1752.04  1797.32  1818.13  1901.63
                             1922.92  1932.16  1959.20  2015.99  2054.66
                             2061.80  2070.27  2155.49  2165.38  2170.06
                             2170.65  2189.85  2200.93  2219.99  2240.95
                             2289.44  4362.89  4387.34  4397.70  4407.83
                             4418.24  4423.68  4435.13  4476.98  4494.13
                             4508.61  4542.82  4545.88  4740.80  5055.83

 Zero-point correction=                           0.224555 (Hartree/Particle)
 Thermal correction to Energy=                    0.237577
 Thermal correction to Enthalpy=                  0.238521
 Thermal correction to Gibbs Free Energy=         0.184615
 Sum of electronic and zero-point Energies=          -1257.095821
 Sum of electronic and thermal Energies=             -1257.082799
 Sum of electronic and thermal Enthalpies=           -1257.081855
 Sum of electronic and thermal Free Energies=        -1257.135761

                     E (Thermal)             CV                S
                      KCal/Mol        Cal/Mol-Kelvin    Cal/Mol-Kelvin
 Total                  149.082             49.989            113.454
 Electronic               0.000              0.000              0.000
 Translational            0.889              2.981             41.987
 Rotational               0.889              2.981             31.818
 Vibrational            147.304             44.027             39.650
 Vibration     1          0.595              1.978              4.853
 Vibration     2          0.597              1.971              4.303
 Vibration     3          0.598              1.968              4.123
 Vibration     4          0.603              1.952              3.520
 Vibration     5          0.625              1.881              2.453
 Vibration     6          0.636              1.844              2.160
 Vibration     7          0.652              1.794              1.874
 Vibration     8          0.666              1.753              1.691
 Vibration     9          0.670              1.740              1.638
 Vibration    10          0.676              1.723              1.578
 Vibration    11          0.693              1.672              1.413
 Vibration    12          0.739              1.543              1.098
 Vibration    13          0.751              1.510              1.034
 Vibration    14          0.753              1.504              1.022
 Vibration    15          0.818              1.338              0.765
 Vibration    16          0.838              1.290              0.705
 Vibration    17          0.872              1.213              0.618
 Vibration    18          0.929              1.089              0.498
 Vibration    19          0.969              1.010              0.432

                           ! Non-Optimized Parameters !
 Normal termination of Gaussian 16 at Wed Dec  9 22:36:55 2020.

 ----------------------------------------------------------------------
 # B3LYP/6-311++G(d,p) empiricaldispersion=gd3bj scf=xqc pop=npa geom=c
 heck
 ----------------------------------------------------------------------

 ---------------------------------------
 CID_116085373_JID_3224_Energie_neutraal
 ---------------------------------------
 Structure from the checkpoint file:  "JID_3224.chk"
 Charge =  0 Multiplicity = 1

 SCF Done:  E(RB3LYP) =  -1257.49942922     A.U. after   15 cycles
 Normal termination of Gaussian 16 at Wed Dec  9 22:40:59 2020.

 ----------------------------------------------------------------------
 # B3LYP/6-311++G(d,p) empiricaldispersion=gd3bj scf=xqc pop=npa geom=c
 heck
 ----------------------------------------------------------------------

 -------------------------------------
 CID_116085373_JID_3224_Energie_kation
 -------------------------------------
 Structure from the checkpoint file:  "JID_3224.chk"
 Charge =  1 Multiplicity = 2

 SCF Done:  E(UB3LYP) =  -1257.21365432     A.U. after   26 cycles
 Normal termination of Gaussian 16 at Wed Dec  9 22:50:59 2020.
 Gaussian 16:  ES64L-G16RevA.03 25-Dec-2016

 ----------------------------------------------------------------------
 # B3LYP/6-311++G(d,p) empiricaldispersion=gd3bj scf=xqc pop=npa geom=c
 heck
 ----------------------------------------------------------------------

 ------------------------------------
 CID_116085373_JID_3224_Energie_anion
 ------------------------------------
 Structure from the checkpoint file:  "JID_3224.chk"
 Charge = -1 Multiplicity = 2

                         Standard orientation:
 ---------------------------------------------------------------------
 Center     Atomic      Atomic             Coordinates (Angstroms)
 Number     Number       Type             X           Y           Z
 ---------------------------------------------------------------------
      1          6           0        0.707441    1.975779    1.087090
      2          6           0        1.836834    1.635043    0.107856
      3          6           0        2.929196    0.752166    0.749005
      4          6           0        2.488102   -0.691525    0.991944
      5         16           0        2.034127   -1.543721   -0.572688
      6          6           0        0.813090   -0.254297   -1.191486
      7          7           0        1.320670    1.098385   -1.166703
      8          6           0       -0.542103   -0.378063   -0.524669
      9          6           0       -0.937520   -1.338461    0.361985
     10         16           0       -2.586550   -1.081244    0.836540
     11          6           0       -2.632875    0.326082   -0.231491
     12          7           0       -1.515857    0.549309   -0.855858
     13          6           0       -3.866004    1.161314   -0.379129
     14          1           0        1.105485    2.577289    1.912255
     15          1           0        0.241474    1.085265    1.516458
     16          1           0       -0.071572    2.543120    0.572686
     17          1           0        2.309828    2.584543   -0.171197
     18          1           0        3.814034    0.743877    0.100335
     19          1           0        3.232231    1.199006    1.705882
     20          1           0        1.644087   -0.738489    1.687298
     21          1           0        3.303220   -1.280124    1.422249
     22          1           0        0.689060   -0.521628   -2.246031
     23          1           0        2.051850    1.171551   -1.869542
     24          1           0       -0.359129   -2.166284    0.742823
     25          1           0       -4.713347    0.567666   -0.740213
     26          1           0       -4.159279    1.614377    0.574782
     27          1           0       -3.659843    1.957183   -1.098123
 ---------------------------------------------------------------------

 SCF Done:  E(UB3LYP) =  -1257.48615240     A.U. after   33 cycles
 SCF Done:  E(UB3LYP) =  -1257.48615240     a.u. after    1 cycles

 The electronic state is 2-A.
 Alpha  occ. eigenvalues --  -88.76441 -88.72477 -14.19609 -14.19332 -10.12721
 Alpha  occ. eigenvalues --  -10.12236 -10.09334 -10.09245 -10.09102 -10.07907
 Alpha  occ. eigenvalues --  -10.07837 -10.06167 -10.04171  -7.85097  -7.81144
 Alpha  occ. eigenvalues --   -5.81365  -5.81025  -5.80712  -5.77490  -5.77198
 Alpha  occ. eigenvalues --   -5.76523  -0.85252  -0.81062  -0.69048  -0.68635
 Alpha  occ. eigenvalues --   -0.68062  -0.65623  -0.60390  -0.57386  -0.53311
 Alpha  occ. eigenvalues --   -0.51483  -0.47140  -0.44192  -0.42040  -0.40576
 Alpha  occ. eigenvalues --   -0.37375  -0.35443  -0.34003  -0.33903  -0.32746
 Alpha  occ. eigenvalues --   -0.32074  -0.30865  -0.29247  -0.28945  -0.27706
 Alpha  occ. eigenvalues --   -0.27439  -0.26955  -0.25800  -0.23874  -0.23255
 Alpha  occ. eigenvalues --   -0.22024  -0.20740  -0.17340  -0.16328  -0.13212
 Alpha  occ. eigenvalues --   -0.12987  -0.10796   0.04755
 Alpha virt. eigenvalues --    0.06733   0.07060   0.07948   0.08323   0.09145
 Alpha virt. eigenvalues --    0.09946   0.10411   0.10455   0.11088   0.11359
 Alpha virt. eigenvalues --    0.12025   0.12591   0.12979   0.13205   0.13806

  Beta  occ. eigenvalues --  -88.76422 -88.72473 -14.19606 -14.19308 -10.12723
  Beta  occ. eigenvalues --  -10.12084 -10.09314 -10.09238 -10.09087 -10.07831
  Beta  occ. eigenvalues --  -10.07763 -10.06142 -10.04151  -7.85079  -7.81139
  Beta  occ. eigenvalues --   -5.81359  -5.81019  -5.80648  -5.77487  -5.77195
  Beta  occ. eigenvalues --   -5.76516  -0.85136  -0.81008  -0.68998  -0.68516
  Beta  occ. eigenvalues --   -0.67944  -0.65529  -0.60333  -0.57316  -0.53208
  Beta  occ. eigenvalues --   -0.51441  -0.46979  -0.44071  -0.41941  -0.40493
  Beta  occ. eigenvalues --   -0.37306  -0.35384  -0.33925  -0.33675  -0.32678
  Beta  occ. eigenvalues --   -0.32032  -0.30786  -0.29213  -0.28847  -0.27619
  Beta  occ. eigenvalues --   -0.27304  -0.26899  -0.25685  -0.23782  -0.23212
  Beta  occ. eigenvalues --   -0.21968  -0.20708  -0.16961  -0.16290  -0.13132
  Beta  occ. eigenvalues --   -0.12401  -0.10751
  Beta virt. eigenvalues --    0.07010   0.07440   0.08003   0.08604   0.08818
  Beta virt. eigenvalues --    0.09446   0.10303   0.10540   0.10868   0.11478
  Beta virt. eigenvalues --    0.11544   0.12357   0.12728   0.13131   0.13306

 Mulliken charges and spin densities:
               1          2
     1  C    0.192796  -0.806926
     2  C    0.067761  -0.016771
     3  C    0.401725  -1.106694
     4  C   -0.261158  -0.056239
     5  S    0.323159  -0.354145
     6  C   -0.103592  -0.025671
     7  N   -0.094590  -0.031399
     8  C   -0.167649  -1.199375
     9  C   -0.566741   1.114373
    10  S   -0.109118  -0.397613
    11  C    0.026011   0.504113
    12  N    0.028758   0.103499
    13  C    0.509663  -0.593604
    14  H   -0.452207   0.601278
    15  H    0.000097   0.133088
    16  H    0.227048  -0.061915
    17  H   -0.579787   0.789631
    18  H   -0.247152   0.390021
    19  H   -0.246553   0.395086
    20  H    0.243651  -0.074357
    21  H   -0.046413   0.286709
    22  H    0.000010   0.281141
    23  H   -0.068184   0.337877
    24  H    0.051252   0.179125
    25  H    0.104581   0.037797
    26  H   -0.269299   0.443274
    27  H    0.035931   0.127698
 Sum of Mulliken charges =  -1.00000   1.00000

 Dipole moment (field-independent basis, Debye):
    X=             -3.4917    Y=             -4.5888    Z=             -0.0636  Tot=              5.7665
 Quadrupole moment (field-independent basis, Debye-Ang):
   XX=           -152.5601   YY=           -135.7263   ZZ=           -123.4106
   XY=             -5.4575   XZ=              3.9799   YZ=             -5.1342

 Summary of Natural Population Analysis:

                                       Natural Population
                Natural  -----------------------------------------------
    Atom  No    Charge         Core      Valence    Rydberg      Total
 -----------------------------------------------------------------------
      C    1   -0.29287      0.99964     2.28650    0.00672     3.29287
      C    2   -0.01142      0.99959     1.99679    0.01504     3.01142
      C    3   -0.20257      0.99960     2.19209    0.01088     3.20257
      C    4   -0.25099      0.99958     2.24076    0.01065     3.25099
      S    5    0.05910      4.99966     2.92611    0.01513     7.94090
      C    6   -0.06515      0.99951     2.04656    0.01908     3.06515
      N    7   -0.32775      0.99971     2.81403    0.01401     3.82775
      C    8    0.04797      0.99943     1.93662    0.01598     2.95203
      C    9   -0.18270      0.99943     2.17420    0.00906     3.18270
      S   10    0.17138      4.99943     2.80985    0.01934     7.82862
      C   11    0.06268      0.99962     1.92004    0.01766     2.93732
      N   12   -0.24217      0.99962     2.73168    0.01087     3.74217
      C   13   -0.30859      0.99961     2.30272    0.00627     3.30859
      H   14    0.09877      0.00000     0.39998    0.00125     0.40123
      H   15    0.09824      0.00000     0.40006    0.00170     0.40176
      H   16    0.10926      0.00000     0.38940    0.00134     0.39074
      H   17    0.09762      0.00000     0.39953    0.00285     0.40238
      H   18    0.10074      0.00000     0.39705    0.00221     0.39926
      H   19    0.10250      0.00000     0.39593    0.00157     0.39750
      H   20    0.09922      0.00000     0.39904    0.00174     0.40078
      H   21    0.10420      0.00000     0.39475    0.00105     0.39580
      H   22    0.10979      0.00000     0.38896    0.00125     0.39021
      H   23    0.18023      0.00000     0.31647    0.00330     0.31977
      H   24    0.11654      0.00000     0.38214    0.00133     0.38346
      H   25    0.10257      0.00000     0.39660    0.00082     0.39743
      H   26    0.11007      0.00000     0.38790    0.00203     0.38993
      H   27    0.11332      0.00000     0.38549    0.00119     0.38668
 =======================================================================
   * Total *   -0.00000     20.99443    35.81126    0.19431    57.00000

 Normal termination of Gaussian 16 at Wed Dec  9 23:03:38 2020.
