 Gaussian 16, Revision A.03,

 -----------------------------------------------------------
 # opt freq B3LYP/6-31G(d) empiricaldispersion=gd3bj scf=xqc
 -----------------------------------------------------------

 -----------------------------
 CID_10909637_JID_695_neutraal
 -----------------------------
 Symbolic Z-matrix:
 Charge =  0 Multiplicity = 1

 SCF Done:  E(RB3LYP) =  -426.648737471     A.U. after   14 cycles
 SCF Done:  E(RB3LYP) =  -426.650558199     A.U. after   13 cycles
 SCF Done:  E(RB3LYP) =  -426.650342091     A.U. after   12 cycles
 SCF Done:  E(RB3LYP) =  -426.650896493     A.U. after   12 cycles
 SCF Done:  E(RB3LYP) =  -426.650922928     A.U. after   11 cycles
 SCF Done:  E(RB3LYP) =  -426.650953066     A.U. after   10 cycles
 SCF Done:  E(RB3LYP) =  -426.650960581     A.U. after   10 cycles
 SCF Done:  E(RB3LYP) =  -426.650962988     A.U. after   10 cycles
 SCF Done:  E(RB3LYP) =  -426.650963562     A.U. after    9 cycles
 SCF Done:  E(RB3LYP) =  -426.650963684     A.U. after    8 cycles
 Optimization completed.
    -- Stationary point found.

 1\1\GINC-NODE209\FOpt\RB3LYP\6-31G(d)\C9H14O1\VSC10255\08-Dec-2020\0\\
 # opt freq B3LYP/6-31G(d) empiricaldispersion=gd3bj scf=xqc\\CID_10909
 637_JID_695_neutraal\\0,1\C,1.1063629531,-0.0054847559,-0.1613862748\C
 ,0.0171251785,0.9926660417,0.2442185596\C,0.1762318043,2.3719748074,-0
 .4051047149\C,-0.0325638734,2.4451605702,-1.9017304546\C,-0.6622742524
 ,1.5096136655,-2.6382308267\C,-0.8598614658,1.5799025038,-4.1279200453
 \C,0.1273785054,2.5446085077,-4.7906434671\C,0.1507609387,3.8753388951
 ,-4.035512249\C,0.4664163612,3.6882602458,-2.5579525501\O,1.0666652271

 Normal termination of Gaussian 16 at Tue Dec  8 12:26:41 2020.

 --------------------------------------------------------------------
 #N Geom=AllCheck Guess=TCheck SCRF=Check GenChk RB3LYP/6-31G(d) Freq
 --------------------------------------------------------------------

 Structure from the checkpoint file:  "JID_695.chk"
 -----------------------------
 CID_10909637_JID_695_neutraal
 -----------------------------
 Charge =  0 Multiplicity = 1

 SCF Done:  E(RB3LYP) =  -426.650963684     A.U. after    1 cycles

  Exact polarizability: 104.309  -3.483 105.122   1.831   3.743  70.889
 Approx polarizability: 125.744  -5.734 180.510   1.524  13.716 106.005

                      1                      2                      3
                      A                      A                      A
 Frequencies --     39.1953                77.2105               115.9769
 Red. masses --      2.8996                 3.5484                 2.5758
 Frc consts  --      0.0026                 0.0125                 0.0204
 IR Inten    --      0.3941                 2.7391                 0.4871

                      4                      5                      6
                      A                      A                      A
 Frequencies --    179.9356               208.9874               246.8423
 Red. masses --      1.2843                 2.4932                 2.2582
 Frc consts  --      0.0245                 0.0642                 0.0811
 IR Inten    --      0.5874                 0.1420                 4.1933

                      7                      8                      9
                      A                      A                      A
 Frequencies --    290.3472               300.4804               341.1693
 Red. masses --      1.9561                 1.9545                 2.8399
 Frc consts  --      0.0972                 0.1040                 0.1948
 IR Inten    --      1.0589                 1.9850                 0.6304

                     10                     11                     12
                      A                      A                      A
 Frequencies --    393.2566               466.5835               482.1495
 Red. masses --      2.7538                 2.5540                 4.2300
 Frc consts  --      0.2509                 0.3276                 0.5794
 IR Inten    --      2.7879                 0.5374                 1.6037

                     13                     14                     15
                      A                      A                      A
 Frequencies --    545.1346               609.3306               691.1591
 Red. masses --      4.2965                 2.1934                 2.9435
 Frc consts  --      0.7523                 0.4798                 0.8285
 IR Inten    --      8.1831                 0.7461                 3.2769

                     16                     17                     18
                      A                      A                      A
 Frequencies --    726.2664               800.8048               816.3298
 Red. masses --      2.8439                 1.3651                 1.3827
 Frc consts  --      0.8838                 0.5158                 0.5429
 IR Inten    --      4.8919                 3.9487                 7.6630

                     19                     20                     21
                      A                      A                      A
 Frequencies --    858.2649               891.4770               896.9889
 Red. masses --      2.5515                 1.8185                 2.1284
 Frc consts  --      1.1073                 0.8515                 1.0090
 IR Inten    --      5.6747                 0.6448                 2.2316

                     22                     23                     24
                      A                      A                      A
 Frequencies --    920.3282               939.4226               994.7037
 Red. masses --      1.8454                 1.3333                 2.3038
 Frc consts  --      0.9209                 0.6933                 1.3430
 IR Inten    --      3.4939                 6.6279                 4.1786

                     25                     26                     27
                      A                      A                      A
 Frequencies --   1054.6743              1080.1746              1088.7067
 Red. masses --      2.0961                 1.8288                 1.7887
 Frc consts  --      1.3737                 1.2572                 1.2491
 IR Inten    --      2.5501                 0.3604                 0.3751

                     28                     29                     30
                      A                      A                      A
 Frequencies --   1108.9239              1124.1510              1144.5134
 Red. masses --      1.9320                 1.9848                 1.8008
 Frc consts  --      1.3998                 1.4778                 1.3898
 IR Inten    --      1.5673                18.2426                 7.1083

                     31                     32                     33
                      A                      A                      A
 Frequencies --   1163.7525              1199.5288              1269.9925
 Red. masses --      1.2835                 1.9048                 1.2521
 Frc consts  --      1.0241                 1.6148                 1.1898
 IR Inten    --     15.9273                22.3558                 0.9852

                     34                     35                     36
                      A                      A                      A
 Frequencies --   1284.1522              1285.0614              1308.3055
 Red. masses --      1.5042                 1.2975                 1.2204
 Frc consts  --      1.4615                 1.2625                 1.2307
 IR Inten    --     13.1356                 2.8322                 1.2621

                     37                     38                     39
                      A                      A                      A
 Frequencies --   1364.7133              1371.4315              1391.2806
 Red. masses --      1.3863                 1.6784                 1.4706
 Frc consts  --      1.5212                 1.8599                 1.6771
 IR Inten    --      5.1727                13.2692                 7.8230

                     40                     41                     42
                      A                      A                      A
 Frequencies --   1396.8941              1398.2440              1428.2775
 Red. masses --      1.4781                 1.5186                 1.8426
 Frc consts  --      1.6993                 1.7493                 2.2146
 IR Inten    --      0.6285                 8.2562                14.4883

                     43                     44                     45
                      A                      A                      A
 Frequencies --   1443.7692              1490.4635              1502.1257
 Red. masses --      1.2815                 1.0888                 1.0918
 Frc consts  --      1.5739                 1.4251                 1.4515
 IR Inten    --      9.0959                 3.7624                 2.8479

                     46                     47                     48
                      A                      A                      A
 Frequencies --   1506.1720              1526.0193              1528.1917
 Red. masses --      1.0792                 1.0919                 1.0585
 Frc consts  --      1.4425                 1.4981                 1.4565
 IR Inten    --      6.5395                 1.9314                 4.4629

                     49                     50                     51
                      A                      A                      A
 Frequencies --   1529.5776              1542.3000              1712.4352
 Red. masses --      1.0453                 1.0745                 6.5007
 Frc consts  --      1.4410                 1.5059                11.2315
 IR Inten    --      5.1662                 4.7876                 8.1957

                     52                     53                     54
                      A                      A                      A
 Frequencies --   1772.0694              3000.0821              3020.5550
 Red. masses --     12.0722                 1.0716                 1.0704
 Frc consts  --     22.3357                 5.6826                 5.7542
 IR Inten    --    195.2425                24.6555                10.2029

                     55                     56                     57
                      A                      A                      A
 Frequencies --   3030.2115              3039.1008              3047.1754
 Red. masses --      1.0686                 1.0662                 1.0640
 Frc consts  --      5.7811                 5.8023                 5.8210
 IR Inten    --     14.0822                32.1989                22.2281

                     58                     59                     60
                      A                      A                      A
 Frequencies --   3050.1588              3066.1553              3067.8691
 Red. masses --      1.0367                 1.0870                 1.0965
 Frc consts  --      5.6826                 6.0210                 6.0804
 IR Inten    --     24.8363                49.5842                17.7595

                     61                     62                     63
                      A                      A                      A
 Frequencies --   3083.4987              3093.0031              3113.7182
 Red. masses --      1.0922                 1.1029                 1.1022
 Frc consts  --      6.1185                 6.2168                 6.2958
 IR Inten    --     17.3795                42.3493                35.9509

                     64                     65                     66
                      A                      A                      A
 Frequencies --   3116.0305              3123.7185              3170.7757
 Red. masses --      1.0929                 1.1016                 1.0886
 Frc consts  --      6.2520                 6.3330                 6.4486
 IR Inten    --     20.2753                49.7608                20.7334

 - Thermochemistry -
 -------------------
 Temperature   298.150 Kelvin.  Pressure   1.00000 Atm.
 Atom     1 has atomic number  6 and mass  12.00000

 Molecular mass:   138.10447 amu.
 Principal axes and moments of inertia in atomic units:
                           1         2         3
     Eigenvalues --   894.075141921.719862526.49944
           X            0.99989  -0.01410  -0.00382
           Y            0.01405   0.99983  -0.01168
           Z            0.00399   0.01162   0.99992
 This molecule is an asymmetric top.
 Rotational symmetry number  1.
 Warning -- assumption of classical behavior for rotation
           may cause significant error
 Rotational temperatures (Kelvin)      0.09688     0.04507     0.03428
 Rotational constants (GHZ):           2.01856     0.93913     0.71432
 Zero-point vibrational energy     561469.1 (Joules/Mol)
                                  134.19433 (Kcal/Mol)
 Warning -- explicit consideration of  14 degrees of freedom as
           vibrations may cause significant error
 Vibrational temperatures:     56.39   111.09   166.86   258.89   300.69
          (Kelvin)            355.15   417.74   432.32   490.87   565.81
                              671.31   693.71   784.33   876.69   994.42
                             1044.94  1152.18  1174.52  1234.85  1282.64
                             1290.57  1324.15  1351.62  1431.16  1517.44
                             1554.13  1566.41  1595.49  1617.40  1646.70
                             1674.38  1725.85  1827.24  1847.61  1848.92
                             1882.36  1963.52  1973.18  2001.74  2009.82
                             2011.76  2054.97  2077.26  2144.44  2161.22
                             2167.05  2195.60  2198.73  2200.72  2219.03
                             2463.81  2549.61  4316.45  4345.90  4359.80
                             4372.59  4384.21  4388.50  4411.51  4413.98
                             4436.47  4450.14  4479.95  4483.27  4494.33
                             4562.04

 Zero-point correction=                           0.213852 (Hartree/Particle)
 Thermal correction to Energy=                    0.224032
 Thermal correction to Enthalpy=                  0.224976
 Thermal correction to Gibbs Free Energy=         0.177845
 Sum of electronic and zero-point Energies=           -426.437111
 Sum of electronic and thermal Energies=              -426.426932
 Sum of electronic and thermal Enthalpies=            -426.425988
 Sum of electronic and thermal Free Energies=         -426.473119

                     E (Thermal)             CV                S
                      KCal/Mol        Cal/Mol-Kelvin    Cal/Mol-Kelvin
 Total                  140.582             38.346             99.196
 Electronic               0.000              0.000              0.000
 Translational            0.889              2.981             40.680
 Rotational               0.889              2.981             29.852
 Vibrational            138.805             32.384             28.663
 Vibration     1          0.594              1.981              5.299
 Vibration     2          0.599              1.964              3.961
 Vibration     3          0.608              1.936              3.166
 Vibration     4          0.629              1.867              2.329
 Vibration     5          0.642              1.827              2.053
 Vibration     6          0.661              1.768              1.753
 Vibration     7          0.686              1.692              1.472
 Vibration     8          0.693              1.673              1.414
 Vibration     9          0.721              1.593              1.207
 Vibration    10          0.760              1.485              0.988
 Vibration    11          0.824              1.324              0.747
 Vibration    12          0.838              1.290              0.704
 Vibration    13          0.900              1.150              0.554
 Vibration    14          0.968              1.012              0.434

 Optimization completed.
    -- Stationary point found.

 1\1\GINC-NODE209\Freq\RB3LYP\6-31G(d)\C9H14O1\VSC10255\08-Dec-2020\0\\
 #N Geom=AllCheck Guess=TCheck SCRF=Check GenChk RB3LYP/6-31G(d) Freq\\
 CID_10909637_JID_695_neutraal\\0,1\C,1.1063629531,-0.0054847559,-0.161
 3862748\C,0.0171251785,0.9926660417,0.2442185596\C,0.1762318043,2.3719
 748074,-0.4051047149\C,-0.0325638734,2.4451605702,-1.9017304546\C,-0.6
 622742524,1.5096136655,-2.6382308267\C,-0.8598614658,1.5799025038,-4.1
 279200453\C,0.1273785054,2.5446085077,-4.7906434671\C,0.1507609387,3.8
 753388951,-4.035512249\C,0.4664163612,3.6882602458,-2.5579525501\O,1.0

 Normal termination of Gaussian 16 at Tue Dec  8 12:32:29 2020.

 ----------------------------------------------------------------------
 # B3LYP/6-311++G(d,p) empiricaldispersion=gd3bj scf=xqc pop=npa geom=c
 heck
 ----------------------------------------------------------------------

 -------------------------------------
 CID_10909637_JID_695_Energie_neutraal
 -------------------------------------
 Structure from the checkpoint file:  "JID_695.chk"
 Charge =  0 Multiplicity = 1

 SCF Done:  E(RB3LYP) =  -426.769973533     A.U. after   14 cycles
 Normal termination of Gaussian 16 at Tue Dec  8 12:40:12 2020.

 ----------------------------------------------------------------------
 # B3LYP/6-311++G(d,p) empiricaldispersion=gd3bj scf=xqc pop=npa geom=c
 heck
 ----------------------------------------------------------------------

 -----------------------------------
 CID_10909637_JID_695_Energie_kation
 -----------------------------------
 Structure from the checkpoint file:  "JID_695.chk"
 Charge =  1 Multiplicity = 2

 SCF Done:  E(UB3LYP) =  -426.444487087     A.U. after   25 cycles
 Normal termination of Gaussian 16 at Tue Dec  8 12:50:22 2020.
 Gaussian 16:  ES64L-G16RevA.03 25-Dec-2016

 ----------------------------------
 CID_10909637_JID_695_Energie_anion
 ----------------------------------
 Structure from the checkpoint file:  "JID_695.chk"
 Charge = -1 Multiplicity = 2

                         Standard orientation:
 ---------------------------------------------------------------------
 Center     Atomic      Atomic             Coordinates (Angstroms)
 Number     Number       Type             X           Y           Z
 ---------------------------------------------------------------------
      1          6           0       -2.993572   -0.696206    0.932314
      2          6           0       -2.739519   -0.040331   -0.428767
      3          6           0       -1.508149    0.872199   -0.449886
      4          6           0       -0.162081    0.198488   -0.298049
      5          6           0        0.067339   -1.115285   -0.486683
      6          6           0        1.404898   -1.784653   -0.325314
      7          6           0        2.360602   -0.952514    0.534150
      8          6           0        2.371085    0.500409    0.054028
      9          6           0        0.974279    1.105694    0.034469
     10          8           0        0.796517    2.298474    0.239248
     11          1           0       -2.150955   -1.322368    1.243353
     12          1           0       -3.890415   -1.325162    0.909271
     13          1           0       -3.138341    0.066609    1.706566
     14          1           0       -2.657565   -0.809745   -1.208513
     15          1           0       -3.612613    0.564853   -0.702766
     16          1           0       -1.493774    1.452422   -1.383698
     17          1           0       -1.592536    1.626418    0.341462
     18          1           0       -0.759130   -1.760237   -0.779468
     19          1           0        1.845148   -1.951250   -1.322364
     20          1           0        1.264941   -2.784115    0.105551
     21          1           0        3.370991   -1.375692    0.509957
     22          1           0        2.022557   -0.985633    1.578066
     23          1           0        2.760117    0.546089   -0.975197
     24          1           0        3.010151    1.143204    0.666226
 ---------------------------------------------------------------------

 SCF Done:  E(UB3LYP) =  -426.762347324     A.U. after   33 cycles
 SCF Done:  E(UB3LYP) =  -426.762347324     a.u. after    1 cycles

 The electronic state is 2-A.
 Alpha  occ. eigenvalues --  -18.91699 -10.05890 -10.04257 -10.04047 -10.03744
 Alpha  occ. eigenvalues --  -10.02892 -10.02735 -10.02374 -10.00726 -10.00510
 Alpha  occ. eigenvalues --   -0.85655  -0.69051  -0.65897  -0.60460  -0.57845
 Alpha  occ. eigenvalues --   -0.53800  -0.47934  -0.44978  -0.42699  -0.35434
 Alpha  occ. eigenvalues --   -0.33945  -0.31435  -0.31224  -0.29641  -0.29523
 Alpha  occ. eigenvalues --   -0.28159  -0.25831  -0.25054  -0.24551  -0.23771
 Alpha  occ. eigenvalues --   -0.21548  -0.21120  -0.21058  -0.18992  -0.18611
 Alpha  occ. eigenvalues --   -0.18023  -0.10430  -0.07584   0.06045
 Alpha virt. eigenvalues --    0.08036   0.08819   0.10247   0.10435   0.11245
 Alpha virt. eigenvalues --    0.11480   0.11924   0.13118   0.13356   0.13844
 Alpha virt. eigenvalues --    0.14216   0.15300   0.15906   0.16442   0.18806

  Beta  occ. eigenvalues --  -18.91266 -10.05567 -10.04242 -10.04073 -10.03741
  Beta  occ. eigenvalues --  -10.02919 -10.02693 -10.02379 -10.00690 -10.00097
  Beta  occ. eigenvalues --   -0.84847  -0.68757  -0.65866  -0.60196  -0.57532
  Beta  occ. eigenvalues --   -0.53585  -0.47770  -0.44797  -0.42026  -0.35219
  Beta  occ. eigenvalues --   -0.33762  -0.31307  -0.31151  -0.29333  -0.29236
  Beta  occ. eigenvalues --   -0.27751  -0.25711  -0.24974  -0.24162  -0.23113
  Beta  occ. eigenvalues --   -0.21418  -0.21060  -0.21001  -0.18752  -0.17877
  Beta  occ. eigenvalues --   -0.17147  -0.08622  -0.07204
  Beta virt. eigenvalues --    0.08445   0.08941   0.10127   0.10359   0.11328
  Beta virt. eigenvalues --    0.11692   0.11916   0.12581   0.13262   0.13301
  Beta virt. eigenvalues --    0.13874   0.14382   0.15407   0.15936   0.16442

 Mulliken charges and spin densities:
               1          2
     1  C    0.752548  -1.340363
     2  C   -0.754685   0.727727
     3  C    0.012742  -0.332565
     4  C    1.216947   0.102580
     5  C   -1.021378   0.394742
     6  C   -0.385711  -0.203022
     7  C   -0.162797  -0.067389
     8  C   -0.027391  -0.048167
     9  C   -0.620501   0.212469
    10  O   -0.400873   0.156727
    11  H   -0.118394   0.272651
    12  H   -0.548217   0.658794
    13  H   -0.068070   0.190395
    14  H    0.127619  -0.024194
    15  H   -0.009220   0.147897
    16  H    0.155589  -0.003547
    17  H    0.130931   0.032864
    18  H    0.103744  -0.003764
    19  H    0.093768   0.035021
    20  H    0.086286   0.035992
    21  H    0.130424  -0.017105
    22  H    0.086238   0.027920
    23  H    0.109295   0.015658
    24  H    0.111105   0.028681
 Sum of Mulliken charges =  -1.00000   1.00000

 Dipole moment (field-independent basis, Debye):
    X=              3.6140    Y=             -1.9616    Z=             -2.2151  Tot=              4.6707
 Quadrupole moment (field-independent basis, Debye-Ang):
   XX=           -102.3771   YY=            -93.5221   ZZ=            -76.3154
   XY=            -11.8186   XZ=              7.2075   YZ=              1.1246

 Summary of Natural Population Analysis:

                                       Natural Population
                Natural  -----------------------------------------------
    Atom  No    Charge         Core      Valence    Rydberg      Total
 -----------------------------------------------------------------------
      C    1   -0.28765      0.99967     2.28261    0.00538     3.28765
      C    2   -0.18952      0.99965     2.18065    0.00921     3.18952
      C    3   -0.19972      0.99960     2.18967    0.01045     3.19972
      C    4   -0.06392      0.99944     2.05350    0.01098     3.06392
      C    5    0.00174      0.99950     1.98903    0.00973     2.99826
      C    6   -0.20784      0.99963     2.19710    0.01111     3.20784
      C    7   -0.18236      0.99964     2.17582    0.00690     3.18236
      C    8   -0.22658      0.99961     2.21969    0.00728     3.22658
      C    9    0.30432      0.99960     1.67395    0.02213     2.69568
      O   10   -0.27415      0.99988     3.26780    0.00647     4.27415
      H   11    0.10403      0.00000     0.39465    0.00132     0.39597
      H   12    0.09365      0.00000     0.40479    0.00156     0.40635
      H   13    0.09332      0.00000     0.40564    0.00104     0.40668
      H   14    0.08969      0.00000     0.40913    0.00117     0.41031
      H   15    0.08965      0.00000     0.40937    0.00098     0.41035
      H   16    0.09718      0.00000     0.40165    0.00117     0.40282
      H   17    0.10738      0.00000     0.39130    0.00131     0.39262
      H   18    0.08276      0.00000     0.41594    0.00130     0.41724
      H   19    0.09569      0.00000     0.40317    0.00114     0.40431
      H   20    0.09521      0.00000     0.40355    0.00124     0.40479
      H   21    0.08653      0.00000     0.41219    0.00128     0.41347
      H   22    0.09315      0.00000     0.40548    0.00137     0.40685
      H   23    0.09819      0.00000     0.40083    0.00098     0.40181
      H   24    0.09925      0.00000     0.39852    0.00223     0.40075
 =======================================================================
   * Total *    0.00000      9.99621    27.88604    0.11774    38.00000

 Normal termination of Gaussian 16 at Tue Dec  8 13:05:31 2020.
