 Gaussian 16, Revision A.03,

 -----------------------------------------------------------
 # opt freq B3LYP/6-31G(d) empiricaldispersion=gd3bj scf=xqc
 -----------------------------------------------------------

 ------------------------------
 CID_82075954_JID_4593_neutraal
 ------------------------------
 Symbolic Z-matrix:
 Charge =  0 Multiplicity = 1

 SCF Done:  E(RB3LYP) =  -618.609471578     A.U. after   14 cycles
 SCF Done:  E(RB3LYP) =  -618.612801339     A.U. after   12 cycles
 SCF Done:  E(RB3LYP) =  -618.613470980     A.U. after   11 cycles
 SCF Done:  E(RB3LYP) =  -618.613716726     A.U. after   11 cycles
 SCF Done:  E(RB3LYP) =  -618.614156468     A.U. after   10 cycles
 SCF Done:  E(RB3LYP) =  -618.614374021     A.U. after   11 cycles
 SCF Done:  E(RB3LYP) =  -618.614404615     A.U. after   10 cycles
 SCF Done:  E(RB3LYP) =  -618.614413024     A.U. after    9 cycles
 SCF Done:  E(RB3LYP) =  -618.614414470     A.U. after    8 cycles
 SCF Done:  E(RB3LYP) =  -618.614414902     A.U. after    7 cycles
 SCF Done:  E(RB3LYP) =  -618.614415057     A.U. after    7 cycles
 Optimization completed.
    -- Stationary point found.
 Normal termination of Gaussian 16 at Thu Dec 10 10:07:12 2020.

 --------------------------------------------------------------------
 #N Geom=AllCheck Guess=TCheck SCRF=Check GenChk RB3LYP/6-31G(d) Freq
 --------------------------------------------------------------------

 Structure from the checkpoint file:  "JID_4593.chk"
 ------------------------------
 CID_82075954_JID_4593_neutraal
 ------------------------------
 Charge =  0 Multiplicity = 1

 SCF Done:  E(RB3LYP) =  -618.614415057     A.U. after    1 cycles

  Exact polarizability: 171.288  -4.505 141.603  -6.473  -6.647  88.508
 Approx polarizability: 239.375  -7.134 216.880  -9.394 -11.730 128.338

                      1                      2                      3
                      A                      A                      A
 Frequencies --     41.6523                66.8694                71.9380
 Red. masses --      4.1316                 4.2884                 2.8542
 Frc consts  --      0.0042                 0.0113                 0.0087
 IR Inten    --      0.2101                 0.7294                 1.9881

                      4                      5                      6
                      A                      A                      A
 Frequencies --    122.2558               134.4517               152.8969
 Red. masses --      3.4961                 1.0458                 1.3042
 Frc consts  --      0.0308                 0.0111                 0.0180
 IR Inten    --      3.2608                 0.0363                 0.4666

                      7                      8                      9
                      A                      A                      A
 Frequencies --    178.1863               183.2177               196.4895
 Red. masses --      3.3247                 1.6619                 2.0422
 Frc consts  --      0.0622                 0.0329                 0.0465
 IR Inten    --      0.1632                 0.4272                 0.5689

                     10                     11                     12
                      A                      A                      A
 Frequencies --    216.5480               222.4751               239.7122
 Red. masses --      1.6154                 2.0088                 2.0781
 Frc consts  --      0.0446                 0.0586                 0.0704
 IR Inten    --      0.4813                 0.7104                 2.3483

                     13                     14                     15
                      A                      A                      A
 Frequencies --    263.8278               300.4911               309.6266
 Red. masses --      1.5759                 2.3579                 2.3873
 Frc consts  --      0.0646                 0.1254                 0.1348
 IR Inten    --      0.3425                 1.4212                 1.6553

                     16                     17                     18
                      A                      A                      A
 Frequencies --    355.8244               376.0939               384.4397
 Red. masses --      1.2393                 3.6104                 3.1507
 Frc consts  --      0.0924                 0.3009                 0.2744
 IR Inten    --     83.5761                13.9877                11.6258

                     19                     20                     21
                      A                      A                      A
 Frequencies --    415.2256               469.9026               483.4166
 Red. masses --      3.2562                 3.7071                 3.2604
 Frc consts  --      0.3308                 0.4823                 0.4489
 IR Inten    --      3.9801                 1.1148                 4.9231

                     22                     23                     24
                      A                      A                      A
 Frequencies --    505.0440               530.0526               606.6446
 Red. masses --      4.6653                 3.7135                 3.4624
 Frc consts  --      0.7011                 0.6147                 0.7507
 IR Inten    --      4.8310                 3.0728                 3.8095

                     25                     26                     27
                      A                      A                      A
 Frequencies --    646.6749               683.0394               747.7275
 Red. masses --      3.7958                 3.3065                 4.4214
 Frc consts  --      0.9352                 0.9089                 1.4564
 IR Inten    --      1.3909                 2.4539                 3.0756

                     28                     29                     30
                      A                      A                      A
 Frequencies --    752.3793               812.0719               857.2723
 Red. masses --      4.8503                 3.4467                 1.4094
 Frc consts  --      1.6177                 1.3392                 0.6103
 IR Inten    --      1.9961                 2.2231                15.6729

                     31                     32                     33
                      A                      A                      A
 Frequencies --    906.2092               913.0245               948.1349
 Red. masses --      1.3993                 1.7352                 1.3651
 Frc consts  --      0.6771                 0.8523                 0.7230
 IR Inten    --      2.6710                 7.4730                 5.9533

                     34                     35                     36
                      A                      A                      A
 Frequencies --   1012.4053              1031.1158              1042.6016
 Red. masses --      2.3996                 1.6440                 1.5668
 Frc consts  --      1.4491                 1.0299                 1.0035
 IR Inten    --      3.9249                18.0485                 5.1815

                     37                     38                     39
                      A                      A                      A
 Frequencies --   1058.2084              1077.6961              1078.5000
 Red. masses --      1.4204                 2.8474                 4.7582
 Frc consts  --      0.9371                 1.9484                 3.2608
 IR Inten    --      3.9667               103.4787                32.4738

                     40                     41                     42
                      A                      A                      A
 Frequencies --   1084.4167              1115.6068              1138.0997
 Red. masses --      1.5774                 2.4662                 2.7082
 Frc consts  --      1.0929                 1.8084                 2.0668
 IR Inten    --      0.4946                16.3629                48.5487

                     43                     44                     45
                      A                      A                      A
 Frequencies --   1170.1369              1186.1805              1208.3377
 Red. masses --      2.4206                 1.2708                 1.4515
 Frc consts  --      1.9528                 1.0535                 1.2487
 IR Inten    --      3.2260                 0.9037                14.1558

                     46                     47                     48
                      A                      A                      A
 Frequencies --   1223.4909              1240.5651              1253.2122
 Red. masses --      1.4146                 1.5311                 2.6891
 Frc consts  --      1.2476                 1.3883                 2.4883
 IR Inten    --      0.9358                 3.3083                91.7273

                     49                     50                     51
                      A                      A                      A
 Frequencies --   1318.8792              1319.5747              1334.3826
 Red. masses --      2.4182                 1.9254                 1.3188
 Frc consts  --      2.4783                 1.9754                 1.3836
 IR Inten    --     71.1648                36.1767                 0.6893

                     52                     53                     54
                      A                      A                      A
 Frequencies --   1347.2308              1390.7252              1401.5767
 Red. masses --      4.6893                 1.7391                 1.3280
 Frc consts  --      5.0146                 1.9818                 1.5370
 IR Inten    --      2.9600                22.8307                22.5391

                     55                     56                     57
                      A                      A                      A
 Frequencies --   1426.8540              1438.3274              1445.0164
 Red. masses --      1.2486                 1.2950                 1.2961
 Frc consts  --      1.4977                 1.5785                 1.5946
 IR Inten    --      9.8285                 3.1218                47.1216

                     58                     59                     60
                      A                      A                      A
 Frequencies --   1451.1803              1458.1312              1503.1404
 Red. masses --      1.2896                 2.0287                 1.1983
 Frc consts  --      1.6002                 2.5414                 1.5952
 IR Inten    --      2.5745                17.5892                 5.4756

                     61                     62                     63
                      A                      A                      A
 Frequencies --   1506.9506              1520.8240              1522.2965
 Red. masses --      1.0451                 1.0478                 1.0444
 Frc consts  --      1.3983                 1.4278                 1.4260
 IR Inten    --      0.0460                10.0226                 8.6261

                     64                     65                     66
                      A                      A                      A
 Frequencies --   1523.1289              1525.4081              1526.5819
 Red. masses --      1.0606                 1.1512                 1.1216
 Frc consts  --      1.4496                 1.5782                 1.5400
 IR Inten    --     20.6252                 2.0432                10.2643

                     67                     68                     69
                      A                      A                      A
 Frequencies --   1535.3272              1538.5293              1545.0878
 Red. masses --      1.0897                 1.0720                 1.0984
 Frc consts  --      1.5134                 1.4950                 1.5450
 IR Inten    --     50.6067                 1.3815                 5.5355

                     70                     71                     72
                      A                      A                      A
 Frequencies --   1561.5777              1626.5351              1673.7856
 Red. masses --      2.4033                 6.8964                 5.9834
 Frc consts  --      3.4529                10.7497                 9.8763
 IR Inten    --     56.0102                10.2220                26.4582

                     73                     74                     75
                      A                      A                      A
 Frequencies --   3026.6110              3032.2926              3034.7508
 Red. masses --      1.0346                 1.0686                 1.0390
 Frc consts  --      5.5837                 5.7890                 5.6377
 IR Inten    --     61.0978                19.6876                33.3422

                     76                     77                     78
                      A                      A                      A
 Frequencies --   3038.7221              3045.9267              3054.5710
 Red. masses --      1.0381                 1.0769                 1.0401
 Frc consts  --      5.6479                 5.8867                 5.7177
 IR Inten    --     40.3035                41.7795                38.4310

                     79                     80                     81
                      A                      A                      A
 Frequencies --   3079.9184              3085.8219              3086.4620
 Red. masses --      1.1003                 1.1065                 1.1003
 Frc consts  --      6.1497                 6.2077                 6.1758
 IR Inten    --     29.0717                32.5755                20.7571

                     82                     83                     84
                      A                      A                      A
 Frequencies --   3097.0321              3114.9945              3125.6471
 Red. masses --      1.1014                 1.1013                 1.0997
 Frc consts  --      6.2245                 6.2963                 6.3301
 IR Inten    --     49.4415                39.8687                35.1933

                     85                     86                     87
                      A                      A                      A
 Frequencies --   3127.0709              3154.4039              3158.4051
 Red. masses --      1.0997                 1.0990                 1.0999
 Frc consts  --      6.3357                 6.4432                 6.4646
 IR Inten    --      3.5733                17.1101                22.3383

                     88                     89                     90
                      A                      A                      A
 Frequencies --   3174.5751              3217.6694              3716.9272
 Red. masses --      1.0894                 1.0888                 1.0654
 Frc consts  --      6.4689                 6.6420                 8.6721
 IR Inten    --     18.7404                12.2525                20.3162

 - Thermochemistry -
 -------------------
 Temperature   298.150 Kelvin.  Pressure   1.00000 Atm.
 Atom     1 has atomic number  6 and mass  12.00000

 Molecular mass:   194.13068 amu.
 Principal axes and moments of inertia in atomic units:
                           1         2         3
     Eigenvalues --  1999.886103523.917454592.47904
           X            0.99981  -0.01337  -0.01427
           Y            0.01301   0.99961  -0.02481
           Z            0.01460   0.02462   0.99959
 This molecule is an asymmetric top.
 Rotational symmetry number  1.
 Warning -- assumption of classical behavior for rotation
           may cause significant error
 Rotational temperatures (Kelvin)      0.04331     0.02458     0.01886
 Rotational constants (GHZ):           0.90242     0.51214     0.39298
 Zero-point vibrational energy     734670.1 (Joules/Mol)
                                  175.59036 (Kcal/Mol)
 Warning -- explicit consideration of  24 degrees of freedom as
           vibrations may cause significant error
 Vibrational temperatures:     59.93    96.21   103.50   175.90   193.45
          (Kelvin)            219.98   256.37   263.61   282.70   311.56
                              320.09   344.89   379.59   432.34   445.48
                              511.95   541.12   553.12   597.42   676.09
                              695.53   726.65   762.63   872.83   930.42
                              982.74  1075.81  1082.51  1168.39  1233.42
                             1303.83  1313.64  1364.15  1456.63  1483.55
                             1500.07  1522.53  1550.56  1551.72  1560.23
                             1605.11  1637.47  1683.57  1706.65  1738.53
                             1760.33  1784.90  1803.09  1897.57  1898.57
                             1919.88  1938.36  2000.94  2016.56  2052.92
                             2069.43  2079.06  2087.92  2097.93  2162.68
                             2168.17  2188.13  2190.25  2191.44  2194.72
                             2196.41  2208.99  2213.60  2223.04  2246.76
                             2340.22  2408.20  4354.62  4362.79  4366.33
                             4372.04  4382.41  4394.85  4431.32  4439.81
                             4440.73  4455.94  4481.78  4497.11  4499.16
                             4538.48  4544.24  4567.51  4629.51  5347.83

 Zero-point correction=                           0.279821 (Hartree/Particle)
 Thermal correction to Energy=                    0.295297
 Thermal correction to Enthalpy=                  0.296241
 Thermal correction to Gibbs Free Energy=         0.237799
 Sum of electronic and zero-point Energies=           -618.334594
 Sum of electronic and thermal Energies=              -618.319118
 Sum of electronic and thermal Enthalpies=            -618.318174
 Sum of electronic and thermal Free Energies=         -618.376616

                     E (Thermal)             CV                S
                      KCal/Mol        Cal/Mol-Kelvin    Cal/Mol-Kelvin
 Total                  185.302             57.609            123.002
 Electronic               0.000              0.000              0.000
 Translational            0.889              2.981             41.695
 Rotational               0.889              2.981             31.848
 Vibrational            183.524             51.648             49.458
 Vibration     1          0.594              1.981              5.179
 Vibration     2          0.598              1.970              4.243
 Vibration     3          0.598              1.967              4.100
 Vibration     4          0.610              1.931              3.064
 Vibration     5          0.613              1.919              2.881
 Vibration     6          0.619              1.899              2.636
 Vibration     7          0.629              1.869              2.347
 Vibration     8          0.631              1.863              2.295
 Vibration     9          0.636              1.845              2.166
 Vibration    10          0.645              1.816              1.988
 Vibration    11          0.648              1.807              1.939
 Vibration    12          0.657              1.780              1.805
 Vibration    13          0.670              1.739              1.636
 Vibration    14          0.693              1.673              1.414
 Vibration    15          0.699              1.655              1.364
 Vibration    16          0.731              1.563              1.140
 Vibration    17          0.747              1.521              1.055
 Vibration    18          0.753              1.503              1.022
 Vibration    19          0.779              1.437              0.908
 Vibration    20          0.827              1.317              0.738
 Vibration    21          0.840              1.287              0.701
 Vibration    22          0.860              1.239              0.646
 Vibration    23          0.885              1.184              0.587
 Vibration    24          0.965              1.018              0.438

                           ! Non-Optimized Parameters !
 Normal termination of Gaussian 16 at Thu Dec 10 10:16:07 2020.

 ----------------------------------------------------------------------
 # B3LYP/6-311++G(d,p) empiricaldispersion=gd3bj scf=xqc pop=npa geom=c
 heck
 ----------------------------------------------------------------------

 --------------------------------------
 CID_82075954_JID_4593_Energie_neutraal
 --------------------------------------
 Structure from the checkpoint file:  "JID_4593.chk"
 Charge =  0 Multiplicity = 1

 SCF Done:  E(RB3LYP) =  -618.793136586     A.U. after   15 cycles
 Normal termination of Gaussian 16 at Thu Dec 10 10:19:43 2020.

 ----------------------------------------------------------------------
 # B3LYP/6-311++G(d,p) empiricaldispersion=gd3bj scf=xqc pop=npa geom=c
 heck
 ----------------------------------------------------------------------

 ------------------------------------
 CID_82075954_JID_4593_Energie_kation
 ------------------------------------
 Structure from the checkpoint file:  "JID_4593.chk"
 Charge =  1 Multiplicity = 2

 SCF Done:  E(UB3LYP) =  -618.509555787     A.U. after   23 cycles
 Normal termination of Gaussian 16 at Thu Dec 10 10:27:16 2020.
 Gaussian 16:  ES64L-G16RevA.03 25-Dec-2016

 ----------------------------------------------------------------------
 # B3LYP/6-311++G(d,p) empiricaldispersion=gd3bj scf=xqc pop=npa geom=c
 heck
 ----------------------------------------------------------------------

 -----------------------------------
 CID_82075954_JID_4593_Energie_anion
 -----------------------------------
 Structure from the checkpoint file:  "JID_4593.chk"
 Charge = -1 Multiplicity = 2

                         Standard orientation:
 ---------------------------------------------------------------------
 Center     Atomic      Atomic             Coordinates (Angstroms)
 Number     Number       Type             X           Y           Z
 ---------------------------------------------------------------------
      1          6           0        3.096719   -1.935602    0.224295
      2          6           0        1.968082   -0.936243    0.176152
      3          6           0        0.644678   -1.348689    0.362229
      4          6           0       -0.448857   -0.479697    0.335618
      5          6           0       -0.178333    0.881489    0.087852
      6          6           0        1.135784    1.317575   -0.098591
      7          6           0        2.213471    0.426333   -0.055669
      8          6           0        3.618503    0.934881   -0.261272
      9          8           0       -1.260070    1.722597    0.036862
     10          6           0       -1.036757    3.096266   -0.227458
     11          6           0       -1.854050   -1.027518    0.530255
     12          6           0       -2.601660   -0.403196    1.719013
     13          6           0       -2.673054   -0.927063   -0.769850
     14          8           0       -2.054375   -1.612529   -1.850580
     15          1           0        3.661305   -1.959448   -0.716963
     16          1           0        3.818044   -1.697783    1.017026
     17          1           0        2.719221   -2.945322    0.410657
     18          1           0        0.449143   -2.403511    0.542360
     19          1           0        1.340657    2.365771   -0.283388
     20          1           0        3.630297    2.015664   -0.430265
     21          1           0        4.253860    0.724287    0.608491
     22          1           0        4.098672    0.454911   -1.123592
     23          1           0       -2.023009    3.563370   -0.230696
     24          1           0       -0.416692    3.560920    0.550226
     25          1           0       -0.559832    3.246349   -1.204830
     26          1           0       -1.740248   -2.100578    0.730712
     27          1           0       -2.785452    0.661412    1.558708
     28          1           0       -3.565964   -0.904116    1.865735
     29          1           0       -2.019711   -0.513127    2.640174
     30          1           0       -3.644754   -1.411292   -0.624903
     31          1           0       -2.854308    0.128732   -1.014775
     32          1           0       -1.152824   -1.258011   -1.920369
 ---------------------------------------------------------------------

 SCF Done:  E(UB3LYP) =  -618.780329099     A.U. after   33 cycles
 SCF Done:  E(UB3LYP) =  -618.780329098     a.u. after    1 cycles

 The electronic state is 2-A.
 Alpha  occ. eigenvalues --  -19.05643 -19.02721 -10.13663 -10.12053 -10.11885
 Alpha  occ. eigenvalues --  -10.08894 -10.08484 -10.08169 -10.07835 -10.07640
 Alpha  occ. eigenvalues --  -10.07115 -10.07113 -10.06926 -10.06570  -0.97234
 Alpha  occ. eigenvalues --   -0.92859  -0.76808  -0.71531  -0.67335  -0.66140
 Alpha  occ. eigenvalues --   -0.62151  -0.60001  -0.58240  -0.56375  -0.51265
 Alpha  occ. eigenvalues --   -0.50544  -0.46332  -0.42533  -0.42028  -0.39134
 Alpha  occ. eigenvalues --   -0.37806  -0.37152  -0.34736  -0.34473  -0.34047
 Alpha  occ. eigenvalues --   -0.33495  -0.32986  -0.32403  -0.30172  -0.29968
 Alpha  occ. eigenvalues --   -0.29126  -0.28966  -0.28455  -0.27200  -0.26327
 Alpha  occ. eigenvalues --   -0.25217  -0.24734  -0.24017  -0.21911  -0.21588
 Alpha  occ. eigenvalues --   -0.18202  -0.15127  -0.12081   0.04288
 Alpha virt. eigenvalues --    0.06209   0.06746   0.07953   0.07994   0.08452
 Alpha virt. eigenvalues --    0.08646   0.09595   0.09675   0.10113   0.10366
 Alpha virt. eigenvalues --    0.10597   0.10944   0.12020   0.12819   0.12975

  Beta  occ. eigenvalues --  -19.05637 -19.02716 -10.13663 -10.11995 -10.11882
  Beta  occ. eigenvalues --  -10.08892 -10.08483 -10.08169 -10.07833 -10.07636
  Beta  occ. eigenvalues --  -10.07098 -10.07082 -10.06918 -10.06525  -0.97218
  Beta  occ. eigenvalues --   -0.92849  -0.76798  -0.71519  -0.67312  -0.66118
  Beta  occ. eigenvalues --   -0.62089  -0.59949  -0.58224  -0.56319  -0.51234
  Beta  occ. eigenvalues --   -0.50506  -0.46301  -0.42501  -0.42004  -0.39113
  Beta  occ. eigenvalues --   -0.37779  -0.37119  -0.34702  -0.34455  -0.34018
  Beta  occ. eigenvalues --   -0.33461  -0.32939  -0.32387  -0.30136  -0.29955
  Beta  occ. eigenvalues --   -0.29094  -0.28929  -0.28425  -0.27172  -0.26301
  Beta  occ. eigenvalues --   -0.25186  -0.24717  -0.24004  -0.21890  -0.21566
  Beta  occ. eigenvalues --   -0.18195  -0.15115  -0.12068
  Beta virt. eigenvalues --    0.06374   0.06939   0.07387   0.08102   0.08418
  Beta virt. eigenvalues --    0.08684   0.09096   0.09732   0.09856   0.10551
  Beta virt. eigenvalues --    0.10872   0.11215   0.11391   0.11989   0.12970

 Mulliken charges and spin densities:
               1          2
     1  C    1.460522  -1.917579
     2  C   -1.334675   1.668344
     3  C   -0.697773   0.062995
     4  C    1.578656  -1.200366
     5  C   -0.274998  -0.284260
     6  C   -0.383827   0.327008
     7  C   -0.771621   1.179930
     8  C    1.757729  -2.294207
     9  O   -0.173497   0.072540
    10  C    1.134054  -1.431573
    11  C   -0.686510   0.742036
    12  C   -0.194130  -0.466561
    13  C   -0.177266  -0.342172
    14  O   -0.254893   0.008853
    15  H   -0.121152   0.274773
    16  H   -0.156198   0.310904
    17  H   -0.177437   0.326408
    18  H    0.050962   0.054737
    19  H    0.362207  -0.232244
    20  H   -0.873651   1.043863
    21  H   -0.140416   0.293362
    22  H   -0.146662   0.297264
    23  H   -0.660800   0.834296
    24  H   -0.483373   0.649532
    25  H   -0.446328   0.608421
    26  H    0.156088   0.018964
    27  H    0.110252   0.068978
    28  H    0.072023   0.058500
    29  H   -0.010987   0.142722
    30  H    0.121906   0.033210
    31  H    0.138892   0.058281
    32  H    0.222907   0.033040
 Sum of Mulliken charges =  -1.00000   1.00000

 Dipole moment (field-independent basis, Debye):
    X=             -4.1104    Y=             -5.9563    Z=              1.6288  Tot=              7.4180
 Quadrupole moment (field-independent basis, Debye-Ang):
   XX=           -153.7554   YY=           -151.0030   ZZ=           -120.9827
   XY=              1.3697   XZ=             -2.8516   YZ=             -0.9978

 Summary of Natural Population Analysis:

                                       Natural Population
                Natural  -----------------------------------------------
    Atom  No    Charge         Core      Valence    Rydberg      Total
 -----------------------------------------------------------------------
      C    1   -0.29057      0.99964     2.28615    0.00478     3.29057
      C    2   -0.02992      0.99947     2.01980    0.01066     3.02992
      C    3   -0.08916      0.99948     2.08129    0.00839     3.08916
      C    4   -0.04998      0.99946     2.03661    0.01391     3.04998
      C    5    0.16392      0.99932     1.82287    0.01388     2.83608
      C    6   -0.13479      0.99947     2.12607    0.00925     3.13479
      C    7   -0.00268      0.99949     1.99264    0.01056     3.00268
      C    8   -0.29480      0.99964     2.28915    0.00601     3.29480
      O    9   -0.28052      0.99986     3.27015    0.01051     4.28052
      C   10   -0.10012      0.99960     2.09111    0.00942     3.10012
      C   11   -0.12653      0.99957     2.11669    0.01027     3.12653
      C   12   -0.28420      0.99964     2.27978    0.00477     3.28420
      C   13   -0.00514      0.99956     1.99397    0.01161     3.00514
      O   14   -0.37217      0.99990     3.36575    0.00652     4.37217
      H   15    0.10390      0.00000     0.39462    0.00148     0.39610
      H   16    0.10419      0.00000     0.39431    0.00151     0.39581
      H   17    0.10006      0.00000     0.39892    0.00102     0.39994
      H   18    0.09709      0.00000     0.40167    0.00124     0.40291
      H   19    0.10842      0.00000     0.38971    0.00187     0.39158
      H   20    0.10574      0.00000     0.39263    0.00163     0.39426
      H   21    0.10549      0.00000     0.39304    0.00147     0.39451
      H   22    0.10535      0.00000     0.39318    0.00147     0.39465
      H   23    0.09484      0.00000     0.40351    0.00165     0.40516
      H   24    0.08754      0.00000     0.41010    0.00236     0.41246
      H   25    0.08719      0.00000     0.41056    0.00225     0.41281
      H   26    0.09688      0.00000     0.40125    0.00186     0.40312
      H   27    0.10872      0.00000     0.38995    0.00132     0.39128
      H   28    0.09355      0.00000     0.40558    0.00086     0.40645
      H   29    0.10087      0.00000     0.39820    0.00093     0.39913
      H   30    0.08090      0.00000     0.41786    0.00125     0.41910
      H   31    0.08451      0.00000     0.41391    0.00158     0.41549
      H   32    0.23143      0.00000     0.26548    0.00309     0.26857
 =======================================================================
   * Total *   -0.00000     13.99410    38.84650    0.15940    53.00000

 Normal termination of Gaussian 16 at Thu Dec 10 10:38:47 2020.
