 Gaussian 16, Revision A.03,

 -----------------------------------------------------------
 # opt freq B3LYP/6-31G(d) empiricaldispersion=gd3bj scf=xqc
 -----------------------------------------------------------

 --------------------------------
 CID_116621094_JID_10129_neutraal
 --------------------------------
 Symbolic Z-matrix:
 Charge =  0 Multiplicity = 1

 SCF Done:  E(RB3LYP) =  -947.230664277     A.U. after   16 cycles
 SCF Done:  E(RB3LYP) =  -947.236463994     A.U. after   14 cycles
 SCF Done:  E(RB3LYP) =  -947.231627257     A.U. after   15 cycles
 SCF Done:  E(RB3LYP) =  -947.237345978     A.U. after   15 cycles
 SCF Done:  E(RB3LYP) =  -947.238196489     A.U. after   12 cycles
 SCF Done:  E(RB3LYP) =  -947.238601138     A.U. after   13 cycles
 SCF Done:  E(RB3LYP) =  -947.238840975     A.U. after   13 cycles
 SCF Done:  E(RB3LYP) =  -947.238944465     A.U. after   12 cycles
 SCF Done:  E(RB3LYP) =  -947.239014842     A.U. after   13 cycles
 SCF Done:  E(RB3LYP) =  -947.239024241     A.U. after   10 cycles
 SCF Done:  E(RB3LYP) =  -947.239032304     A.U. after   10 cycles
 SCF Done:  E(RB3LYP) =  -947.239032794     A.U. after   10 cycles
 SCF Done:  E(RB3LYP) =  -947.239033226     A.U. after    9 cycles
 SCF Done:  E(RB3LYP) =  -947.239033533     A.U. after    9 cycles
 SCF Done:  E(RB3LYP) =  -947.239033674     A.U. after    8 cycles
 SCF Done:  E(RB3LYP) =  -947.239033732     A.U. after    8 cycles
 Optimization completed.
    -- Stationary point found.
 Normal termination of Gaussian 16 at Sun Dec 13 20:47:10 2020.

 --------------------------------------------------------------------
 #N Geom=AllCheck Guess=TCheck SCRF=Check GenChk RB3LYP/6-31G(d) Freq
 --------------------------------------------------------------------

 Structure from the checkpoint file:  "JID_10129.chk"
 --------------------------------
 CID_116621094_JID_10129_neutraal
 --------------------------------
 Charge =  0 Multiplicity = 1

 SCF Done:  E(RB3LYP) =  -947.239033732     A.U. after    1 cycles

  Exact polarizability: 180.130 -24.382 188.222  23.502  13.295 133.251
 Approx polarizability: 278.109 -55.996 333.201  62.157  38.305 230.062

                      1                      2                      3
                      A                      A                      A
 Frequencies --     11.7389                26.6077                34.3149
 Red. masses --      5.1875                 5.1017                 4.4157
 Frc consts  --      0.0004                 0.0021                 0.0031
 IR Inten    --      1.0137                 0.1908                 1.1457

                      4                      5                      6
                      A                      A                      A
 Frequencies --     54.2824                65.6240               102.3939
 Red. masses --      7.4923                 4.6744                 5.1804
 Frc consts  --      0.0130                 0.0119                 0.0320
 IR Inten    --      0.3797                 2.0614                 0.8415

                      7                      8                      9
                      A                      A                      A
 Frequencies --    112.8110               138.5001               171.7500
 Red. masses --      5.8361                 4.8491                 4.5283
 Frc consts  --      0.0438                 0.0548                 0.0787
 IR Inten    --      0.5745                 1.6364                 0.6577

                     10                     11                     12
                      A                      A                      A
 Frequencies --    204.7908               238.5352               262.5364
 Red. masses --      1.6413                 2.8061                 4.0126
 Frc consts  --      0.0406                 0.0941                 0.1630
 IR Inten    --      1.5611                 0.8573                 0.9614

                     13                     14                     15
                      A                      A                      A
 Frequencies --    290.9499               297.5393               345.4668
 Red. masses --      5.6665                 2.3620                 6.3239
 Frc consts  --      0.2826                 0.1232                 0.4447
 IR Inten    --      4.9021                 2.3207                 1.6925

                     16                     17                     18
                      A                      A                      A
 Frequencies --    364.7216               387.8455               437.1626
 Red. masses --      8.0820                 2.7708                 3.0834
 Frc consts  --      0.6334                 0.2456                 0.3472
 IR Inten    --      1.4111                 0.6438                 5.0354

                     19                     20                     21
                      A                      A                      A
 Frequencies --    444.8694               466.2008               552.4877
 Red. masses --      5.3539                 3.9844                 5.9814
 Frc consts  --      0.6243                 0.5102                 1.0757
 IR Inten    --      1.9411                 2.5595                 1.0406

                     22                     23                     24
                      A                      A                      A
 Frequencies --    579.8106               586.7609               605.1631
 Red. masses --      5.2020                 4.0771                 4.8589
 Frc consts  --      1.0304                 0.8270                 1.0484
 IR Inten    --      6.6969                 0.1364                 1.2019

                     25                     26                     27
                      A                      A                      A
 Frequencies --    631.3562               659.9624               694.3961
 Red. masses --      4.0921                 6.8819                 7.3220
 Frc consts  --      0.9611                 1.7660                 2.0802
 IR Inten    --      2.1415                15.0577                 6.3116

                     28                     29                     30
                      A                      A                      A
 Frequencies --    731.9514               738.2624               748.5068
 Red. masses --      1.4542                 4.2227                 4.1710
 Frc consts  --      0.4590                 1.3560                 1.3768
 IR Inten    --     27.5362                 2.3817                17.7132

                     31                     32                     33
                      A                      A                      A
 Frequencies --    766.4222               779.7388               790.1079
 Red. masses --      4.9709                 2.9235                 2.6660
 Frc consts  --      1.7204                 1.0472                 0.9806
 IR Inten    --     16.7552                27.2300                 6.0324

                     34                     35                     36
                      A                      A                      A
 Frequencies --    809.7266               814.1292               845.1711
 Red. masses --      3.9657                 2.1341                 1.5205
 Frc consts  --      1.5320                 0.8334                 0.6399
 IR Inten    --     24.6060                 6.7934                12.6676

                     37                     38                     39
                      A                      A                      A
 Frequencies --    858.7494               860.5666               916.5899
 Red. masses --      5.0458                 1.5016                 1.4592
 Frc consts  --      2.1924                 0.6552                 0.7223
 IR Inten    --     14.5486                 6.4730                23.0783

                     40                     41                     42
                      A                      A                      A
 Frequencies --    950.2552               960.5664               972.5324
 Red. masses --      3.4140                 3.6468                 1.2909
 Frc consts  --      1.8163                 1.9825                 0.7194
 IR Inten    --      9.7495                 3.1312                 0.9960

                     43                     44                     45
                      A                      A                      A
 Frequencies --    978.2041               986.1355              1005.3744
 Red. masses --      2.4207                 5.8761                 8.3983
 Frc consts  --      1.3648                 3.3668                 5.0014
 IR Inten    --      1.9670                14.1805                14.9084

                     46                     47                     48
                      A                      A                      A
 Frequencies --   1053.9841              1071.6501              1092.8486
 Red. masses --      3.5840                 2.0454                 2.0896
 Frc consts  --      2.3458                 1.3840                 1.4704
 IR Inten    --     12.6845                11.9871                15.8120

                     49                     50                     51
                      A                      A                      A
 Frequencies --   1098.9837              1118.6456              1145.3492
 Red. masses --      1.4846                 1.7754                 2.5349
 Frc consts  --      1.0565                 1.3090                 1.9592
 IR Inten    --     41.9046                 0.3361                30.5540

                     52                     53                     54
                      A                      A                      A
 Frequencies --   1156.6155              1215.2460              1232.8803
 Red. masses --      1.4372                 1.8161                 3.0530
 Frc consts  --      1.1328                 1.5802                 2.7341
 IR Inten    --      0.8788                30.9234                40.4490

                     55                     56                     57
                      A                      A                      A
 Frequencies --   1241.3576              1280.8946              1299.5269
 Red. masses --      2.0317                 1.4233                 1.3198
 Frc consts  --      1.8446                 1.3759                 1.3132
 IR Inten    --      2.3291                 6.0983                 5.0837

                     58                     59                     60
                      A                      A                      A
 Frequencies --   1350.4828              1366.5683              1371.7930
 Red. masses --      1.8351                 1.6289                 3.6971
 Frc consts  --      1.9719                 1.7923                 4.0991
 IR Inten    --     34.3542                17.1966                39.8995

                     61                     62                     63
                      A                      A                      A
 Frequencies --   1387.5877              1391.3126              1397.9627
 Red. masses --      2.1910                 3.4030                 5.2061
 Frc consts  --      2.4855                 3.8812                 5.9945
 IR Inten    --    223.4352               144.0630               119.2144

                     64                     65                     66
                      A                      A                      A
 Frequencies --   1419.8341              1442.2467              1459.0002
 Red. masses --      3.1725                 1.3240                 3.9214
 Frc consts  --      3.7682                 1.6226                 4.9182
 IR Inten    --     59.7487                 1.7289                 8.8238

                     67                     68                     69
                      A                      A                      A
 Frequencies --   1491.0914              1503.3858              1509.7616
 Red. masses --      1.3886                 1.0831                 2.2533
 Frc consts  --      1.8190                 1.4423                 3.0261
 IR Inten    --     18.1253                 2.4766                70.6690

                     70                     71                     72
                      A                      A                      A
 Frequencies --   1523.4447              1528.2909              1535.6651
 Red. masses --      3.1074                 1.0408                 1.0684
 Frc consts  --      4.2491                 1.4322                 1.4845
 IR Inten    --      4.3447                 7.9870                 3.2793

                     73                     74                     75
                      A                      A                      A
 Frequencies --   1559.3436              1610.5948              1621.8468
 Red. masses --      4.7319                 9.2373                 9.5797
 Frc consts  --      6.7791                14.1178                14.8464
 IR Inten    --     51.3242                90.0320                34.5205

                     76                     77                     78
                      A                      A                      A
 Frequencies --   1636.0483              1652.5615              1670.2532
 Red. masses --      8.9982                 9.6745                 7.2053
 Frc consts  --     14.1905                15.5666                11.8431
 IR Inten    --     27.7112                93.6658                19.7268

                     79                     80                     81
                      A                      A                      A
 Frequencies --   3059.4740              3065.6828              3084.3909
 Red. masses --      1.0662                 1.0356                 1.0591
 Frc consts  --      5.8803                 5.7344                 5.9367
 IR Inten    --     12.4895                18.5289                15.5699

                     82                     83                     84
                      A                      A                      A
 Frequencies --   3123.4147              3132.6635              3140.2303
 Red. masses --      1.0977                 1.1067                 1.1035
 Frc consts  --      6.3097                 6.3989                 6.4115
 IR Inten    --      0.4825                 1.4620                25.6241

                     85                     86                     87
                      A                      A                      A
 Frequencies --   3145.2089              3206.8924              3252.2860
 Red. masses --      1.1024                 1.0906                 1.0921
 Frc consts  --      6.4254                 6.6082                 6.8062
 IR Inten    --     19.5020                10.5817                 4.7959

                     88                     89                     90
                      A                      A                      A
 Frequencies --   3258.4472              3261.3691              3279.6182
 Red. masses --      1.0921                 1.0901                 1.1036
 Frc consts  --      6.8318                 6.8316                 6.9940
 IR Inten    --      1.3172                 0.3984                 2.6408

 - Thermochemistry -
 -------------------
 Temperature   298.150 Kelvin.  Pressure   1.00000 Atm.
 Atom     1 has atomic number  6 and mass  12.00000

 Molecular mass:   272.09094 amu.
 Principal axes and moments of inertia in atomic units:
                           1         2         3
     Eigenvalues --  3954.341897480.030019011.14991
           X            0.99971   0.01825  -0.01596
           Y           -0.01854   0.99966  -0.01849
           Z            0.01561   0.01878   0.99970
 This molecule is an asymmetric top.
 Rotational symmetry number  1.
 Warning -- assumption of classical behavior for rotation
           may cause significant error
 Rotational temperatures (Kelvin)      0.02190     0.01158     0.00961
 Rotational constants (GHZ):           0.45639     0.24127     0.20028
 Zero-point vibrational energy     644358.4 (Joules/Mol)
                                  154.00534 (Kcal/Mol)
 Warning -- explicit consideration of  24 degrees of freedom as
           vibrations may cause significant error
 Vibrational temperatures:     16.89    38.28    49.37    78.10    94.42
          (Kelvin)            147.32   162.31   199.27   247.11   294.65
                              343.20   377.73   418.61   428.09   497.05
                              524.75   558.02   628.98   640.07   670.76
                              794.91   834.22   844.22   870.69   908.38
                              949.54   999.08  1053.11  1062.19  1076.93
                             1102.71  1121.87  1136.79  1165.02  1171.35
                             1216.01  1235.55  1238.16  1318.77  1367.21
                             1382.04  1399.26  1407.42  1418.83  1446.51
                             1516.45  1541.87  1572.37  1581.19  1609.48
                             1647.90  1664.11  1748.47  1773.84  1786.04
                             1842.92  1869.73  1943.04  1966.19  1973.70
                             1996.43  2001.79  2011.36  2042.82  2075.07
                             2099.18  2145.35  2163.04  2172.21  2191.90
                             2198.87  2209.48  2243.55  2317.29  2333.48
                             2353.91  2377.67  2403.12  4401.90  4410.83
                             4437.75  4493.90  4507.20  4518.09  4525.25
                             4614.00  4679.31  4688.18  4692.38  4718.64

 Zero-point correction=                           0.245423 (Hartree/Particle)
 Thermal correction to Energy=                    0.262082
 Thermal correction to Enthalpy=                  0.263026
 Thermal correction to Gibbs Free Energy=         0.197504
 Sum of electronic and zero-point Energies=           -946.993611
 Sum of electronic and thermal Energies=              -946.976952
 Sum of electronic and thermal Enthalpies=            -946.976008
 Sum of electronic and thermal Free Energies=         -947.041530

                     E (Thermal)             CV                S
                      KCal/Mol        Cal/Mol-Kelvin    Cal/Mol-Kelvin
 Total                  164.459             62.655            137.902
 Electronic               0.000              0.000              0.000
 Translational            0.889              2.981             42.702
 Rotational               0.889              2.981             33.943
 Vibrational            162.681             56.694             61.257
 Vibration     1          0.593              1.987              7.693
 Vibration     2          0.593              1.984              6.068
 Vibration     3          0.594              1.983              5.563
 Vibration     4          0.596              1.976              4.655
 Vibration     5          0.597              1.971              4.280
 Vibration     6          0.604              1.947              3.408
 Vibration     7          0.607              1.939              3.220
 Vibration     8          0.614              1.915              2.824
 Vibration     9          0.626              1.877              2.416
 Vibration    10          0.640              1.833              2.090
 Vibration    11          0.657              1.782              1.814
 Vibration    12          0.670              1.741              1.645
 Vibration    13          0.687              1.691              1.468
 Vibration    14          0.691              1.678              1.431
 Vibration    15          0.724              1.584              1.187
 Vibration    16          0.738              1.545              1.102
 Vibration    17          0.756              1.496              1.008
 Vibration    18          0.797              1.389              0.836
 Vibration    19          0.804              1.372              0.811
 Vibration    20          0.824              1.325              0.748
 Vibration    21          0.908              1.134              0.539
 Vibration    22          0.936              1.075              0.486
 Vibration    23          0.944              1.060              0.473
 Vibration    24          0.964              1.021              0.441

                           ! Non-Optimized Parameters !
 Normal termination of Gaussian 16 at Sun Dec 13 21:01:56 2020.

 ----------------------------------------------------------------------
 # B3LYP/6-311++G(d,p) empiricaldispersion=gd3bj scf=xqc pop=npa geom=c
 heck
 ----------------------------------------------------------------------

 ----------------------------------------
 CID_116621094_JID_10129_Energie_neutraal
 ----------------------------------------
 Structure from the checkpoint file:  "JID_10129.chk"
 Charge =  0 Multiplicity = 1

 SCF Done:  E(RB3LYP) =  -947.492929910     A.U. after   16 cycles
 Normal termination of Gaussian 16 at Sun Dec 13 21:07:29 2020.

 ----------------------------------------------------------------------
 # B3LYP/6-311++G(d,p) empiricaldispersion=gd3bj scf=xqc pop=npa geom=c
 heck
 ----------------------------------------------------------------------

 --------------------------------------
 CID_116621094_JID_10129_Energie_kation
 --------------------------------------
 Structure from the checkpoint file:  "JID_10129.chk"
 Charge =  1 Multiplicity = 2

 SCF Done:  E(UB3LYP) =  -947.189034930     A.U. after   29 cycles
 Normal termination of Gaussian 16 at Sun Dec 13 21:21:15 2020.
 Gaussian 16:  ES64L-G16RevA.03 25-Dec-2016

 ----------------------------------------------------------------------
 # B3LYP/6-311++G(d,p) empiricaldispersion=gd3bj scf=xqc pop=npa geom=c
 heck
 ----------------------------------------------------------------------

 -------------------------------------
 CID_116621094_JID_10129_Energie_anion
 -------------------------------------
 Structure from the checkpoint file:  "JID_10129.chk"
 Charge = -1 Multiplicity = 2

                         Standard orientation:
 ---------------------------------------------------------------------
 Center     Atomic      Atomic             Coordinates (Angstroms)
 Number     Number       Type             X           Y           Z
 ---------------------------------------------------------------------
      1          6           0       -3.358869   -0.710873    2.623173
      2          6           0       -4.081038   -1.063520    1.311591
      3          6           0       -3.193902   -0.941473    0.125219
      4          7           0       -2.786008   -1.860380   -0.692453
      5          7           0       -1.928760   -1.230037   -1.606079
      6          6           0       -1.895391    0.017318   -1.269081
      7          8           0       -2.669634    0.289893   -0.180647
      8          6           0       -1.099891    1.115979   -1.891535
      9          7           0       -0.167892    1.715808   -0.955223
     10          6           0       -0.277875    2.974948   -0.394367
     11          6           0        0.728612    3.177016    0.515160
     12          6           0        1.511713    1.978242    0.545710
     13          6           0        0.917872    1.072097   -0.383228
     14          6           0        1.408866   -0.211334   -0.604839
     15          6           0        2.537060   -0.563550    0.127886
     16          6           0        3.162913    0.298453    1.047920
     17          6           0        2.652649    1.567853    1.258741
     18          7           0        3.097393   -1.902097   -0.069930
     19          8           0        2.553311   -2.638320   -0.894782
     20          8           0        4.084014   -2.216959    0.598768
     21          1           0       -2.506597   -1.377238    2.788368
     22          1           0       -4.044397   -0.812848    3.469801
     23          1           0       -2.988907    0.318799    2.602657
     24          1           0       -4.443807   -2.094705    1.330136
     25          1           0       -4.951764   -0.409611    1.176573
     26          1           0       -0.564874    0.690771   -2.745774
     27          1           0       -1.757022    1.908299   -2.262096
     28          1           0       -1.078118    3.632270   -0.705537
     29          1           0        0.895038    4.076993    1.089651
     30          1           0        0.953792   -0.920803   -1.284424
     31          1           0        4.037371   -0.056372    1.577075
     32          1           0        3.128312    2.237543    1.968547
 ---------------------------------------------------------------------

 SCF Done:  E(UB3LYP) =  -947.525865020     A.U. after   29 cycles

 The electronic state is 2-A.
 Alpha  occ. eigenvalues --  -19.13092 -18.94352 -18.94292 -14.32259 -14.25682
 Alpha  occ. eigenvalues --  -14.25421 -14.25142 -10.19092 -10.18541 -10.14891
 Alpha  occ. eigenvalues --  -10.12779 -10.10386 -10.08761 -10.08144 -10.05901
 Alpha  occ. eigenvalues --  -10.05089 -10.04545 -10.04473 -10.03725 -10.03181
 Alpha  occ. eigenvalues --   -1.07933  -1.02290  -0.89860  -0.88405  -0.85113
 Alpha  occ. eigenvalues --   -0.78182  -0.73259  -0.71181  -0.69058  -0.63998
 Alpha  occ. eigenvalues --   -0.62430  -0.60090  -0.59433  -0.55330  -0.53503
 Alpha  occ. eigenvalues --   -0.51314  -0.48947  -0.47106  -0.44328  -0.43315
 Alpha  occ. eigenvalues --   -0.41654  -0.40382  -0.39472  -0.38420  -0.36995
 Alpha  occ. eigenvalues --   -0.36599  -0.36078  -0.34557  -0.34154  -0.33151
 Alpha  occ. eigenvalues --   -0.32510  -0.31395  -0.30966  -0.30663  -0.30131
 Alpha  occ. eigenvalues --   -0.29576  -0.29108  -0.28815  -0.26473  -0.24655
 Alpha  occ. eigenvalues --   -0.24090  -0.22124  -0.21248  -0.20187  -0.19407
 Alpha  occ. eigenvalues --   -0.16334  -0.13368  -0.12124  -0.11041  -0.09968
 Alpha  occ. eigenvalues --   -0.09542   0.02843
 Alpha virt. eigenvalues --    0.04900   0.06561   0.06768   0.07868   0.08627
 Alpha virt. eigenvalues --    0.09115   0.09723   0.10369   0.10481   0.10990
 Alpha virt. eigenvalues --    0.11258   0.11781   0.12969   0.13462   0.13498

  Beta  occ. eigenvalues --  -19.13081 -18.93952 -18.93813 -14.31711 -14.25686
  Beta  occ. eigenvalues --  -14.25416 -14.25071 -10.19085 -10.18517 -10.14892
  Beta  occ. eigenvalues --  -10.12779 -10.10385 -10.08570 -10.08219 -10.05802
  Beta  occ. eigenvalues --  -10.05156 -10.04544 -10.04312 -10.03701 -10.02931
  Beta  occ. eigenvalues --   -1.07914  -1.01348  -0.89851  -0.88268  -0.84282
  Beta  occ. eigenvalues --   -0.78152  -0.73103  -0.71070  -0.68907  -0.63814
  Beta  occ. eigenvalues --   -0.61988  -0.59933  -0.59413  -0.55304  -0.52710
  Beta  occ. eigenvalues --   -0.51257  -0.48810  -0.47048  -0.44202  -0.43148
  Beta  occ. eigenvalues --   -0.41401  -0.40264  -0.39436  -0.38371  -0.36827
  Beta  occ. eigenvalues --   -0.36182  -0.35984  -0.34064  -0.32955  -0.32381
  Beta  occ. eigenvalues --   -0.31867  -0.31060  -0.30931  -0.30553  -0.29952
  Beta  occ. eigenvalues --   -0.29553  -0.28758  -0.28567  -0.26436  -0.24548
  Beta  occ. eigenvalues --   -0.24071  -0.22029  -0.20586  -0.20160  -0.19305
  Beta  occ. eigenvalues --   -0.15646  -0.11685  -0.10735  -0.09819  -0.09526
  Beta  occ. eigenvalues --   -0.08635
  Beta virt. eigenvalues --    0.04920   0.06561   0.06773   0.07848   0.08458
  Beta virt. eigenvalues --    0.08881   0.09256   0.09689   0.10450   0.10902
  Beta virt. eigenvalues --    0.11062   0.11759   0.12109   0.12971   0.13463

 Mulliken charges and spin densities:
               1          2
     1  C   -0.429844  -0.005354
     2  C   -0.320664   0.011618
     3  C    0.439836   0.026541
     4  N   -0.060997  -0.013664
     5  N    0.053234   0.016809
     6  C    0.324147  -0.037876
     7  O    0.086200   0.002827
     8  C   -1.196222  -0.037352
     9  N    0.383056   0.015911
    10  C   -0.185074   0.170175
    11  C   -0.075687  -0.043718
    12  C    0.583478   0.088683
    13  C   -0.034813  -0.028534
    14  C   -0.704596   0.214995
    15  C   -0.547772   0.000710
    16  C    0.568368   0.054612
    17  C   -1.249401   0.014127
    18  N   -0.252956   0.178442
    19  O   -0.157366   0.161546
    20  O   -0.175249   0.179399
    21  H    0.152168   0.002801
    22  H    0.147216  -0.000364
    23  H    0.157290   0.001762
    24  H    0.170653   0.000297
    25  H    0.150514  -0.000012
    26  H    0.201593   0.023432
    27  H    0.146828   0.017730
    28  H    0.101748  -0.003677
    29  H    0.139426   0.003917
    30  H    0.248336  -0.014075
    31  H    0.228927  -0.002041
    32  H    0.107621   0.000335
 Sum of Mulliken charges =  -1.00000   1.00000

 Dipole moment (field-independent basis, Debye):
    X=            -12.8619    Y=              8.0918    Z=              1.8539  Tot=             15.3082
 Quadrupole moment (field-independent basis, Debye-Ang):
   XX=           -160.7735   YY=           -157.3545   ZZ=           -122.9986
   XY=             19.1780   XZ=             -5.2137   YZ=             -8.9770

 Summary of Natural Population Analysis:

                                       Natural Population
                Natural  -----------------------------------------------
    Atom  No    Charge         Core      Valence    Rydberg      Total
 -----------------------------------------------------------------------
      C    1   -0.28354      0.99967     2.27977    0.00410     3.28354
      C    2   -0.21788      0.99960     2.21188    0.00640     3.21788
      C    3    0.25637      0.99960     1.72525    0.01877     2.74363
      N    4   -0.15906      0.99966     2.64690    0.01250     3.65906
      N    5   -0.15059      0.99966     2.63873    0.01220     3.65059
      C    6    0.25521      0.99960     1.72716    0.01803     2.74479
      O    7   -0.24347      0.99985     3.23375    0.00987     4.24347
      C    8   -0.10581      0.99958     2.09668    0.00956     3.10581
      N    9   -0.20908      0.99961     2.69807    0.01141     3.70908
      C   10    0.03001      0.99959     1.95952    0.01088     2.96999
      C   11   -0.16338      0.99954     2.15482    0.00903     3.16338
      C   12   -0.01926      0.99950     2.01163    0.00813     3.01926
      C   13    0.06645      0.99949     1.92264    0.01142     2.93355
      C   14   -0.07448      0.99948     2.06336    0.01164     3.07448
      C   15    0.05442      0.99943     1.93018    0.01597     2.94558
      C   16   -0.10185      0.99954     2.09319    0.00912     3.10185
      C   17   -0.10883      0.99954     2.10116    0.00813     3.10883
      N   18    0.29724      0.99971     2.17678    0.02627     3.20276
      O   19   -0.19851      0.99990     3.19091    0.00770     4.19851
      O   20   -0.19221      0.99990     3.18496    0.00736     4.19221
      H   21    0.10605      0.00000     0.39311    0.00084     0.39395
      H   22    0.09619      0.00000     0.40296    0.00084     0.40381
      H   23    0.10508      0.00000     0.39407    0.00086     0.39492
      H   24    0.11264      0.00000     0.38624    0.00112     0.38736
      H   25    0.10405      0.00000     0.39469    0.00125     0.39595
      H   26    0.11580      0.00000     0.38236    0.00183     0.38420
      H   27    0.10760      0.00000     0.39144    0.00096     0.39240
      H   28    0.09341      0.00000     0.40589    0.00070     0.40659
      H   29    0.10073      0.00000     0.39857    0.00070     0.39927
      H   30    0.12039      0.00000     0.37805    0.00156     0.37961
      H   31    0.11372      0.00000     0.38514    0.00114     0.38628
      H   32    0.09263      0.00000     0.40605    0.00131     0.40737
 =======================================================================
   * Total *    0.00005     19.99245    50.76591    0.24159    70.99995

 Normal termination of Gaussian 16 at Sun Dec 13 21:34:44 2020.
