 Gaussian 16, Revision A.03,

 -----------------------------------------------------------
 # opt freq B3LYP/6-31G(d) empiricaldispersion=gd3bj scf=xqc
 -----------------------------------------------------------

 ------------------------------
 CID_89305314_JID_2025_neutraal
 ------------------------------
 Symbolic Z-matrix:
 Charge =  0 Multiplicity = 1

 SCF Done:  E(RB3LYP) =  -953.247504297     A.U. after   14 cycles
 SCF Done:  E(RB3LYP) =  -953.248363710     A.U. after   12 cycles
 SCF Done:  E(RB3LYP) =  -953.248225455     A.U. after   13 cycles
 SCF Done:  E(RB3LYP) =  -953.248106866     A.U. after   12 cycles
 SCF Done:  E(RB3LYP) =  -953.247150456     A.U. after   12 cycles
 SCF Done:  E(RB3LYP) =  -953.248519016     A.U. after    9 cycles
 SCF Done:  E(RB3LYP) =  -953.249905127     A.U. after   12 cycles
 SCF Done:  E(RB3LYP) =  -953.250878833     A.U. after   12 cycles
 SCF Done:  E(RB3LYP) =  -953.249881402     A.U. after   12 cycles
 SCF Done:  E(RB3LYP) =  -953.251079396     A.U. after   12 cycles
 SCF Done:  E(RB3LYP) =  -953.251698958     A.U. after    8 cycles
 SCF Done:  E(RB3LYP) =  -953.251701130     A.U. after    9 cycles
 SCF Done:  E(RB3LYP) =  -953.251701794     A.U. after    8 cycles
 SCF Done:  E(RB3LYP) =  -953.251703021     A.U. after    9 cycles
 SCF Done:  E(RB3LYP) =  -953.251703190     A.U. after    8 cycles
 SCF Done:  E(RB3LYP) =  -953.251703199     A.U. after    7 cycles
 Optimization completed.
    -- Stationary point found.
 Normal termination of Gaussian 16 at Wed Dec  9 16:51:11 2020.

 --------------------------------------------------------------------
 #N Geom=AllCheck Guess=TCheck SCRF=Check GenChk RB3LYP/6-31G(d) Freq
 --------------------------------------------------------------------

 Structure from the checkpoint file:  "JID_2025.chk"
 ------------------------------
 CID_89305314_JID_2025_neutraal
 ------------------------------
 Charge =  0 Multiplicity = 1

 SCF Done:  E(RB3LYP) =  -953.251703199     A.U. after    1 cycles

  Exact polarizability: 115.989  -2.872  95.876   1.245  -2.354  94.511
 Approx polarizability: 164.876 -10.095 134.337   8.096  -5.349 145.936

                      1                      2                      3
                      A                      A                      A
 Frequencies --     36.9432                38.1485                61.1338
 Red. masses --      6.3987                 5.5015                 6.2141
 Frc consts  --      0.0051                 0.0047                 0.0137
 IR Inten    --      0.2474                 0.6184                 0.8729

                      4                      5                      6
                      A                      A                      A
 Frequencies --     69.5682                93.3470               111.5001
 Red. masses --      4.5225                 6.3463                 8.1979
 Frc consts  --      0.0129                 0.0326                 0.0600
 IR Inten    --      0.3387                 2.8782                 0.3063

                      7                      8                      9
                      A                      A                      A
 Frequencies --    205.9289               235.2116               264.5107
 Red. masses --      3.6221                 1.9328                 2.8321
 Frc consts  --      0.0905                 0.0630                 0.1167
 IR Inten    --      3.3752                 2.4916                 1.0719

                     10                     11                     12
                      A                      A                      A
 Frequencies --    273.3437               275.9651               327.0183
 Red. masses --      3.1126                 1.6439                 1.7153
 Frc consts  --      0.1370                 0.0738                 0.1081
 IR Inten    --      0.3002                 0.7896                 6.0328

                     13                     14                     15
                      A                      A                      A
 Frequencies --    353.6513               369.1865               400.4111
 Red. masses --      1.4257                 2.3147                 5.6093
 Frc consts  --      0.1051                 0.1859                 0.5299
 IR Inten    --     16.6013                 1.7192                 5.1903

                     16                     17                     18
                      A                      A                      A
 Frequencies --    466.3225               483.5091               509.1377
 Red. masses --      1.8160                 1.4204                 1.9512
 Frc consts  --      0.2327                 0.1956                 0.2980
 IR Inten    --     11.5083                42.9835                21.5752

                     19                     20                     21
                      A                      A                      A
 Frequencies --    572.4131               581.8174               617.9007
 Red. masses --      3.5075                 3.4204                 3.2824
 Frc consts  --      0.6771                 0.6822                 0.7384
 IR Inten    --     10.8131                67.0965                24.4850

                     22                     23                     24
                      A                      A                      A
 Frequencies --    641.5410               670.7869               702.4954
 Red. masses --      2.5544                 1.7242                 3.0109
 Frc consts  --      0.6194                 0.4571                 0.8754
 IR Inten    --     18.5453                70.1780                44.5640

                     25                     26                     27
                      A                      A                      A
 Frequencies --    792.5894               851.1668               862.2302
 Red. masses --      3.1199                 2.8640                 3.4527
 Frc consts  --      1.1547                 1.2225                 1.5124
 IR Inten    --      8.6607                 8.3361                 8.1802

                     28                     29                     30
                      A                      A                      A
 Frequencies --    908.6261               935.9976               969.1624
 Red. masses --      1.2223                 1.8398                 2.0432
 Frc consts  --      0.5945                 0.9497                 1.1307
 IR Inten    --      3.9811                 3.1039                 7.1503

                     31                     32                     33
                      A                      A                      A
 Frequencies --    992.1233              1033.2188              1067.9232
 Red. masses --      2.1938                 1.8581                 1.6892
 Frc consts  --      1.2723                 1.1687                 1.1350
 IR Inten    --     12.5873                10.1541                13.2785

                     34                     35                     36
                      A                      A                      A
 Frequencies --   1132.4545              1156.9945              1163.0830
 Red. masses --      1.8651                 2.1148                 2.3398
 Frc consts  --      1.4092                 1.6679                 1.8649
 IR Inten    --      3.1708                 6.7862                27.1247

                     37                     38                     39
                      A                      A                      A
 Frequencies --   1175.6287              1237.2844              1261.4350
 Red. masses --      2.7436                 1.2397                 1.1729
 Frc consts  --      2.2342                 1.1181                 1.0996
 IR Inten    --    359.2434                 7.8913                 4.1185

                     40                     41                     42
                      A                      A                      A
 Frequencies --   1290.9535              1318.0162              1331.7946
 Red. masses --      1.4628                 1.3792                 1.3398
 Frc consts  --      1.4363                 1.4116                 1.4001
 IR Inten    --     39.1500                54.7527                14.5376

                     43                     44                     45
                      A                      A                      A
 Frequencies --   1343.1556              1353.9343              1401.6346
 Red. masses --      1.5375                 1.4155                 1.4185
 Frc consts  --      1.6343                 1.5288                 1.6419
 IR Inten    --      8.3388                 1.1433                17.1914

                     46                     47                     48
                      A                      A                      A
 Frequencies --   1431.3796              1439.4224              1441.6627
 Red. masses --      1.7545                 1.6244                 1.3003
 Frc consts  --      2.1179                 1.9830                 1.5922
 IR Inten    --     20.2268                29.0064                19.7746

                     49                     50                     51
                      A                      A                      A
 Frequencies --   1485.3802              1496.8632              1500.0887
 Red. masses --      1.1401                 1.7104                 1.1089
 Frc consts  --      1.4821                 2.2580                 1.4702
 IR Inten    --     13.7848                69.6061                10.3966

                     52                     53                     54
                      A                      A                      A
 Frequencies --   1508.4749              1521.6419              1537.7126
 Red. masses --      1.0853                 1.0480                 1.0488
 Frc consts  --      1.4550                 1.4297                 1.4611
 IR Inten    --     12.8061                 2.9813                 7.1447

                     55                     56                     57
                      A                      A                      A
 Frequencies --   1804.6386              1850.9751              2680.8818
 Red. masses --      8.3814                 9.9458                 1.0381
 Frc consts  --     16.0823                20.0767                 4.3960
 IR Inten    --    249.4854               352.8489                16.6141

                     58                     59                     60
                      A                      A                      A
 Frequencies --   3033.4492              3040.9415              3049.0488
 Red. masses --      1.0691                 1.0464                 1.0690
 Frc consts  --      5.7963                 5.7010                 5.8553
 IR Inten    --     15.8706                24.9935                40.6543

                     61                     62                     63
                      A                      A                      A
 Frequencies --   3067.5599              3068.5389              3112.7021
 Red. masses --      1.0848                 1.0649                 1.0945
 Frc consts  --      6.0143                 5.9075                 6.2479
 IR Inten    --     20.2686                12.3817                16.6227

                     64                     65                     66
                      A                      A                      A
 Frequencies --   3117.1772              3123.7935              3132.8400
 Red. masses --      1.0979                 1.0922                 1.0916
 Frc consts  --      6.2853                 6.2796                 6.3124
 IR Inten    --     15.6083                 6.0963                18.2445

                     67                     68                     69
                      A                      A                      A
 Frequencies --   3140.8899              3610.7662              3681.5213
 Red. masses --      1.1009                 1.0767                 1.0642
 Frc consts  --      6.3987                 8.2705                 8.4983
 IR Inten    --     24.3070                29.2490                57.4664

 - Thermochemistry -
 -------------------
 Temperature   298.150 Kelvin.  Pressure   1.00000 Atm.
 Atom     1 has atomic number  6 and mass  12.00000

 Molecular mass:   191.06162 amu.
 Principal axes and moments of inertia in atomic units:
                           1         2         3
     Eigenvalues --  1815.842703142.307473867.32173
           X            0.99941   0.02690  -0.02155
           Y           -0.02726   0.99949  -0.01657
           Z            0.02109   0.01714   0.99963
 This molecule is an asymmetric top.
 Rotational symmetry number  1.
 Warning -- assumption of classical behavior for rotation
           may cause significant error
 Rotational temperatures (Kelvin)      0.04770     0.02756     0.02240
 Rotational constants (GHZ):           0.99389     0.57434     0.46666
 Zero-point vibrational energy     537240.2 (Joules/Mol)
                                  128.40349 (Kcal/Mol)
 Warning -- explicit consideration of  21 degrees of freedom as
           vibrations may cause significant error
 Vibrational temperatures:     53.15    54.89    87.96   100.09   134.31
          (Kelvin)            160.42   296.29   338.42   380.57   393.28
                              397.05   470.51   508.83   531.18   576.10
                              670.93   695.66   732.54   823.57   837.11
                              889.02   923.03   965.11  1010.73  1140.36
                             1224.64  1240.56  1307.31  1346.69  1394.41
                             1427.44  1486.57  1536.50  1629.35  1664.66
                             1673.42  1691.47  1780.18  1814.92  1857.39
                             1896.33  1916.16  1932.50  1948.01  2016.64
                             2059.44  2071.01  2074.23  2137.13  2153.65
                             2158.29  2170.36  2189.30  2212.43  2596.47
                             2663.14  3857.19  4364.46  4375.24  4386.90
                             4413.53  4414.94  4478.48  4484.92  4494.44
                             4507.46  4519.04  5195.09  5296.89

 Zero-point correction=                           0.204624 (Hartree/Particle)
 Thermal correction to Energy=                    0.218309
 Thermal correction to Enthalpy=                  0.219253
 Thermal correction to Gibbs Free Energy=         0.162878
 Sum of electronic and zero-point Energies=           -953.047079
 Sum of electronic and thermal Energies=              -953.033394
 Sum of electronic and thermal Enthalpies=            -953.032450
 Sum of electronic and thermal Free Energies=         -953.088825

                     E (Thermal)             CV                S
                      KCal/Mol        Cal/Mol-Kelvin    Cal/Mol-Kelvin
 Total                  136.991             49.417            118.652
 Electronic               0.000              0.000              0.000
 Translational            0.889              2.981             41.648
 Rotational               0.889              2.981             31.468
 Vibrational            135.213             43.455             45.536
 Vibration     1          0.594              1.982              5.417
 Vibration     2          0.594              1.982              5.353
 Vibration     3          0.597              1.973              4.420
 Vibration     4          0.598              1.969              4.166
 Vibration     5          0.602              1.954              3.589
 Vibration     6          0.607              1.940              3.243
 Vibration     7          0.640              1.831              2.079
 Vibration     8          0.655              1.787              1.839
 Vibration     9          0.671              1.738              1.632
 Vibration    10          0.676              1.723              1.575
 Vibration    11          0.678              1.718              1.559
 Vibration    12          0.711              1.621              1.275
 Vibration    13          0.730              1.568              1.150
 Vibration    14          0.741              1.536              1.083
 Vibration    15          0.766              1.469              0.961
 Vibration    16          0.824              1.325              0.748
 Vibration    17          0.840              1.287              0.701
 Vibration    18          0.864              1.230              0.636
 Vibration    19          0.929              1.091              0.500
 Vibration    20          0.939              1.071              0.482
 Vibration    21          0.978              0.994              0.420

 Optimization completed.
    -- Stationary point found.
 Normal termination of Gaussian 16 at Wed Dec  9 16:57:09 2020.

 ----------------------------------------------------------------------
 # B3LYP/6-311++G(d,p) empiricaldispersion=gd3bj scf=xqc pop=npa geom=c
 heck
 ----------------------------------------------------------------------

 --------------------------------------
 CID_89305314_JID_2025_Energie_neutraal
 --------------------------------------
 Structure from the checkpoint file:  "JID_2025.chk"
 Charge =  0 Multiplicity = 1

 SCF Done:  E(RB3LYP) =  -953.459350752     A.U. after   14 cycles
 Normal termination of Gaussian 16 at Wed Dec  9 16:59:19 2020.

 ----------------------------------------------------------------------
 # B3LYP/6-311++G(d,p) empiricaldispersion=gd3bj scf=xqc pop=npa geom=c
 heck
 ----------------------------------------------------------------------

 ------------------------------------
 CID_89305314_JID_2025_Energie_kation
 ------------------------------------
 Structure from the checkpoint file:  "JID_2025.chk"
 Charge =  1 Multiplicity = 2

 SCF Done:  E(UB3LYP) =  -953.155473994     A.U. after   25 cycles
 Normal termination of Gaussian 16 at Wed Dec  9 17:04:58 2020.
 Gaussian 16:  ES64L-G16RevA.03 25-Dec-2016

 ----------------------------------------------------------------------
 # B3LYP/6-311++G(d,p) empiricaldispersion=gd3bj scf=xqc pop=npa geom=c
 heck
 ----------------------------------------------------------------------

 -----------------------------------
 CID_89305314_JID_2025_Energie_anion
 -----------------------------------
 Structure from the checkpoint file:  "JID_2025.chk"
 Charge = -1 Multiplicity = 2

                         Standard orientation:
 ---------------------------------------------------------------------
 Center     Atomic      Atomic             Coordinates (Angstroms)
 Number     Number       Type             X           Y           Z
 ---------------------------------------------------------------------
      1          6           0       -1.772218   -1.925549    1.051530
      2          6           0       -2.321310   -0.646574    0.412695
      3          6           0       -1.901801    0.637968    1.150398
      4          6           0       -0.391819    0.911607    1.218671
      5          6           0        0.113809    1.724944    0.029827
      6          8           0       -0.579927    2.542947   -0.551815
      7          7           0        1.431076    1.548923   -0.337244
      8          6           0        2.417388    0.694521    0.264028
      9          6           0        2.328852   -0.771213   -0.153367
     10          8           0        1.426116   -1.288311   -0.770272
     11          8           0        3.406332   -1.452294    0.292841
     12         16           0       -1.998845   -0.618648   -1.409546
     13          1           0       -0.689595   -2.010856    0.912677
     14          1           0       -2.229152   -2.807980    0.595767
     15          1           0       -1.982907   -1.939885    2.129281
     16          1           0       -3.416097   -0.684742    0.452096
     17          1           0       -2.381776    1.502741    0.685174
     18          1           0       -2.286958    0.555910    2.175675
     19          1           0       -0.176303    1.514262    2.111985
     20          1           0        0.167070   -0.019731    1.334814
     21          1           0        1.696107    2.089214   -1.150385
     22          1           0        3.417277    1.058972    0.009648
     23          1           0        2.361939    0.724869    1.358684
     24          1           0        3.281665   -2.382270    0.023531
     25          1           0       -0.654870   -0.717554   -1.334243
 ---------------------------------------------------------------------

 SCF Done:  E(UB3LYP) =  -953.455256707     A.U. after   28 cycles

 The electronic state is 2-A.
 Alpha  occ. eigenvalues --  -88.72844 -19.07334 -19.02747 -18.99057 -14.24288
 Alpha  occ. eigenvalues --  -10.21606 -10.17781 -10.13063 -10.11304 -10.08376
 Alpha  occ. eigenvalues --  -10.07876 -10.06839  -7.81588  -5.77954  -5.77612
 Alpha  occ. eigenvalues --   -5.76976  -1.01782  -0.94430  -0.93125  -0.83230
 Alpha  occ. eigenvalues --   -0.72871  -0.66486  -0.65272  -0.60030  -0.57471
 Alpha  occ. eigenvalues --   -0.52932  -0.49199  -0.45267  -0.41692  -0.41301
 Alpha  occ. eigenvalues --   -0.40518  -0.39159  -0.38068  -0.36936  -0.34275
 Alpha  occ. eigenvalues --   -0.33393  -0.32324  -0.31133  -0.30716  -0.30081
 Alpha  occ. eigenvalues --   -0.28818  -0.27745  -0.26667  -0.24738  -0.23921
 Alpha  occ. eigenvalues --   -0.23377  -0.21505  -0.19875  -0.16453  -0.16388
 Alpha  occ. eigenvalues --   -0.13093   0.03961
 Alpha virt. eigenvalues --    0.06511   0.07073   0.07856   0.08517   0.09167
 Alpha virt. eigenvalues --    0.09867   0.10314   0.10824   0.11734   0.12006
 Alpha virt. eigenvalues --    0.12440   0.12845   0.13620   0.14485   0.14933

  Beta  occ. eigenvalues --  -88.72843 -19.07258 -19.02730 -18.99056 -14.24275
  Beta  occ. eigenvalues --  -10.21599 -10.17780 -10.12992 -10.11302 -10.08347
  Beta  occ. eigenvalues --  -10.07870 -10.06820  -7.81586  -5.77952  -5.77609
  Beta  occ. eigenvalues --   -5.76974  -1.01690  -0.94422  -0.93044  -0.83201
  Beta  occ. eigenvalues --   -0.72854  -0.66440  -0.65164  -0.60009  -0.57436
  Beta  occ. eigenvalues --   -0.52812  -0.49154  -0.45226  -0.41619  -0.41246
  Beta  occ. eigenvalues --   -0.40471  -0.39098  -0.38023  -0.36874  -0.34258
  Beta  occ. eigenvalues --   -0.33367  -0.32295  -0.31088  -0.30687  -0.30013
  Beta  occ. eigenvalues --   -0.28789  -0.27724  -0.26646  -0.24719  -0.23897
  Beta  occ. eigenvalues --   -0.23327  -0.21491  -0.19837  -0.16430  -0.16376
  Beta  occ. eigenvalues --   -0.13088
  Beta virt. eigenvalues --    0.06500   0.07327   0.08343   0.08378   0.08776
  Beta virt. eigenvalues --    0.09452   0.10405   0.10455   0.11030   0.11843
  Beta virt. eigenvalues --    0.12194   0.12628   0.13367   0.13991   0.14639

 Mulliken charges and spin densities:
               1          2
     1  C   -0.118620  -0.568898
     2  C    0.034355   0.154533
     3  C   -0.022669  -0.459376
     4  C    0.403598  -0.406318
     5  C   -0.319625   0.132685
     6  O   -0.293852   0.009983
     7  N   -0.301657   0.154379
     8  C    2.164617  -2.576892
     9  C   -0.192201   0.223996
    10  O   -0.248776  -0.020758
    11  O   -0.172688   0.073684
    12  S   -0.119964  -0.047814
    13  H   -0.240210   0.422707
    14  H    0.035342   0.082741
    15  H   -0.058759   0.187246
    16  H    0.203779   0.038649
    17  H    0.185329  -0.010747
    18  H    0.041026   0.114914
    19  H   -0.248555   0.445120
    20  H    0.219487  -0.038621
    21  H    0.105225   0.198637
    22  H   -0.887511   1.109398
    23  H   -0.560193   0.818591
    24  H   -0.694624   0.999306
    25  H    0.087144  -0.037145
 Sum of Mulliken charges =  -1.00000   1.00000

 Dipole moment (field-independent basis, Debye):
    X=             -6.7303    Y=              1.0811    Z=             -0.5061  Tot=              6.8353
 Quadrupole moment (field-independent basis, Debye-Ang):
   XX=           -139.8722   YY=           -126.9390   ZZ=           -112.2833
   XY=              9.7010   XZ=            -10.2093   YZ=              0.9169

 Summary of Natural Population Analysis:

                                       Natural Population
                Natural  -----------------------------------------------
    Atom  No    Charge         Core      Valence    Rydberg      Total
 -----------------------------------------------------------------------
      C    1   -0.29355      0.99963     2.28711    0.00681     3.29355
      C    2   -0.15930      0.99956     2.14733    0.01241     3.15930
      C    3   -0.19400      0.99959     2.18378    0.01063     3.19400
      C    4   -0.24352      0.99957     2.23437    0.00958     3.24352
      C    5    0.35102      0.99967     1.62550    0.02381     2.64898
      O    6   -0.32035      0.99987     3.31488    0.00560     4.32035
      N    7   -0.31974      0.99967     2.80851    0.01155     3.81974
      C    8   -0.14217      0.99957     2.12956    0.01304     3.14217
      C    9    0.40681      0.99973     1.56864    0.02483     2.59319
      O   10   -0.31163      0.99986     3.30383    0.00795     4.31163
      O   11   -0.33988      0.99988     3.33304    0.00696     4.33988
      S   12   -0.03669      4.99962     3.02337    0.01370     8.03669
      H   13    0.10686      0.00000     0.39186    0.00129     0.39314
      H   14    0.10299      0.00000     0.39605    0.00096     0.39701
      H   15    0.09665      0.00000     0.40227    0.00108     0.40335
      H   16    0.09859      0.00000     0.40045    0.00097     0.40141
      H   17    0.11432      0.00000     0.38438    0.00130     0.38568
      H   18    0.09725      0.00000     0.40167    0.00108     0.40275
      H   19    0.11590      0.00000     0.38283    0.00127     0.38410
      H   20    0.10686      0.00000     0.39057    0.00257     0.39314
      H   21    0.19675      0.00000     0.30111    0.00214     0.30325
      H   22    0.12104      0.00000     0.37593    0.00303     0.37896
      H   23    0.11879      0.00000     0.37703    0.00418     0.38121
      H   24    0.24995      0.00000     0.21953    0.03052     0.25005
      H   25    0.07705      0.00000     0.41981    0.00314     0.42295
 =======================================================================
   * Total *    0.00000     15.99622    34.80338    0.20039    51.00000

 Normal termination of Gaussian 16 at Wed Dec  9 17:11:00 2020.
