 Gaussian 16, Revision A.03,

 -----------------------------------------------------------
 # opt freq B3LYP/6-31G(d) empiricaldispersion=gd3bj scf=xqc
 -----------------------------------------------------------

 -------------------------------
 CID_136152298_JID_2542_neutraal
 -------------------------------
 Symbolic Z-matrix:
 Charge =  0 Multiplicity = 1

 SCF Done:  E(RB3LYP) =  -606.690397022     A.U. after   15 cycles
 SCF Done:  E(RB3LYP) =  -606.692873586     A.U. after   13 cycles
 SCF Done:  E(RB3LYP) =  -606.693572300     A.U. after   13 cycles
 SCF Done:  E(RB3LYP) =  -606.694265164     A.U. after   12 cycles
 SCF Done:  E(RB3LYP) =  -606.694330415     A.U. after   12 cycles
 SCF Done:  E(RB3LYP) =  -606.694464023     A.U. after   11 cycles
 SCF Done:  E(RB3LYP) =  -606.694481827     A.U. after   10 cycles
 SCF Done:  E(RB3LYP) =  -606.694485100     A.U. after    9 cycles
 SCF Done:  E(RB3LYP) =  -606.694485683     A.U. after    7 cycles
 Optimization completed.
    -- Stationary point found.
 Normal termination of Gaussian 16 at Wed Dec  9 17:29:39 2020.

 --------------------------------------------------------------------
 #N Geom=AllCheck Guess=TCheck SCRF=Check GenChk RB3LYP/6-31G(d) Freq
 --------------------------------------------------------------------

 Structure from the checkpoint file:  "JID_2542.chk"
 -------------------------------
 CID_136152298_JID_2542_neutraal
 -------------------------------
 Charge =  0 Multiplicity = 1

 SCF Done:  E(RB3LYP) =  -606.694485683     A.U. after    1 cycles

  Exact polarizability: 129.586   0.837 108.446   1.557  -0.662  47.171
 Approx polarizability: 199.256  10.790 186.231   3.569  -2.492  75.670

                      1                      2                      3
                      A                      A                      A
 Frequencies --     58.7492               100.8558               175.4916
 Red. masses --      5.8898                 6.1949                 2.1241
 Frc consts  --      0.0120                 0.0371                 0.0385
 IR Inten    --      0.0891                 2.9339                99.7869

                      4                      5                      6
                      A                      A                      A
 Frequencies --    191.1186               205.6232               263.3609
 Red. masses --      3.6700                 1.9736                 4.1912
 Frc consts  --      0.0790                 0.0492                 0.1713
 IR Inten    --     29.3533                42.2193                 6.7939

                      7                      8                      9
                      A                      A                      A
 Frequencies --    275.4203               298.9385               337.6074
 Red. masses --      4.0780                 5.0260                 1.9659
 Frc consts  --      0.1823                 0.2646                 0.1320
 IR Inten    --      9.5290                 2.0758                58.5088

                     10                     11                     12
                      A                      A                      A
 Frequencies --    350.2157               366.1643               409.8304
 Red. masses --      2.1322                 3.3043                 1.3759
 Frc consts  --      0.1541                 0.2610                 0.1362
 IR Inten    --     45.5262                14.2117                26.4635

                     13                     14                     15
                      A                      A                      A
 Frequencies --    446.4283               472.7138               476.6609
 Red. masses --      1.1887                 4.4005                 3.9854
 Frc consts  --      0.1396                 0.5794                 0.5335
 IR Inten    --     56.9284                 6.5918                21.9849

                     16                     17                     18
                      A                      A                      A
 Frequencies --    532.5060               560.1956               584.0271
 Red. masses --      4.1945                 4.4232                 5.6266
 Frc consts  --      0.7008                 0.8178                 1.1307
 IR Inten    --      8.0196                 6.1648                14.7911

                     19                     20                     21
                      A                      A                      A
 Frequencies --    638.5167               652.6138               685.9893
 Red. masses --      6.1025                 4.7844                 5.4277
 Frc consts  --      1.4659                 1.2006                 1.5049
 IR Inten    --      2.8378                10.5735                 7.0746

                     22                     23                     24
                      A                      A                      A
 Frequencies --    722.4407               773.5018               811.2190
 Red. masses --      2.7932                 1.4596                 1.7809
 Frc consts  --      0.8589                 0.5145                 0.6905
 IR Inten    --      3.6742               151.3043               228.4979

                     25                     26                     27
                      A                      A                      A
 Frequencies --    847.0530               882.6396               933.4275
 Red. masses --      6.0655                 1.3944                 5.4519
 Frc consts  --      2.5641                 0.6400                 2.7987
 IR Inten    --     12.0017                 4.5538               135.7283

                     28                     29                     30
                      A                      A                      A
 Frequencies --    955.2598               990.5956              1105.6667
 Red. masses --      1.3021                 4.5995                 2.0082
 Frc consts  --      0.7000                 2.6592                 1.4464
 IR Inten    --      7.5460                42.4153                20.7797

                     31                     32                     33
                      A                      A                      A
 Frequencies --   1160.6247              1185.2651              1202.5634
 Red. masses --      2.2687                 1.3155                 1.2167
 Frc consts  --      1.8006                 1.0888                 1.0367
 IR Inten    --    122.8953                57.5493                 9.4319

                     34                     35                     36
                      A                      A                      A
 Frequencies --   1234.7564              1276.0055              1312.6679
 Red. masses --      1.5795                 3.2136                 2.8600
 Frc consts  --      1.4188                 3.0828                 2.9035
 IR Inten    --     16.3978                51.1732                65.8621

                     37                     38                     39
                      A                      A                      A
 Frequencies --   1353.3893              1381.3485              1419.2665
 Red. masses --      1.8706                 1.9515                 2.3423
 Frc consts  --      2.0187                 2.1940                 2.7799
 IR Inten    --    209.1997                84.9919                62.6877

                     40                     41                     42
                      A                      A                      A
 Frequencies --   1425.0959              1527.9176              1549.3645
 Red. masses --      1.7953                 3.2616                 2.8440
 Frc consts  --      2.1481                 4.4863                 4.0224
 IR Inten    --      7.8177                97.1322                 9.4120

                     43                     44                     45
                      A                      A                      A
 Frequencies --   1651.4755              1678.7636              1685.9108
 Red. masses --      5.9814                 1.2241                 5.3667
 Frc consts  --      9.6117                 2.0325                 8.9872
 IR Inten    --     39.3320                84.8376                12.0656

                     46                     47                     48
                      A                      A                      A
 Frequencies --   1719.8820              3174.9286              3209.9428
 Red. masses --      6.1903                 1.0892                 1.0921
 Frc consts  --     10.7885                 6.4687                 6.6299
 IR Inten    --     71.9594                14.5353                13.5863

                     49                     50                     51
                      A                      A                      A
 Frequencies --   3257.3502              3523.6184              3627.0964
 Red. masses --      1.0926                 1.0471                 1.0973
 Frc consts  --      6.8305                 7.6600                 8.5057
 IR Inten    --      1.7890                16.3212                33.3851

                     52                     53                     54
                      A                      A                      A
 Frequencies --   3705.0045              3767.5631              3777.2269
 Red. masses --      1.0651                 1.0677                 1.0663
 Frc consts  --      8.6139                 8.9295                 8.9638
 IR Inten    --     99.4970                57.1129                66.6357

 - Thermochemistry -
 -------------------
 Temperature   298.150 Kelvin.  Pressure   1.00000 Atm.
 Atom     1 has atomic number  6 and mass  12.00000

 Molecular mass:   168.05349 amu.
 Principal axes and moments of inertia in atomic units:
                           1         2         3
     Eigenvalues --  1157.512352451.096783308.27133
           X            0.99990  -0.01415  -0.00069
           Y            0.01415   0.99990  -0.00003
           Z            0.00069   0.00002   1.00000
 This molecule is an asymmetric top.
 Rotational symmetry number  1.
 Warning -- assumption of classical behavior for rotation
           may cause significant error
 Rotational temperatures (Kelvin)      0.07483     0.03534     0.02618
 Rotational constants (GHZ):           1.55916     0.73630     0.54552
 Zero-point vibrational energy     400221.8 (Joules/Mol)
                                   95.65530 (Kcal/Mol)
 Warning -- explicit consideration of  18 degrees of freedom as
           vibrations may cause significant error
 Vibrational temperatures:     84.53   145.11   252.49   274.98   295.85
          (Kelvin)            378.92   396.27   430.11   485.74   503.88
                              526.83   589.65   642.31   680.13   685.81
                              766.16   806.00   840.28   918.68   938.97
                              986.99  1039.43  1112.90  1167.16  1218.72
                             1269.92  1342.99  1374.41  1425.25  1590.81
                             1669.88  1705.33  1730.22  1776.54  1835.89
                             1888.64  1947.23  1987.45  2042.01  2050.40
                             2198.33  2229.19  2376.10  2415.37  2425.65
                             2474.53  4568.01  4618.39  4686.60  5069.70
                             5218.58  5330.68  5420.68  5434.59

 Zero-point correction=                           0.152436 (Hartree/Particle)
 Thermal correction to Energy=                    0.163648
 Thermal correction to Enthalpy=                  0.164592
 Thermal correction to Gibbs Free Energy=         0.116028
 Sum of electronic and zero-point Energies=           -606.542049
 Sum of electronic and thermal Energies=              -606.530837
 Sum of electronic and thermal Enthalpies=            -606.529893
 Sum of electronic and thermal Free Energies=         -606.578458

                     E (Thermal)             CV                S
                      KCal/Mol        Cal/Mol-Kelvin    Cal/Mol-Kelvin
 Total                  102.691             43.432            102.213
 Electronic               0.000              0.000              0.000
 Translational            0.889              2.981             41.265
 Rotational               0.889              2.981             30.618
 Vibrational            100.913             37.470             30.329
 Vibration     1          0.596              1.974              4.499
 Vibration     2          0.604              1.948              3.438
 Vibration     3          0.627              1.873              2.376
 Vibration     4          0.634              1.852              2.217
 Vibration     5          0.640              1.832              2.082
 Vibration     6          0.670              1.740              1.639
 Vibration     7          0.677              1.719              1.562
 Vibration     8          0.692              1.676              1.423
 Vibration     9          0.718              1.600              1.223
 Vibration    10          0.727              1.575              1.165
 Vibration    11          0.739              1.542              1.096
 Vibration    12          0.774              1.449              0.927
 Vibration    13          0.806              1.369              0.807
 Vibration    14          0.830              1.311              0.730
 Vibration    15          0.833              1.302              0.719
 Vibration    16          0.887              1.178              0.582
 Vibration    17          0.916              1.117              0.523
 Vibration    18          0.941              1.066              0.478

                           ! Non-Optimized Parameters !
 Normal termination of Gaussian 16 at Wed Dec  9 17:33:47 2020.

 ----------------------------------------------------------------------
 # B3LYP/6-311++G(d,p) empiricaldispersion=gd3bj scf=xqc pop=npa geom=c
 heck
 ----------------------------------------------------------------------

 ---------------------------------------
 CID_136152298_JID_2542_Energie_neutraal
 ---------------------------------------
 Structure from the checkpoint file:  "JID_2542.chk"
 Charge =  0 Multiplicity = 1

 SCF Done:  E(RB3LYP) =  -606.898035956     A.U. after   14 cycles
 Normal termination of Gaussian 16 at Wed Dec  9 17:35:27 2020.

 ----------------------------------------------------------------------
 # B3LYP/6-311++G(d,p) empiricaldispersion=gd3bj scf=xqc pop=npa geom=c
 heck
 ----------------------------------------------------------------------

 -------------------------------------
 CID_136152298_JID_2542_Energie_kation
 -------------------------------------
 Structure from the checkpoint file:  "JID_2542.chk"
 Charge =  1 Multiplicity = 2

 SCF Done:  E(UB3LYP) =  -606.608232236     A.U. after   28 cycles
 Normal termination of Gaussian 16 at Wed Dec  9 17:39:10 2020.
 Gaussian 16:  ES64L-G16RevA.03 25-Dec-2016

 ----------------------------------------------------------------------
 # B3LYP/6-311++G(d,p) empiricaldispersion=gd3bj scf=xqc pop=npa geom=c
 heck
 ----------------------------------------------------------------------

 ------------------------------------
 CID_136152298_JID_2542_Energie_anion
 ------------------------------------
 Structure from the checkpoint file:  "JID_2542.chk"
 Charge = -1 Multiplicity = 2

                         Standard orientation:
 ---------------------------------------------------------------------
 Center     Atomic      Atomic             Coordinates (Angstroms)
 Number     Number       Type             X           Y           Z
 ---------------------------------------------------------------------
      1          6           0       -1.041200    2.098932   -0.458080
      2          6           0        0.216257    1.508234   -0.460170
      3          6           0        0.374752    0.139772   -0.182049
      4          6           0       -0.767880   -0.617665    0.100776
      5          6           0       -2.034459   -0.014363    0.106818
      6          6           0       -2.178240    1.337047   -0.171029
      7          8           0       -3.073647   -0.872840    0.401059
      8          8           0       -0.671558   -1.956703    0.378949
      9          6           0        1.717696   -0.503158   -0.223655
     10          7           0        2.816062   -0.042763    0.272937
     11          8           0        2.655515    1.225470    0.892389
     12          7           0        1.813060   -1.692903   -0.947559
     13          1           0       -1.145456    3.156321   -0.679022
     14          1           0        1.098116    2.097751   -0.670838
     15          1           0       -3.167036    1.790839   -0.163440
     16          1           0       -3.910023   -0.384751    0.395351
     17          1           0       -1.575459   -2.281959    0.534772
     18          1           0        3.550942    1.379030    1.228506
     19          1           0        1.032977   -2.319807   -0.780802
     20          1           0        2.708047   -2.147978   -0.797006
 ---------------------------------------------------------------------

 SCF Done:  E(UB3LYP) =  -606.889438440     A.U. after   33 cycles
 SCF Done:  E(UB3LYP) =  -606.889438440     a.u. after    1 cycles

 The electronic state is 2-A.
 Alpha  occ. eigenvalues --  -19.05576 -19.04916 -19.03700 -14.23604 -14.21568
 Alpha  occ. eigenvalues --  -10.13732 -10.12507 -10.12008 -10.07598 -10.06085
 Alpha  occ. eigenvalues --  -10.06015 -10.05932  -0.97077  -0.96818  -0.93545
 Alpha  occ. eigenvalues --   -0.83352  -0.74314  -0.71587  -0.64697  -0.62775
 Alpha  occ. eigenvalues --   -0.54009  -0.51047  -0.48171  -0.45422  -0.43644
 Alpha  occ. eigenvalues --   -0.40539  -0.38795  -0.36864  -0.36260  -0.35222
 Alpha  occ. eigenvalues --   -0.33044  -0.32443  -0.30843  -0.29487  -0.28980
 Alpha  occ. eigenvalues --   -0.26049  -0.25298  -0.24778  -0.23108  -0.21745
 Alpha  occ. eigenvalues --   -0.17744  -0.13933  -0.11718  -0.10792   0.05090
 Alpha virt. eigenvalues --    0.07309   0.07526   0.08190   0.08987   0.09970
 Alpha virt. eigenvalues --    0.11188   0.11737   0.12983   0.13774   0.14057
 Alpha virt. eigenvalues --    0.15148   0.15280   0.16745   0.17601   0.18409

  Beta  occ. eigenvalues --  -19.05569 -19.04879 -19.03592 -14.23547 -14.21563
  Beta  occ. eigenvalues --  -10.13707 -10.12474 -10.12001 -10.07560 -10.06081
  Beta  occ. eigenvalues --  -10.05999 -10.05842  -0.97028  -0.96721  -0.93370
  Beta  occ. eigenvalues --   -0.83310  -0.74223  -0.71527  -0.64569  -0.62662
  Beta  occ. eigenvalues --   -0.53843  -0.50955  -0.48093  -0.45341  -0.43581
  Beta  occ. eigenvalues --   -0.40467  -0.38704  -0.36809  -0.36194  -0.35146
  Beta  occ. eigenvalues --   -0.32959  -0.32307  -0.30712  -0.29419  -0.28898
  Beta  occ. eigenvalues --   -0.25939  -0.25219  -0.24697  -0.23018  -0.21633
  Beta  occ. eigenvalues --   -0.17672  -0.13693  -0.11513  -0.10625
  Beta virt. eigenvalues --    0.07361   0.07775   0.08307   0.08809   0.09592
  Beta virt. eigenvalues --    0.10892   0.11498   0.12076   0.13209   0.14073
  Beta virt. eigenvalues --    0.14648   0.15224   0.15423   0.16896   0.17577

 Mulliken charges and spin densities:
               1          2
     1  C   -0.268854  -0.256253
     2  C   -1.777400   1.064658
     3  C    1.231490  -0.006750
     4  C    0.797533  -1.273339
     5  C    0.388661  -0.686865
     6  C    0.203041   0.103146
     7  O   -0.293160   0.003206
     8  O   -0.273045  -0.014802
     9  C    0.981345  -1.025259
    10  N   -0.355826   0.029448
    11  O   -0.126665  -0.005070
    12  N   -0.288225  -0.004929
    13  H    0.042179   0.105623
    14  H    0.095644   0.041488
    15  H   -1.116399   1.282127
    16  H   -0.958273   1.280683
    17  H   -0.012284   0.323775
    18  H    0.245364   0.015106
    19  H    0.228078   0.034227
    20  H    0.256795  -0.010218
 Sum of Mulliken charges =  -1.00000   1.00000

 Dipole moment (field-independent basis, Debye):
    X=             11.7358    Y=             -0.4662    Z=             -0.9912  Tot=             11.7868
 Quadrupole moment (field-independent basis, Debye-Ang):
   XX=           -149.8210   YY=            -89.5995   ZZ=            -89.4125
   XY=              3.1448   XZ=              8.1825   YZ=              1.0536

 Summary of Natural Population Analysis:

                                       Natural Population
                Natural  -----------------------------------------------
    Atom  No    Charge         Core      Valence    Rydberg      Total
 -----------------------------------------------------------------------
      C    1   -0.11178      0.99957     2.10175    0.01046     3.11178
      C    2   -0.08735      0.99954     2.07928    0.00853     3.08735
      C    3   -0.07183      0.99944     2.06150    0.01089     3.07183
      C    4    0.15109      0.99933     1.83530    0.01429     2.84891
      C    5    0.13230      0.99934     1.85454    0.01382     2.86770
      C    6   -0.11313      0.99952     2.10291    0.01069     3.11313
      O    7   -0.36056      0.99987     3.35248    0.00821     4.36056
      O    8   -0.35568      0.99987     3.34894    0.00686     4.35568
      C    9    0.20593      0.99960     1.77588    0.01860     2.79407
      N   10   -0.13101      0.99959     2.61635    0.01506     3.63101
      O   11   -0.29008      0.99990     3.28328    0.00690     4.29008
      N   12   -0.39986      0.99971     2.89161    0.00853     3.89986
      H   13    0.09865      0.00000     0.40057    0.00078     0.40135
      H   14    0.10696      0.00000     0.39189    0.00115     0.39304
      H   15    0.10900      0.00000     0.38820    0.00280     0.39100
      H   16    0.25979      0.00000     0.16545    0.07476     0.24021
      H   17    0.25167      0.00000     0.24485    0.00348     0.24833
      H   18    0.22768      0.00000     0.26912    0.00319     0.27232
      H   19    0.19691      0.00000     0.30078    0.00230     0.30309
      H   20    0.18131      0.00000     0.31646    0.00223     0.31869
 =======================================================================
   * Total *   -0.00000     11.99530    31.78115    0.22356    44.00000

 Normal termination of Gaussian 16 at Wed Dec  9 17:46:16 2020.
