 Gaussian 16, Revision A.03,

 -----------------------------------------------------------
 # opt freq B3LYP/6-31G(d) empiricaldispersion=gd3bj scf=xqc
 -----------------------------------------------------------

 ------------------------------
 CID_62268373_JID_6600_neutraal
 ------------------------------
 Symbolic Z-matrix:
 Charge =  0 Multiplicity = 1

 SCF Done:  E(RB3LYP) =  -1027.61347390     A.U. after   14 cycles
 SCF Done:  E(RB3LYP) =  -1027.61754965     A.U. after   15 cycles
 SCF Done:  E(RB3LYP) =  -1027.61566525     A.U. after   14 cycles
 SCF Done:  E(RB3LYP) =  -1027.61750249     A.U. after   13 cycles
 SCF Done:  E(RB3LYP) =  -1027.61856585     A.U. after   10 cycles
 SCF Done:  E(RB3LYP) =  -1027.61903841     A.U. after   13 cycles
 SCF Done:  E(RB3LYP) =  -1027.61922331     A.U. after   12 cycles
 SCF Done:  E(RB3LYP) =  -1027.61923833     A.U. after   10 cycles
 SCF Done:  E(RB3LYP) =  -1027.61924826     A.U. after   10 cycles
 SCF Done:  E(RB3LYP) =  -1027.61924896     A.U. after    8 cycles
 SCF Done:  E(RB3LYP) =  -1027.61938037     A.U. after   10 cycles
 SCF Done:  E(RB3LYP) =  -1027.61937965     A.U. after   10 cycles
 SCF Done:  E(RB3LYP) =  -1027.61938084     A.U. after   10 cycles
 SCF Done:  E(RB3LYP) =  -1027.61938090     A.U. after    7 cycles
 SCF Done:  E(RB3LYP) =  -1027.61938090     A.U. after    6 cycles
 Optimization completed.
    -- Stationary point found.
 Normal termination of Gaussian 16 at Fri Dec 11 00:12:04 2020.

 --------------------------------------------------------------------
 #N Geom=AllCheck Guess=TCheck SCRF=Check GenChk RB3LYP/6-31G(d) Freq
 --------------------------------------------------------------------

 Structure from the checkpoint file:  "JID_6600.chk"
 ------------------------------
 CID_62268373_JID_6600_neutraal
 ------------------------------
 Charge =  0 Multiplicity = 1

 SCF Done:  E(RB3LYP) =  -1027.61938090     A.U. after    1 cycles

  Exact polarizability: 201.350  -2.972 163.140   6.752 -17.515 120.792
 Approx polarizability: 268.392  -1.797 282.382  11.059 -44.303 211.548

                      1                      2                      3
                      A                      A                      A
 Frequencies --     13.6864                29.9099                37.6346
 Red. masses --      4.7275                 3.1087                 1.1430
 Frc consts  --      0.0005                 0.0016                 0.0010
 IR Inten    --      0.4291                 0.2828                 0.3983

                      4                      5                      6
                      A                      A                      A
 Frequencies --     61.4173                89.9808               138.5301
 Red. masses --      4.1518                 6.2499                 5.1101
 Frc consts  --      0.0092                 0.0298                 0.0578
 IR Inten    --      0.0731                 4.1710                 0.8603

                      7                      8                      9
                      A                      A                      A
 Frequencies --    158.7001               185.2377               204.6737
 Red. masses --      6.1677                 5.4683                 4.5610
 Frc consts  --      0.0915                 0.1106                 0.1126
 IR Inten    --      2.4966                 0.7849                 0.2117

                     10                     11                     12
                      A                      A                      A
 Frequencies --    264.9669               291.9256               313.9783
 Red. masses --      4.5150                 1.0393                 2.2674
 Frc consts  --      0.1868                 0.0522                 0.1317
 IR Inten    --      5.5204                22.8470                 2.5347

                     13                     14                     15
                      A                      A                      A
 Frequencies --    361.3164               406.4455               419.1135
 Red. masses --      3.9729                 2.6079                 3.1149
 Frc consts  --      0.3056                 0.2538                 0.3224
 IR Inten    --      4.1177                 0.3697                 0.4156

                     16                     17                     18
                      A                      A                      A
 Frequencies --    425.4422               435.0891               448.7365
 Red. masses --      4.5603                 3.5161                 7.9794
 Frc consts  --      0.4863                 0.3922                 0.9467
 IR Inten    --      1.0849                 0.7879                 8.8182

                     19                     20                     21
                      A                      A                      A
 Frequencies --    486.5315               544.0441               552.2950
 Red. masses --      4.2146                 2.9074                 5.6049
 Frc consts  --      0.5878                 0.5070                 1.0073
 IR Inten    --     37.5485                12.1230                12.0465

                     22                     23                     24
                      A                      A                      A
 Frequencies --    593.0140               631.4845               658.9405
 Red. masses --      3.8548                 1.5718                 6.1335
 Frc consts  --      0.7987                 0.3693                 1.5691
 IR Inten    --      1.2743               412.4834                 1.1680

                     25                     26                     27
                      A                      A                      A
 Frequencies --    676.1395               729.7537               745.3381
 Red. masses --      3.5709                 7.2773                 4.0879
 Frc consts  --      0.9618                 2.2834                 1.3380
 IR Inten    --      6.1501                 9.2839                37.5488

                     28                     29                     30
                      A                      A                      A
 Frequencies --    779.2561               788.3744               821.6094
 Red. masses --      3.6816                 7.2554                 1.2586
 Frc consts  --      1.3172                 2.6569                 0.5006
 IR Inten    --      4.7506                 9.1309                 0.6557

                     31                     32                     33
                      A                      A                      A
 Frequencies --    831.3415               837.7664               864.2752
 Red. masses --      1.2049                 1.8152                 5.1805
 Frc consts  --      0.4907                 0.7506                 2.2800
 IR Inten    --     10.7341                60.6948                 2.9989

                     34                     35                     36
                      A                      A                      A
 Frequencies --    889.1781               900.3091               943.0186
 Red. masses --      1.8244                 4.3996                 1.3172
 Frc consts  --      0.8499                 2.1011                 0.6901
 IR Inten    --      1.7900                31.1148                 0.5127

                     37                     38                     39
                      A                      A                      A
 Frequencies --    947.9884               992.3030              1002.1391
 Red. masses --      1.3148                 1.3945                 6.6200
 Frc consts  --      0.6962                 0.8090                 3.9171
 IR Inten    --      1.4011                 0.0280                 3.3183

                     40                     41                     42
                      A                      A                      A
 Frequencies --   1037.4841              1038.2179              1073.5149
 Red. masses --      2.7689                 1.7074                 1.6054
 Frc consts  --      1.7560                 1.0843                 1.0901
 IR Inten    --      1.3876                 2.2047                 6.7304

                     43                     44                     45
                      A                      A                      A
 Frequencies --   1101.0496              1130.9216              1164.0820
 Red. masses --      1.4734                 1.5065                 1.1953
 Frc consts  --      1.0524                 1.1353                 0.9543
 IR Inten    --      3.6545                 1.5698                 6.4013

                     46                     47                     48
                      A                      A                      A
 Frequencies --   1202.6893              1216.5639              1240.5906
 Red. masses --      1.1165                 1.1349                 2.3430
 Frc consts  --      0.9515                 0.9897                 2.1246
 IR Inten    --      3.7404                26.9757                65.9160

                     49                     50                     51
                      A                      A                      A
 Frequencies --   1248.1002              1265.9888              1294.1503
 Red. masses --      2.9459                 7.9975                 2.0271
 Frc consts  --      2.7037                 7.5520                 2.0003
 IR Inten    --     72.1867                11.6418                11.6943

                     52                     53                     54
                      A                      A                      A
 Frequencies --   1303.1911              1323.6930              1366.0752
 Red. masses --      1.8473                 3.1645                 1.3897
 Frc consts  --      1.8484                 3.2668                 1.5280
 IR Inten    --     23.3218                63.8867                 2.1723

                     55                     56                     57
                      A                      A                      A
 Frequencies --   1378.0757              1383.0730              1435.2035
 Red. masses --      3.7283                 2.9156                 1.2643
 Frc consts  --      4.1717                 3.2860                 1.5344
 IR Inten    --      3.2204               177.3439                 9.6834

                     58                     59                     60
                      A                      A                      A
 Frequencies --   1476.1640              1482.7372              1493.7558
 Red. masses --      2.1134                 1.4561                 2.1486
 Frc consts  --      2.7134                 1.8861                 2.8247
 IR Inten    --     48.3149                45.4036                 7.9624

                     61                     62                     63
                      A                      A                      A
 Frequencies --   1504.1411              1511.5362              1571.3363
 Red. masses --      1.0450                 1.1175                 2.6465
 Frc consts  --      1.3930                 1.5043                 3.8500
 IR Inten    --      6.2814                28.1212                79.9237

                     64                     65                     66
                      A                      A                      A
 Frequencies --   1607.5698              1625.9345              1640.2617
 Red. masses --      5.0082                 5.9547                 6.0540
 Frc consts  --      7.6256                 9.2750                 9.5967
 IR Inten    --    106.9634               274.4931                 2.4556

                     67                     68                     69
                      A                      A                      A
 Frequencies --   1677.2441              1696.9865              3061.8289
 Red. masses --      2.7859                 1.4484                 1.0358
 Frc consts  --      4.6175                 2.4576                 5.7212
 IR Inten    --     25.0441               130.4899                10.9065

                     70                     71                     72
                      A                      A                      A
 Frequencies --   3082.7609              3124.0590              3145.9159
 Red. masses --      1.0650                 1.1006                 1.1038
 Frc consts  --      5.9634                 6.3285                 6.4360
 IR Inten    --     17.3466                 7.7860                17.3149

                     73                     74                     75
                      A                      A                      A
 Frequencies --   3157.7343              3170.3644              3172.3306
 Red. masses --      1.1004                 1.0865                 1.0903
 Frc consts  --      6.4646                 6.4344                 6.4647
 IR Inten    --      1.9949                18.0053                16.8167

                     76                     77                     78
                      A                      A                      A
 Frequencies --   3173.6760              3188.1358              3218.7577
 Red. masses --      1.0891                 1.0944                 1.0920
 Frc consts  --      6.4630                 6.5537                 6.6658
 IR Inten    --     29.3796                21.3482                 7.3735

                     79                     80                     81
                      A                      A                      A
 Frequencies --   3223.2492              3546.5117              3644.8668
 Red. masses --      1.0942                 1.0479                 1.0978
 Frc consts  --      6.6977                 7.7656                 8.5929
 IR Inten    --     10.7294                10.8163                 7.0129

 - Thermochemistry -
 -------------------
 Temperature   298.150 Kelvin.  Pressure   1.00000 Atm.
 Atom     1 has atomic number  6 and mass  12.00000

 Molecular mass:   231.08302 amu.
 Principal axes and moments of inertia in atomic units:
                           1         2         3
     Eigenvalues --  2017.355097202.527537997.05953
           X            0.99997  -0.00697  -0.00222
           Y            0.00700   0.99993   0.01000
           Z            0.00215  -0.01002   0.99995
 This molecule is an asymmetric top.
 Rotational symmetry number  1.
 Warning -- assumption of classical behavior for rotation
           may cause significant error
 Rotational temperatures (Kelvin)      0.04293     0.01203     0.01083
 Rotational constants (GHZ):           0.89461     0.25057     0.22568
 Zero-point vibrational energy     609511.8 (Joules/Mol)
                                  145.67681 (Kcal/Mol)
 Warning -- explicit consideration of  22 degrees of freedom as
           vibrations may cause significant error
 Vibrational temperatures:     19.69    43.03    54.15    88.37   129.46
          (Kelvin)            199.31   228.33   266.52   294.48   381.23
                              420.02   451.74   519.85   584.78   603.01
                              612.12   626.00   645.63   700.01   782.76
                              794.63   853.21   908.57   948.07   972.81
                             1049.95  1072.38  1121.18  1134.29  1182.11
                             1196.11  1205.36  1243.50  1279.33  1295.34
                             1356.79  1363.94  1427.70  1441.85  1492.71
                             1493.76  1544.55  1584.16  1627.14  1674.85
                             1730.40  1750.36  1784.93  1795.74  1821.48
                             1861.99  1875.00  1904.50  1965.48  1982.74
                             1989.93  2064.94  2123.87  2133.33  2149.18
                             2164.12  2174.76  2260.80  2312.93  2339.36
                             2359.97  2413.18  2441.59  4405.29  4435.41
                             4494.82  4526.27  4543.28  4561.45  4564.28
                             4566.21  4587.02  4631.07  4637.54  5102.64
                             5244.15

 Zero-point correction=                           0.232151 (Hartree/Particle)
 Thermal correction to Energy=                    0.247123
 Thermal correction to Enthalpy=                  0.248068
 Thermal correction to Gibbs Free Energy=         0.187143
 Sum of electronic and zero-point Energies=          -1027.387230
 Sum of electronic and thermal Energies=             -1027.372257
 Sum of electronic and thermal Enthalpies=           -1027.371313
 Sum of electronic and thermal Free Energies=        -1027.432238

                     E (Thermal)             CV                S
                      KCal/Mol        Cal/Mol-Kelvin    Cal/Mol-Kelvin
 Total                  155.072             56.476            128.227
 Electronic               0.000              0.000              0.000
 Translational            0.889              2.981             42.215
 Rotational               0.889              2.981             33.118
 Vibrational            153.295             50.515             52.894
 Vibration     1          0.593              1.986              7.388
 Vibration     2          0.594              1.984              5.835
 Vibration     3          0.594              1.982              5.380
 Vibration     4          0.597              1.973              4.411
 Vibration     5          0.602              1.956              3.660
 Vibration     6          0.614              1.915              2.824
 Vibration     7          0.621              1.893              2.565
 Vibration     8          0.631              1.860              2.275
 Vibration     9          0.640              1.833              2.091
 Vibration    10          0.671              1.737              1.629
 Vibration    11          0.687              1.689              1.463
 Vibration    12          0.702              1.647              1.341
 Vibration    13          0.735              1.552              1.116
 Vibration    14          0.771              1.456              0.939
 Vibration    15          0.782              1.429              0.895
 Vibration    16          0.787              1.415              0.874
 Vibration    17          0.796              1.394              0.842
 Vibration    18          0.808              1.364              0.800
 Vibration    19          0.843              1.280              0.693
 Vibration    20          0.899              1.153              0.557
 Vibration    21          0.908              1.135              0.539
 Vibration    22          0.951              1.047              0.462

                           ! Non-Optimized Parameters !
 Normal termination of Gaussian 16 at Fri Dec 11 00:20:40 2020.

 ----------------------------------------------------------------------
 # B3LYP/6-311++G(d,p) empiricaldispersion=gd3bj scf=xqc pop=npa geom=c
 heck
 ----------------------------------------------------------------------

 --------------------------------------
 CID_62268373_JID_6600_Energie_neutraal
 --------------------------------------
 Structure from the checkpoint file:  "JID_6600.chk"
 Charge =  0 Multiplicity = 1

 SCF Done:  E(RB3LYP) =  -1027.81644077     A.U. after   16 cycles
 Normal termination of Gaussian 16 at Fri Dec 11 00:24:27 2020.

 ----------------------------------------------------------------------
 # B3LYP/6-311++G(d,p) empiricaldispersion=gd3bj scf=xqc pop=npa geom=c
 heck
 ----------------------------------------------------------------------

 ------------------------------------
 CID_62268373_JID_6600_Energie_kation
 ------------------------------------
 Structure from the checkpoint file:  "JID_6600.chk"
 Charge =  1 Multiplicity = 2

 SCF Done:  E(UB3LYP) =  -1027.54843483     A.U. after   25 cycles
 Normal termination of Gaussian 16 at Fri Dec 11 00:32:32 2020.
 Gaussian 16:  ES64L-G16RevA.03 25-Dec-2016

 ----------------------------------------------------------------------
 # B3LYP/6-311++G(d,p) empiricaldispersion=gd3bj scf=xqc pop=npa geom=c
 heck
 ----------------------------------------------------------------------

 -----------------------------------
 CID_62268373_JID_6600_Energie_anion
 -----------------------------------
 Structure from the checkpoint file:  "JID_6600.chk"
 Charge = -1 Multiplicity = 2

                         Standard orientation:
 ---------------------------------------------------------------------
 Center     Atomic      Atomic             Coordinates (Angstroms)
 Number     Number       Type             X           Y           Z
 ---------------------------------------------------------------------
      1          6           0        4.693561   -0.866112   -1.479327
      2          6           0        3.536804   -0.696110   -0.533771
      3          7           0        2.767704    0.384850   -0.714418
      4          6           0        1.739232    0.547646    0.128554
      5          7           0        1.397773   -0.258766    1.141592
      6          6           0        2.170066   -1.338654    1.302274
      7          6           0        3.262333   -1.613523    0.488489
      8         16           0        0.802400    2.018993   -0.175609
      9          6           0       -0.621864    1.815715    0.989363
     10          6           0       -1.686296    0.870028    0.508747
     11          6           0       -2.561230    1.235704   -0.522024
     12          6           0       -3.547299    0.369132   -0.976287
     13          6           0       -3.691121   -0.907378   -0.406731
     14          6           0       -2.817526   -1.279095    0.626146
     15          6           0       -1.832963   -0.402153    1.071680
     16          7           0       -4.719508   -1.761156   -0.819845
     17          1           0        4.332555   -0.888534   -2.512985
     18          1           0        5.373910   -0.011563   -1.396275
     19          1           0        5.251451   -1.784266   -1.276312
     20          1           0        1.897477   -2.004148    2.119852
     21          1           0        3.874029   -2.496097    0.638793
     22          1           0       -0.213016    1.506568    1.952009
     23          1           0       -1.006879    2.835809    1.087177
     24          1           0       -2.462776    2.215314   -0.984201
     25          1           0       -4.219111    0.678568   -1.773638
     26          1           0       -2.916436   -2.261403    1.082817
     27          1           0       -1.153782   -0.710416    1.859313
     28          1           0       -4.541216   -2.743905   -0.652472
     29          1           0       -5.038584   -1.605513   -1.768315
 ---------------------------------------------------------------------

 SCF Done:  E(UB3LYP) =  -1027.81325463     A.U. after   33 cycles
 SCF Done:  E(UB3LYP) =  -1027.81325463     a.u. after    1 cycles

 The electronic state is 2-A.
 Alpha  occ. eigenvalues --  -88.73431 -14.21279 -14.17635 -14.17120 -10.13736
 Alpha  occ. eigenvalues --  -10.10855 -10.09425 -10.08822 -10.07578 -10.06933
 Alpha  occ. eigenvalues --  -10.06770 -10.06506 -10.06422 -10.06205 -10.06147
 Alpha  occ. eigenvalues --  -10.05400  -7.82086  -5.78466  -5.78065  -5.77507
 Alpha  occ. eigenvalues --   -0.85752  -0.81577  -0.76120  -0.74263  -0.69744
 Alpha  occ. eigenvalues --   -0.66502  -0.64176  -0.61884  -0.60440  -0.55526
 Alpha  occ. eigenvalues --   -0.51318  -0.50985  -0.48998  -0.46671  -0.41630
 Alpha  occ. eigenvalues --   -0.40919  -0.39340  -0.37709  -0.36515  -0.34638
 Alpha  occ. eigenvalues --   -0.33002  -0.32709  -0.32497  -0.31700  -0.30632
 Alpha  occ. eigenvalues --   -0.29679  -0.28981  -0.28172  -0.27249  -0.27046
 Alpha  occ. eigenvalues --   -0.25929  -0.23852  -0.22168  -0.19847  -0.18860
 Alpha  occ. eigenvalues --   -0.17639  -0.17497  -0.15020  -0.12463  -0.11331
 Alpha  occ. eigenvalues --   -0.09989   0.04354
 Alpha virt. eigenvalues --    0.05740   0.07487   0.07846   0.08306   0.08984
 Alpha virt. eigenvalues --    0.09130   0.09457   0.10009   0.10120   0.10489
 Alpha virt. eigenvalues --    0.11345   0.11838   0.12554   0.12834   0.13343

  Beta  occ. eigenvalues --  -88.73433 -14.21220 -14.17464 -14.16849 -10.13769
  Beta  occ. eigenvalues --  -10.10844 -10.09424 -10.08545 -10.07240 -10.06922
  Beta  occ. eigenvalues --  -10.06771 -10.06499 -10.06423 -10.06230 -10.06129
  Beta  occ. eigenvalues --  -10.05493  -7.82088  -5.78467  -5.78066  -5.77513
  Beta  occ. eigenvalues --   -0.85368  -0.81508  -0.75584  -0.74230  -0.69595
  Beta  occ. eigenvalues --   -0.66323  -0.64154  -0.61789  -0.60300  -0.55488
  Beta  occ. eigenvalues --   -0.51214  -0.50546  -0.48891  -0.46582  -0.41569
  Beta  occ. eigenvalues --   -0.40868  -0.39108  -0.37566  -0.36471  -0.34595
  Beta  occ. eigenvalues --   -0.32787  -0.32585  -0.32083  -0.31671  -0.30546
  Beta  occ. eigenvalues --   -0.29620  -0.28619  -0.27998  -0.27085  -0.26862
  Beta  occ. eigenvalues --   -0.25862  -0.23828  -0.22122  -0.19799  -0.17678
  Beta  occ. eigenvalues --   -0.17322  -0.16455  -0.14955  -0.12189  -0.11068
  Beta  occ. eigenvalues --   -0.09886
  Beta virt. eigenvalues --    0.07056   0.07454   0.08138   0.08443   0.08859
  Beta virt. eigenvalues --    0.09283   0.09542   0.09647   0.10103   0.10360
  Beta virt. eigenvalues --    0.10694   0.11327   0.12011   0.12545   0.13086

 Mulliken charges and spin densities:
               1          2
     1  C   -0.454003  -0.040760
     2  C    0.162114   0.172840
     3  N    0.011444   0.147839
     4  C   -0.817417  -0.026881
     5  N   -0.002978   0.058428
     6  C   -0.173726   0.280966
     7  C   -0.231059  -0.065548
     8  S    0.277893  -0.038378
     9  C   -0.459286  -0.185773
    10  C    1.517185  -0.266344
    11  C   -0.775935   0.159392
    12  C   -0.121526   0.024435
    13  C    0.321196  -0.720628
    14  C   -0.207544  -0.165781
    15  C   -0.304234   0.042413
    16  N   -0.255835  -0.037600
    17  H    0.116364   0.038991
    18  H    0.130503   0.019319
    19  H    0.121246   0.001265
    20  H    0.111629   0.001420
    21  H    0.103047   0.013547
    22  H    0.193936   0.009489
    23  H    0.246155  -0.004883
    24  H    0.097651   0.016103
    25  H   -0.114650   0.258425
    26  H   -0.199225   0.359069
    27  H    0.174253  -0.003208
    28  H   -0.234738   0.478550
    29  H   -0.232460   0.473291
 Sum of Mulliken charges =  -1.00000   1.00000

 Dipole moment (field-independent basis, Debye):
    X=              3.9670    Y=              2.8391    Z=              2.4991  Tot=              5.4811
 Quadrupole moment (field-independent basis, Debye-Ang):
   XX=           -179.0234   YY=           -128.8898   ZZ=           -122.0542
   XY=            -24.6546   XZ=             -6.5581   YZ=             -2.9228

 Summary of Natural Population Analysis:

                                       Natural Population
                Natural  -----------------------------------------------
    Atom  No    Charge         Core      Valence    Rydberg      Total
 -----------------------------------------------------------------------
      C    1   -0.29967      0.99964     2.29535    0.00469     3.29967
      C    2    0.16756      0.99956     1.82103    0.01184     2.83244
      N    3   -0.23736      0.99962     2.72608    0.01166     3.73736
      C    4    0.13484      0.99958     1.83953    0.02605     2.86516
      N    5   -0.25903      0.99966     2.74682    0.01255     3.75903
      C    6    0.10375      0.99960     1.88045    0.01620     2.89625
      C    7   -0.17525      0.99951     2.16901    0.00674     3.17525
      S    8    0.12045      4.99952     2.86194    0.01809     7.87955
      C    9   -0.24958      0.99954     2.24065    0.00939     3.24958
      C   10   -0.05215      0.99949     2.04045    0.01220     3.05215
      C   11   -0.08622      0.99952     2.07706    0.00964     3.08622
      C   12   -0.12673      0.99952     2.11748    0.00972     3.12673
      C   13    0.08505      0.99949     1.90426    0.01120     2.91495
      C   14   -0.12417      0.99952     2.11497    0.00968     3.12417
      C   15   -0.08170      0.99952     2.07307    0.00910     3.08170
      N   16   -0.39688      0.99972     2.88655    0.01061     3.89688
      H   17    0.10780      0.00000     0.39124    0.00096     0.39220
      H   18    0.10602      0.00000     0.39303    0.00094     0.39398
      H   19    0.09324      0.00000     0.40599    0.00078     0.40676
      H   20    0.07966      0.00000     0.41918    0.00116     0.42034
      H   21    0.09725      0.00000     0.40182    0.00093     0.40275
      H   22    0.11775      0.00000     0.38107    0.00118     0.38225
      H   23    0.10308      0.00000     0.39601    0.00091     0.39692
      H   24    0.09688      0.00000     0.40203    0.00108     0.40312
      H   25    0.09643      0.00000     0.40214    0.00142     0.40357
      H   26    0.09791      0.00000     0.40068    0.00141     0.40209
      H   27    0.10814      0.00000     0.39032    0.00154     0.39186
      H   28    0.18717      0.00000     0.30823    0.00460     0.31283
      H   29    0.18575      0.00000     0.31036    0.00389     0.31425
 =======================================================================
   * Total *   -0.00000     19.99302    40.79682    0.21016    61.00000

 Normal termination of Gaussian 16 at Fri Dec 11 00:43:31 2020.
