 Gaussian 16, Revision A.03,

 -----------------------------------------------------------
 # opt freq B3LYP/6-31G(d) empiricaldispersion=gd3bj scf=xqc
 -----------------------------------------------------------

 ------------------------------
 CID_81862351_JID_5997_neutraal
 ------------------------------
 Symbolic Z-matrix:
 Charge =  0 Multiplicity = 1

 SCF Done:  E(RB3LYP) =  -688.772357308     A.U. after   14 cycles
 SCF Done:  E(RB3LYP) =  -688.778797862     A.U. after   12 cycles
 SCF Done:  E(RB3LYP) =  -688.779998367     A.U. after   12 cycles
 SCF Done:  E(RB3LYP) =  -688.780849557     A.U. after   12 cycles
 SCF Done:  E(RB3LYP) =  -688.781475404     A.U. after   12 cycles
 SCF Done:  E(RB3LYP) =  -688.782851666     A.U. after   14 cycles
 SCF Done:  E(RB3LYP) =  -688.783230576     A.U. after   14 cycles
 SCF Done:  E(RB3LYP) =  -688.784177150     A.U. after   11 cycles
 SCF Done:  E(RB3LYP) =  -688.784779939     A.U. after   12 cycles
 SCF Done:  E(RB3LYP) =  -688.785029131     A.U. after   12 cycles
 SCF Done:  E(RB3LYP) =  -688.787599760     A.U. after    9 cycles
 SCF Done:  E(RB3LYP) =  -688.787608032     A.U. after    9 cycles
 SCF Done:  E(RB3LYP) =  -688.787610283     A.U. after    9 cycles
 SCF Done:  E(RB3LYP) =  -688.787610812     A.U. after    7 cycles
 SCF Done:  E(RB3LYP) =  -688.787610975     A.U. after    7 cycles
 Optimization completed.
    -- Stationary point found.
 Normal termination of Gaussian 16 at Thu Dec 10 18:35:04 2020.

 --------------------------------------------------------------------
 #N Geom=AllCheck Guess=TCheck SCRF=Check GenChk RB3LYP/6-31G(d) Freq
 --------------------------------------------------------------------

 Structure from the checkpoint file:  "JID_5997.chk"
 ------------------------------
 CID_81862351_JID_5997_neutraal
 ------------------------------
 Charge =  0 Multiplicity = 1

 SCF Done:  E(RB3LYP) =  -688.787610975     A.U. after    1 cycles

  Exact polarizability: 175.757   5.116 133.012  -0.319  -3.400  87.381
 Approx polarizability: 231.152  10.663 215.870  -3.493  -3.920 129.306

                      1                      2                      3
                      A                      A                      A
 Frequencies --     32.6620                58.4019                64.8506
 Red. masses --      4.2820                 3.8681                 3.2916
 Frc consts  --      0.0027                 0.0078                 0.0082
 IR Inten    --      0.5304                 1.8403                 1.3684

                      4                      5                      6
                      A                      A                      A
 Frequencies --     83.9165               127.3734               146.8486
 Red. masses --      2.7765                 3.0705                 3.1911
 Frc consts  --      0.0115                 0.0294                 0.0405
 IR Inten    --      5.0772                 0.6851                 1.8689

                      7                      8                      9
                      A                      A                      A
 Frequencies --    155.0090               200.7998               225.1180
 Red. masses --      1.1073                 3.3009                 3.0725
 Frc consts  --      0.0157                 0.0784                 0.0917
 IR Inten    --      0.3122                 2.8874                 1.9265

                     10                     11                     12
                      A                      A                      A
 Frequencies --    251.5357               271.4463               280.2310
 Red. masses --      1.8475                 1.7823                 2.8217
 Frc consts  --      0.0689                 0.0774                 0.1306
 IR Inten    --     39.3841                11.9438                 6.3457

                     13                     14                     15
                      A                      A                      A
 Frequencies --    341.1080               362.7712               400.2235
 Red. masses --      2.4291                 3.4301                 4.1636
 Frc consts  --      0.1665                 0.2660                 0.3929
 IR Inten    --     22.1030                 8.8337                 6.6398

                     16                     17                     18
                      A                      A                      A
 Frequencies --    447.8307               463.2645               518.8071
 Red. masses --      4.0147                 3.8146                 3.4782
 Frc consts  --      0.4744                 0.4823                 0.5516
 IR Inten    --      6.0480                 0.5514                 3.0704

                     19                     20                     21
                      A                      A                      A
 Frequencies --    563.0050               600.7205               623.2409
 Red. masses --      4.0321                 2.8342                 3.2483
 Frc consts  --      0.7530                 0.6026                 0.7434
 IR Inten    --      3.0040                 2.3045                 0.4402

                     22                     23                     24
                      A                      A                      A
 Frequencies --    659.1240               684.8546               735.9562
 Red. masses --      5.6585                 3.7865                 4.8527
 Frc consts  --      1.4484                 1.0464                 1.5486
 IR Inten    --      7.4220                 1.0203                 8.9596

                     25                     26                     27
                      A                      A                      A
 Frequencies --    755.3845               772.8463               838.7718
 Red. masses --      4.3606                 4.1946                 2.8463
 Frc consts  --      1.4660                 1.4762                 1.1798
 IR Inten    --      1.1943                12.0139                13.4929

                     28                     29                     30
                      A                      A                      A
 Frequencies --    842.5523               880.8225               882.3291
 Red. masses --      1.4536                 1.9804                 1.3049
 Frc consts  --      0.6080                 0.9053                 0.5986
 IR Inten    --     27.3705                 6.3676               104.5805

                     31                     32                     33
                      A                      A                      A
 Frequencies --    952.4395               958.4830               977.4972
 Red. masses --      2.6751                 1.8498                 2.9157
 Frc consts  --      1.4298                 1.0012                 1.6414
 IR Inten    --     20.0245                 0.8841                 3.6453

                     34                     35                     36
                      A                      A                      A
 Frequencies --    987.5738               991.7123              1022.2962
 Red. masses --      2.2366                 1.3533                 1.5743
 Frc consts  --      1.2852                 0.7842                 0.9694
 IR Inten    --     14.6120                10.7719                 9.9090

                     37                     38                     39
                      A                      A                      A
 Frequencies --   1034.3094              1054.0936              1069.0080
 Red. masses --      2.1085                 3.1373                 2.7572
 Frc consts  --      1.3290                 2.0538                 1.8565
 IR Inten    --     28.6776                56.0174                 6.0580

                     40                     41                     42
                      A                      A                      A
 Frequencies --   1070.3266              1117.3396              1131.7156
 Red. masses --      1.5533                 2.5883                 4.7371
 Frc consts  --      1.0484                 1.9038                 3.5747
 IR Inten    --      2.3621                21.7806                99.4412

                     43                     44                     45
                      A                      A                      A
 Frequencies --   1135.7873              1157.9505              1188.5602
 Red. masses --      1.7089                 2.3915                 1.3301
 Frc consts  --      1.2988                 1.8893                 1.1071
 IR Inten    --      7.9733                52.1771                11.9122

                     46                     47                     48
                      A                      A                      A
 Frequencies --   1202.3245              1233.4597              1246.1141
 Red. masses --      1.8607                 1.3688                 1.2009
 Frc consts  --      1.5847                 1.2270                 1.0987
 IR Inten    --      2.3922                 1.6334                35.2077

                     49                     50                     51
                      A                      A                      A
 Frequencies --   1267.1883              1281.5912              1309.8702
 Red. masses --      1.8572                 1.2563                 2.9908
 Frc consts  --      1.7571                 1.2158                 3.0234
 IR Inten    --     17.5739                 5.6617               137.5758

                     52                     53                     54
                      A                      A                      A
 Frequencies --   1329.4852              1334.3913              1346.2229
 Red. masses --      1.4025                 1.3614                 1.6822
 Frc consts  --      1.4606                 1.4282                 1.7962
 IR Inten    --      0.2737                 5.9089               104.9835

                     55                     56                     57
                      A                      A                      A
 Frequencies --   1356.4942              1374.1187              1420.4385
 Red. masses --      2.0897                 1.3473                 1.3631
 Frc consts  --      2.2656                 1.4989                 1.6205
 IR Inten    --     38.3488                26.3913                 3.6812

                     58                     59                     60
                      A                      A                      A
 Frequencies --   1424.9506              1434.6962              1440.4556
 Red. masses --      1.6305                 1.6324                 1.3757
 Frc consts  --      1.9506                 1.9796                 1.6818
 IR Inten    --     11.3553                69.5501                 3.3077

                     61                     62                     63
                      A                      A                      A
 Frequencies --   1464.1695              1502.3913              1507.0462
 Red. masses --      2.0911                 1.6780                 1.0993
 Frc consts  --      2.6413                 2.2316                 1.4710
 IR Inten    --      8.0066                69.6449                 6.9679

                     64                     65                     66
                      A                      A                      A
 Frequencies --   1519.2424              1521.5514              1526.9692
 Red. masses --      1.0558                 1.2473                 1.3704
 Frc consts  --      1.4357                 1.7014                 1.8826
 IR Inten    --      5.9811                37.7360                95.4119

                     67                     68                     69
                      A                      A                      A
 Frequencies --   1534.9622              1547.4157              1632.4813
 Red. masses --      1.0915                 1.1044                 7.2348
 Frc consts  --      1.5152                 1.5581                11.3599
 IR Inten    --      3.4709                 4.4613                79.6773

                     70                     71                     72
                      A                      A                      A
 Frequencies --   1655.4006              1693.6590              2969.1396
 Red. masses --      6.2686                 1.0965                 1.0735
 Frc consts  --     10.1212                 1.8531                 5.5757
 IR Inten    --    134.2329                29.3662                92.8074

                     73                     74                     75
                      A                      A                      A
 Frequencies --   2971.8285              2992.4077              3030.6410
 Red. masses --      1.0719                 1.0744                 1.0880
 Frc consts  --      5.5777                 5.6681                 5.8877
 IR Inten    --     60.7830               109.6766                34.7483

                     76                     77                     78
                      A                      A                      A
 Frequencies --   3040.6644              3088.8314              3094.6478
 Red. masses --      1.0400                 1.1000                 1.0683
 Frc consts  --      5.6653                 6.1835                 6.0280
 IR Inten    --     23.0140                17.8815                20.0642

                     79                     80                     81
                      A                      A                      A
 Frequencies --   3109.3466              3119.9395              3154.7419
 Red. masses --      1.0842                 1.0911                 1.0917
 Frc consts  --      6.1758                 6.2574                 6.4012
 IR Inten    --     51.3955                26.8306                22.0134

                     82                     83                     84
                      A                      A                      A
 Frequencies --   3157.5264              3164.4336              3215.6868
 Red. masses --      1.0995                 1.1010                 1.0880
 Frc consts  --      6.4583                 6.4959                 6.6285
 IR Inten    --      4.4277                26.6671                 1.4264

                     85                     86                     87
                      A                      A                      A
 Frequencies --   3229.3590              3468.7527              3557.3641
 Red. masses --      1.0953                 1.0504                 1.0922
 Frc consts  --      6.7300                 7.4463                 8.1436
 IR Inten    --      7.7498                 1.1670                 0.4126

 - Thermochemistry -
 -------------------
 Temperature   298.150 Kelvin.  Pressure   1.00000 Atm.
 Atom     1 has atomic number  6 and mass  12.00000

 Molecular mass:   208.12118 amu.
 Principal axes and moments of inertia in atomic units:
                           1         2         3
     Eigenvalues --  1356.150315232.689276104.96556
           X            0.99995   0.00870   0.00515
           Y           -0.00864   0.99990  -0.01105
           Z           -0.00525   0.01101   0.99993
 This molecule is an asymmetric top.
 Rotational symmetry number  1.
 Warning -- assumption of classical behavior for rotation
           may cause significant error
 Rotational temperatures (Kelvin)      0.06387     0.01655     0.01419
 Rotational constants (GHZ):           1.33078     0.34490     0.29562
 Zero-point vibrational energy     697382.8 (Joules/Mol)
                                  166.67849 (Kcal/Mol)
 Warning -- explicit consideration of  20 degrees of freedom as
           vibrations may cause significant error
 Vibrational temperatures:     46.99    84.03    93.31   120.74   183.26
          (Kelvin)            211.28   223.02   288.91   323.89   361.90
                              390.55   403.19   490.78   521.95   575.83
                              644.33   666.53   746.45   810.04   864.30
                              896.70   948.33   985.35  1058.88  1086.83
                             1111.95  1206.81  1212.24  1267.31  1269.47
                             1370.35  1379.04  1406.40  1420.90  1426.85
                             1470.86  1488.14  1516.61  1538.06  1539.96
                             1607.60  1628.29  1634.14  1666.03  1710.07
                             1729.88  1774.67  1792.88  1823.20  1843.92
                             1884.61  1912.83  1919.89  1936.91  1951.69
                             1977.05  2043.69  2050.19  2064.21  2072.49
                             2106.61  2161.61  2168.30  2185.85  2189.17
                             2196.97  2208.47  2226.39  2348.78  2381.75
                             2436.80  4271.93  4275.80  4305.41  4360.42
                             4374.84  4444.14  4452.51  4473.66  4488.90
                             4538.97  4542.98  4552.91  4626.66  4646.33
                             4990.76  5118.25

 Zero-point correction=                           0.265619 (Hartree/Particle)
 Thermal correction to Energy=                    0.279828
 Thermal correction to Enthalpy=                  0.280772
 Thermal correction to Gibbs Free Energy=         0.223730
 Sum of electronic and zero-point Energies=           -688.521992
 Sum of electronic and thermal Energies=              -688.507783
 Sum of electronic and thermal Enthalpies=            -688.506839
 Sum of electronic and thermal Free Energies=         -688.563881

                     E (Thermal)             CV                S
                      KCal/Mol        Cal/Mol-Kelvin    Cal/Mol-Kelvin
 Total                  175.595             53.861            120.056
 Electronic               0.000              0.000              0.000
 Translational            0.889              2.981             41.903
 Rotational               0.889              2.981             32.138
 Vibrational            173.817             47.900             46.015
 Vibration     1          0.594              1.983              5.661
 Vibration     2          0.596              1.974              4.510
 Vibration     3          0.597              1.971              4.304
 Vibration     4          0.601              1.960              3.797
 Vibration     5          0.611              1.926              2.985
 Vibration     6          0.617              1.906              2.713
 Vibration     7          0.620              1.897              2.610
 Vibration     8          0.638              1.839              2.126
 Vibration     9          0.650              1.803              1.918
 Vibration    10          0.664              1.760              1.720
 Vibration    11          0.675              1.726              1.587
 Vibration    12          0.680              1.710              1.532
 Vibration    13          0.721              1.593              1.207
 Vibration    14          0.737              1.549              1.110
 Vibration    15          0.766              1.470              0.962
 Vibration    16          0.807              1.366              0.802
 Vibration    17          0.821              1.332              0.757
 Vibration    18          0.874              1.208              0.613
 Vibration    19          0.919              1.111              0.518
 Vibration    20          0.959              1.030              0.448

                           ! Non-Optimized Parameters !
 Normal termination of Gaussian 16 at Thu Dec 10 18:45:00 2020.

 ----------------------------------------------------------------------
 # B3LYP/6-311++G(d,p) empiricaldispersion=gd3bj scf=xqc pop=npa geom=c
 heck
 ----------------------------------------------------------------------

 --------------------------------------
 CID_81862351_JID_5997_Energie_neutraal
 --------------------------------------
 Structure from the checkpoint file:  "JID_5997.chk"
 Charge =  0 Multiplicity = 1

 SCF Done:  E(RB3LYP) =  -688.982921039     A.U. after   15 cycles
 Normal termination of Gaussian 16 at Thu Dec 10 18:49:41 2020.

 ----------------------------------------------------------------------
 # B3LYP/6-311++G(d,p) empiricaldispersion=gd3bj scf=xqc pop=npa geom=c
 heck
 ----------------------------------------------------------------------

 ------------------------------------
 CID_81862351_JID_5997_Energie_kation
 ------------------------------------
 Structure from the checkpoint file:  "JID_5997.chk"
 Charge =  1 Multiplicity = 2

 SCF Done:  E(UB3LYP) =  -688.696086686     A.U. after   23 cycles
 Normal termination of Gaussian 16 at Thu Dec 10 18:59:53 2020.
 Gaussian 16:  ES64L-G16RevA.03 25-Dec-2016

 ----------------------------------------------------------------------
 # B3LYP/6-311++G(d,p) empiricaldispersion=gd3bj scf=xqc pop=npa geom=c
 heck
 ----------------------------------------------------------------------

 -----------------------------------
 CID_81862351_JID_5997_Energie_anion
 -----------------------------------
 Structure from the checkpoint file:  "JID_5997.chk"
 Charge = -1 Multiplicity = 2

                         Standard orientation:
 ---------------------------------------------------------------------
 Center     Atomic      Atomic             Coordinates (Angstroms)
 Number     Number       Type             X           Y           Z
 ---------------------------------------------------------------------
      1          6           0        1.072946    2.306772   -0.013645
      2          6           0        1.122400    0.799376   -0.029624
      3          6           0        2.325117    0.082404   -0.104975
      4          6           0        2.240673   -1.317010   -0.128826
      5          6           0        1.008776   -1.949961   -0.066855
      6          6           0       -0.128020   -1.135076    0.013960
      7          7           0       -0.074167    0.189163    0.025797
      8          8           0       -1.330176   -1.762101    0.090512
      9          6           0       -2.552807   -1.006998    0.100415
     10          6           0       -2.832946   -0.191264   -1.179810
     11          6           0       -3.525520    1.059042   -0.625664
     12          8           0       -2.917455    1.300538    0.637394
     13          6           0       -2.714823    0.032440    1.244268
     14          6           0        3.661911    0.790391   -0.184100
     15          7           0        4.772128   -0.105062    0.157938
     16          1           0        0.030030    2.622630    0.055630
     17          1           0        1.624069    2.721326    0.840095
     18          1           0        1.518283    2.736893   -0.919842
     19          1           0        3.158647   -1.891171   -0.198358
     20          1           0        0.907307   -3.029304   -0.080836
     21          1           0       -3.294587   -1.799530    0.218947
     22          1           0       -3.448977   -0.741666   -1.896661
     23          1           0       -1.889333    0.080153   -1.653505
     24          1           0       -3.382767    1.951001   -1.241032
     25          1           0       -4.610334    0.888040   -0.507898
     26          1           0       -3.591439   -0.234048    1.856918
     27          1           0       -1.835570    0.090164    1.886004
     28          1           0        3.831159    1.138238   -1.213579
     29          1           0        3.624026    1.702012    0.436140
     30          1           0        5.655907    0.376333    0.005918
     31          1           0        4.732668   -0.327972    1.151805
 ---------------------------------------------------------------------

 SCF Done:  E(UB3LYP) =  -688.970949790     A.U. after   33 cycles
 SCF Done:  E(UB3LYP) =  -688.970949790     a.u. after    1 cycles

 The electronic state is 2-A.
 Alpha  occ. eigenvalues --  -19.06101 -19.02797 -14.20536 -14.19369 -10.16517
 Alpha  occ. eigenvalues --  -10.14225 -10.12424 -10.12149 -10.11829 -10.09937
 Alpha  occ. eigenvalues --  -10.08648 -10.08055 -10.08016 -10.07723 -10.06852
 Alpha  occ. eigenvalues --   -0.98372  -0.94716  -0.84559  -0.78738  -0.70885
 Alpha  occ. eigenvalues --   -0.70121  -0.67689  -0.64790  -0.61071  -0.57825
 Alpha  occ. eigenvalues --   -0.52730  -0.51874  -0.51338  -0.48453  -0.43795
 Alpha  occ. eigenvalues --   -0.42316  -0.40397  -0.39990  -0.37879  -0.36472
 Alpha  occ. eigenvalues --   -0.35934  -0.34455  -0.34012  -0.33329  -0.32627
 Alpha  occ. eigenvalues --   -0.32257  -0.31020  -0.30147  -0.29567  -0.28039
 Alpha  occ. eigenvalues --   -0.27928  -0.26535  -0.26485  -0.24883  -0.23192
 Alpha  occ. eigenvalues --   -0.21671  -0.18697  -0.17217  -0.16108  -0.15009
 Alpha  occ. eigenvalues --   -0.12874   0.04083
 Alpha virt. eigenvalues --    0.05300   0.06902   0.07304   0.07883   0.08068
 Alpha virt. eigenvalues --    0.08390   0.08837   0.09147   0.09900   0.10237
 Alpha virt. eigenvalues --    0.10871   0.11295   0.11615   0.12481   0.12668

  Beta  occ. eigenvalues --  -19.06099 -19.02794 -14.20533 -14.19311 -10.16510
  Beta  occ. eigenvalues --  -10.14213 -10.12405 -10.12138 -10.11819 -10.09906
  Beta  occ. eigenvalues --  -10.08639 -10.08054 -10.08013 -10.07709 -10.06837
  Beta  occ. eigenvalues --   -0.98363  -0.94708  -0.84548  -0.78645  -0.70866
  Beta  occ. eigenvalues --   -0.70088  -0.67662  -0.64762  -0.61033  -0.57768
  Beta  occ. eigenvalues --   -0.52682  -0.51844  -0.51291  -0.48424  -0.43772
  Beta  occ. eigenvalues --   -0.42284  -0.40343  -0.39966  -0.37845  -0.36435
  Beta  occ. eigenvalues --   -0.35905  -0.34429  -0.33961  -0.33281  -0.32600
  Beta  occ. eigenvalues --   -0.32207  -0.30999  -0.30123  -0.29527  -0.28013
  Beta  occ. eigenvalues --   -0.27911  -0.26512  -0.26450  -0.24861  -0.23170
  Beta  occ. eigenvalues --   -0.21650  -0.18681  -0.17203  -0.16084  -0.14953
  Beta  occ. eigenvalues --   -0.12838
  Beta virt. eigenvalues --    0.06214   0.06803   0.06954   0.07598   0.08194
  Beta virt. eigenvalues --    0.08409   0.08807   0.09225   0.09625   0.10062
  Beta virt. eigenvalues --    0.10622   0.11324   0.11513   0.11899   0.12583

 Mulliken charges and spin densities:
               1          2
     1  C    0.700017  -1.253201
     2  C   -2.178834   0.837099
     3  C    0.371381   0.718262
     4  C    0.562688  -0.439367
     5  C   -0.384916   0.028054
     6  C    0.010368   0.030604
     7  N    0.188948   0.046483
     8  O   -0.057323  -0.016230
     9  C   -0.623306   0.506397
    10  C    0.390424  -0.466747
    11  C    0.519755  -0.894618
    12  O   -0.088618   0.009213
    13  C    0.240415  -0.547676
    14  C    1.642193  -2.392600
    15  N   -0.497380   0.149915
    16  H    0.232954  -0.067638
    17  H   -0.095392   0.248943
    18  H   -0.024734   0.173516
    19  H    0.132842   0.086684
    20  H    0.025048   0.142456
    21  H   -0.484689   0.721664
    22  H   -0.323422   0.484008
    23  H    0.098824   0.080901
    24  H   -0.023708   0.176614
    25  H   -0.151785   0.279187
    26  H   -0.156658   0.284094
    27  H    0.101473   0.105168
    28  H   -0.160347   0.351189
    29  H   -0.493503   0.674662
    30  H   -0.337795   0.591539
    31  H   -0.134924   0.351424
 Sum of Mulliken charges =  -1.00000   1.00000

 Dipole moment (field-independent basis, Debye):
    X=             -4.2007    Y=             -1.3806    Z=             -0.3995  Tot=              4.4397
 Quadrupole moment (field-independent basis, Debye-Ang):
   XX=           -208.6611   YY=           -125.0088   ZZ=           -117.3888
   XY=            -12.0725   XZ=             -4.8535   YZ=             -3.5719

 Summary of Natural Population Analysis:

                                       Natural Population
                Natural  -----------------------------------------------
    Atom  No    Charge         Core      Valence    Rydberg      Total
 -----------------------------------------------------------------------
      C    1   -0.30394      0.99963     2.29808    0.00623     3.30394
      C    2    0.12034      0.99950     1.86685    0.01331     2.87966
      C    3   -0.05155      0.99946     2.04152    0.01057     3.05155
      C    4   -0.07451      0.99952     2.06622    0.00876     3.07451
      C    5   -0.14040      0.99952     2.13196    0.00892     3.14040
      C    6    0.26834      0.99944     1.71629    0.01593     2.73166
      N    7   -0.27348      0.99963     2.76299    0.01086     3.77348
      O    8   -0.27877      0.99985     3.26998    0.00894     4.27877
      C    9    0.05460      0.99952     1.93047    0.01541     2.94540
      C   10   -0.21742      0.99962     2.20999    0.00782     3.21742
      C   11   -0.01021      0.99961     1.99767    0.01293     3.01021
      O   12   -0.29519      0.99989     3.28633    0.00896     4.29519
      C   13   -0.02275      0.99958     2.01039    0.01278     3.02275
      C   14   -0.09387      0.99960     2.08267    0.01159     3.09387
      N   15   -0.42373      0.99978     2.91298    0.01097     3.92373
      H   16    0.11326      0.00000     0.38540    0.00133     0.38674
      H   17    0.10645      0.00000     0.39226    0.00129     0.39355
      H   18    0.10350      0.00000     0.39552    0.00098     0.39650
      H   19    0.11315      0.00000     0.38553    0.00132     0.38685
      H   20    0.10589      0.00000     0.39312    0.00099     0.39411
      H   21    0.09622      0.00000     0.40198    0.00180     0.40378
      H   22    0.10302      0.00000     0.39554    0.00145     0.39698
      H   23    0.11180      0.00000     0.38669    0.00150     0.38820
      H   24    0.09140      0.00000     0.40751    0.00108     0.40860
      H   25    0.07598      0.00000     0.42228    0.00175     0.42402
      H   26    0.07974      0.00000     0.41886    0.00140     0.42026
      H   27    0.10060      0.00000     0.39813    0.00127     0.39940
      H   28    0.09663      0.00000     0.40189    0.00148     0.40337
      H   29    0.08856      0.00000     0.40855    0.00289     0.41144
      H   30    0.18186      0.00000     0.31286    0.00528     0.31814
      H   31    0.17446      0.00000     0.32268    0.00285     0.32554
 =======================================================================
   * Total *    0.00000     14.99415    40.81320    0.19265    56.00000

 Normal termination of Gaussian 16 at Thu Dec 10 19:14:51 2020.
