 Gaussian 16, Revision A.03,

 -----------------------------------------------------------
 # opt freq B3LYP/6-31G(d) empiricaldispersion=gd3bj scf=xqc
 -----------------------------------------------------------

 ------------------------------
 CID_63245664_JID_5859_neutraal
 ------------------------------
 Symbolic Z-matrix:
 Charge =  0 Multiplicity = 1

 SCF Done:  E(RB3LYP) =  -1447.21709274     A.U. after   15 cycles
 SCF Done:  E(RB3LYP) =  -1447.22030531     A.U. after   13 cycles
 SCF Done:  E(RB3LYP) =  -1447.22563877     A.U. after   13 cycles
 SCF Done:  E(RB3LYP) =  -1447.22827847     A.U. after   13 cycles
 SCF Done:  E(RB3LYP) =  -1447.22767539     A.U. after   14 cycles
 SCF Done:  E(RB3LYP) =  -1447.23035764     A.U. after   12 cycles
 SCF Done:  E(RB3LYP) =  -1447.23067927     A.U. after   12 cycles
 SCF Done:  E(RB3LYP) =  -1447.23101612     A.U. after   12 cycles
 SCF Done:  E(RB3LYP) =  -1447.23116620     A.U. after   11 cycles
 SCF Done:  E(RB3LYP) =  -1447.23124541     A.U. after   11 cycles
 SCF Done:  E(RB3LYP) =  -1447.23235720     A.U. after    9 cycles
 SCF Done:  E(RB3LYP) =  -1447.23235638     A.U. after    9 cycles
 SCF Done:  E(RB3LYP) =  -1447.23235747     A.U. after    9 cycles
 SCF Done:  E(RB3LYP) =  -1447.23235746     A.U. after    7 cycles
 SCF Done:  E(RB3LYP) =  -1447.23235750     A.U. after    8 cycles
 Optimization completed.
    -- Stationary point found.
 Normal termination of Gaussian 16 at Thu Dec 10 17:45:58 2020.

 --------------------------------------------------------------------
 #N Geom=AllCheck Guess=TCheck SCRF=Check GenChk RB3LYP/6-31G(d) Freq
 --------------------------------------------------------------------

 Structure from the checkpoint file:  "JID_5859.chk"
 ------------------------------
 CID_63245664_JID_5859_neutraal
 ------------------------------
 Charge =  0 Multiplicity = 1

 SCF Done:  E(RB3LYP) =  -1447.23235750     A.U. after    1 cycles

  Exact polarizability: 170.332  -8.726 129.680  -6.514   8.334 121.580
 Approx polarizability: 217.665 -21.492 203.559 -20.697  25.362 203.158

                      1                      2                      3
                      A                      A                      A
 Frequencies --     26.4194                27.8841                32.5817
 Red. masses --      3.9931                 5.4214                 3.7010
 Frc consts  --      0.0016                 0.0025                 0.0023
 IR Inten    --      0.2873                 1.6944                 0.6842

                      4                      5                      6
                      A                      A                      A
 Frequencies --     56.6252                71.9456                99.8828
 Red. masses --      3.7447                 4.5586                 2.8259
 Frc consts  --      0.0071                 0.0139                 0.0166
 IR Inten    --      0.6905                 2.0594                 2.1574

                      7                      8                      9
                      A                      A                      A
 Frequencies --    111.8264               143.7603               163.4917
 Red. masses --      2.4421                 4.8749                 1.2337
 Frc consts  --      0.0180                 0.0594                 0.0194
 IR Inten    --      2.0878                 3.4599                 1.4236

                     10                     11                     12
                      A                      A                      A
 Frequencies --    177.1898               219.1551               229.4728
 Red. masses --      2.7699                 1.8884                 3.0833
 Frc consts  --      0.0512                 0.0534                 0.0957
 IR Inten    --      3.1350                 1.4469                 1.4659

                     13                     14                     15
                      A                      A                      A
 Frequencies --    243.0836               248.0336               253.9318
 Red. masses --      1.3601                 2.4545                 2.9164
 Frc consts  --      0.0474                 0.0890                 0.1108
 IR Inten    --      1.3849                 4.7858                 3.9098

                     16                     17                     18
                      A                      A                      A
 Frequencies --    264.6840               285.2396               303.7030
 Red. masses --      2.2164                 3.2873                 4.1132
 Frc consts  --      0.0915                 0.1576                 0.2235
 IR Inten    --      2.0555                 1.8540                 5.0792

                     19                     20                     21
                      A                      A                      A
 Frequencies --    346.8092               364.0526               409.0596
 Red. masses --      4.5114                 4.1628                 4.3282
 Frc consts  --      0.3197                 0.3251                 0.4267
 IR Inten    --      4.8687                 0.2616                 8.3195

                     22                     23                     24
                      A                      A                      A
 Frequencies --    424.1551               457.0455               468.2792
 Red. masses --      3.9363                 3.6522                 2.8383
 Frc consts  --      0.4172                 0.4495                 0.3667
 IR Inten    --      4.6225                17.6545                 3.1101

                     25                     26                     27
                      A                      A                      A
 Frequencies --    470.5252               540.2190               561.9685
 Red. masses --      3.8428                 3.0411                 3.3275
 Frc consts  --      0.5013                 0.5229                 0.6191
 IR Inten    --     15.8496               153.2600                22.2606

                     28                     29                     30
                      A                      A                      A
 Frequencies --    575.9655               619.3325               689.4327
 Red. masses --      1.9069                 4.2418                 5.2484
 Frc consts  --      0.3727                 0.9586                 1.4698
 IR Inten    --    105.3442                44.9105                 5.6989

                     31                     32                     33
                      A                      A                      A
 Frequencies --    716.7159               781.2255               785.1816
 Red. masses --      1.0965                 2.0465                 1.6318
 Frc consts  --      0.3319                 0.7359                 0.5927
 IR Inten    --     26.2213                 5.9114                 7.1066

                     34                     35                     36
                      A                      A                      A
 Frequencies --    800.2668               812.8588               872.7574
 Red. masses --      3.0250                 1.1770                 2.4637
 Frc consts  --      1.1414                 0.4582                 1.1056
 IR Inten    --     50.5466                 9.6340                 4.1236

                     37                     38                     39
                      A                      A                      A
 Frequencies --    899.0609               965.9992              1006.4170
 Red. masses --      2.6701                 2.2043                 2.8482
 Frc consts  --      1.2716                 1.2119                 1.6997
 IR Inten    --    164.5841                 2.7602                11.8240

                     40                     41                     42
                      A                      A                      A
 Frequencies --   1042.5834              1052.1202              1059.9311
 Red. masses --      2.8155                 2.2271                 2.3454
 Frc consts  --      1.8031                 1.4525                 1.5525
 IR Inten    --     54.3799                42.3213                22.2803

                     43                     44                     45
                      A                      A                      A
 Frequencies --   1079.7954              1107.3263              1110.7941
 Red. masses --      2.3089                 4.2212                 2.3121
 Frc consts  --      1.5861                 3.0496                 1.6808
 IR Inten    --     24.1940                42.9885                70.3606

                     46                     47                     48
                      A                      A                      A
 Frequencies --   1128.1647              1134.7510              1145.7426
 Red. masses --      1.8072                 2.3571                 1.5989
 Frc consts  --      1.3552                 1.7883                 1.2367
 IR Inten    --    113.8195                59.6959                17.3711

                     49                     50                     51
                      A                      A                      A
 Frequencies --   1184.8302              1209.7403              1236.7429
 Red. masses --      2.5050                 1.9301                 1.8561
 Frc consts  --      2.0719                 1.6643                 1.6727
 IR Inten    --     28.0495                55.3490                51.6232

                     52                     53                     54
                      A                      A                      A
 Frequencies --   1256.8776              1274.6780              1292.4330
 Red. masses --      1.4938                 1.8252                 1.5367
 Frc consts  --      1.3904                 1.7472                 1.5123
 IR Inten    --      1.4407                68.6600                58.4044

                     55                     56                     57
                      A                      A                      A
 Frequencies --   1314.6652              1331.6889              1361.2027
 Red. masses --      3.5574                 1.1250                 2.1643
 Frc consts  --      3.6226                 1.1754                 2.3627
 IR Inten    --    150.1826                 9.9716                 5.1331

                     58                     59                     60
                      A                      A                      A
 Frequencies --   1363.4533              1406.8181              1413.4873
 Red. masses --      1.1280                 1.2258                 1.2355
 Frc consts  --      1.2355                 1.4294                 1.4544
 IR Inten    --      2.9835                26.8419                12.6741

                     61                     62                     63
                      A                      A                      A
 Frequencies --   1435.7089              1438.6756              1444.0064
 Red. masses --      1.2479                 1.2270                 1.3050
 Frc consts  --      1.5155                 1.4963                 1.6032
 IR Inten    --     12.5287                 6.3475                18.0161

                     64                     65                     66
                      A                      A                      A
 Frequencies --   1474.7247              1481.5322              1496.2967
 Red. masses --      2.3038                 1.0996                 1.1521
 Frc consts  --      2.9520                 1.4220                 1.5198
 IR Inten    --    178.1111                 4.8830                 6.8173

                     67                     68                     69
                      A                      A                      A
 Frequencies --   1511.5958              1517.1638              1520.1090
 Red. masses --      1.0446                 1.0537                 1.0463
 Frc consts  --      1.4063                 1.4291                 1.4245
 IR Inten    --      8.4043                 1.3167                 4.1968

                     70                     71                     72
                      A                      A                      A
 Frequencies --   1520.3569              1532.8810              1534.3468
 Red. masses --      1.0527                 1.0532                 1.0647
 Frc consts  --      1.4336                 1.4581                 1.4769
 IR Inten    --      1.7808                31.5923                 1.5621

                     73                     74                     75
                      A                      A                      A
 Frequencies --   1539.3997              1546.4680              1681.1456
 Red. masses --      1.0668                 1.0822                 1.2725
 Frc consts  --      1.4895                 1.5250                 2.1189
 IR Inten    --      0.5700                 4.5826               151.2983

                     76                     77                     78
                      A                      A                      A
 Frequencies --   3007.3670              3054.0495              3064.6356
 Red. masses --      1.0703                 1.0392                 1.0589
 Frc consts  --      5.7036                 5.7106                 5.8597
 IR Inten    --     46.5654                 6.7304                24.0226

                     79                     80                     81
                      A                      A                      A
 Frequencies --   3071.1028              3075.5001              3096.0896
 Red. masses --      1.0324                 1.0403                 1.0588
 Frc consts  --      5.7371                 5.7974                 5.9801
 IR Inten    --     18.6413                19.2674                 4.1078

                     82                     83                     84
                      A                      A                      A
 Frequencies --   3100.3509              3122.9620              3125.5119
 Red. masses --      1.0944                 1.1003                 1.0866
 Frc consts  --      6.1980                 6.3226                 6.2539
 IR Inten    --     10.3055                58.5008                 1.3795

                     85                     86                     87
                      A                      A                      A
 Frequencies --   3133.1415              3137.5060              3137.9747
 Red. masses --      1.1013                 1.1027                 1.1035
 Frc consts  --      6.3694                 6.3954                 6.4022
 IR Inten    --      3.0964                37.5350                18.3328

                     88                     89                     90
                      A                      A                      A
 Frequencies --   3145.0258              3156.9254              3162.2687
 Red. masses --      1.1056                 1.1072                 1.1048
 Frc consts  --      6.4434                 6.5011                 6.5094
 IR Inten    --     10.9286                 7.8440                13.7587

                     91                     92                     93
                      A                      A                      A
 Frequencies --   3195.7349              3482.5598              3656.5806
 Red. masses --      1.0982                 1.0547                 1.0969
 Frc consts  --      6.6083                 7.5365                 8.6412
 IR Inten    --      3.7548               259.4268                99.7965

 - Thermochemistry -
 -------------------
 Temperature   298.150 Kelvin.  Pressure   1.00000 Atm.
 Atom     1 has atomic number  6 and mass  12.00000

 Molecular mass:   254.07589 amu.
 Principal axes and moments of inertia in atomic units:
                           1         2         3
     Eigenvalues --  2197.466666985.512747671.93448
           X            0.99971   0.02273   0.00832
           Y           -0.02261   0.99965  -0.01409
           Z           -0.00863   0.01389   0.99987
 This molecule is an asymmetric top.
 Rotational symmetry number  1.
 Warning -- assumption of classical behavior for rotation
           may cause significant error
 Rotational temperatures (Kelvin)      0.03942     0.01240     0.01129
 Rotational constants (GHZ):           0.82128     0.25835     0.23524
 Zero-point vibrational energy     727531.5 (Joules/Mol)
                                  173.88419 (Kcal/Mol)
 Warning -- explicit consideration of  29 degrees of freedom as
           vibrations may cause significant error
 Vibrational temperatures:     38.01    40.12    46.88    81.47   103.51
          (Kelvin)            143.71   160.89   206.84   235.23   254.94
                              315.32   330.16   349.74   356.86   365.35
                              380.82   410.40   436.96   498.98   523.79
                              588.55   610.26   657.59   673.75   676.98
                              777.25   808.55   828.69   891.08   991.94
                             1031.19  1124.01  1129.70  1151.41  1169.52
                             1255.70  1293.55  1389.86  1448.01  1500.04
                             1513.77  1525.00  1553.58  1593.20  1598.18
                             1623.18  1632.65  1648.47  1704.71  1740.55
                             1779.40  1808.37  1833.98  1859.52  1891.51
                             1916.00  1958.47  1961.71  2024.10  2033.69
                             2065.66  2069.93  2077.60  2121.80  2131.59
                             2152.84  2174.85  2182.86  2187.10  2187.45
                             2205.47  2207.58  2214.85  2225.02  2418.79
                             4326.93  4394.10  4409.33  4418.63  4424.96
                             4454.58  4460.71  4493.25  4496.91  4507.89
                             4514.17  4514.85  4524.99  4542.11  4549.80
                             4597.95  5010.63  5261.00

 Zero-point correction=                           0.277102 (Hartree/Particle)
 Thermal correction to Energy=                    0.295266
 Thermal correction to Enthalpy=                  0.296210
 Thermal correction to Gibbs Free Energy=         0.229066
 Sum of electronic and zero-point Energies=          -1446.955255
 Sum of electronic and thermal Energies=             -1446.937091
 Sum of electronic and thermal Enthalpies=           -1446.936147
 Sum of electronic and thermal Free Energies=        -1447.003291

                     E (Thermal)             CV                S
                      KCal/Mol        Cal/Mol-Kelvin    Cal/Mol-Kelvin
 Total                  185.282             65.323            141.317
 Electronic               0.000              0.000              0.000
 Translational            0.889              2.981             42.497
 Rotational               0.889              2.981             33.132
 Vibrational            183.505             59.362             65.687
 Vibration     1          0.593              1.985              6.082
 Vibration     2          0.593              1.984              5.975
 Vibration     3          0.594              1.983              5.666
 Vibration     4          0.596              1.975              4.571
 Vibration     5          0.598              1.967              4.099
 Vibration     6          0.604              1.949              3.457
 Vibration     7          0.607              1.940              3.237
 Vibration     8          0.616              1.909              2.753
 Vibration     9          0.623              1.887              2.509
 Vibration    10          0.628              1.870              2.358
 Vibration    11          0.647              1.812              1.966
 Vibration    12          0.652              1.796              1.883
 Vibration    13          0.659              1.774              1.780
 Vibration    14          0.662              1.766              1.745
 Vibration    15          0.665              1.756              1.703
 Vibration    16          0.671              1.738              1.631
 Vibration    17          0.683              1.701              1.502
 Vibration    18          0.695              1.667              1.396
 Vibration    19          0.725              1.582              1.181
 Vibration    20          0.738              1.546              1.105
 Vibration    21          0.773              1.451              0.930
 Vibration    22          0.786              1.418              0.878
 Vibration    23          0.815              1.345              0.775
 Vibration    24          0.825              1.320              0.742
 Vibration    25          0.828              1.315              0.736
 Vibration    26          0.895              1.161              0.565
 Vibration    27          0.918              1.114              0.520
 Vibration    28          0.932              1.083              0.493
 Vibration    29          0.979              0.991              0.418

                           ! Non-Optimized Parameters !
 Normal termination of Gaussian 16 at Thu Dec 10 17:57:11 2020.

 ----------------------------------------------------------------------
 # B3LYP/6-311++G(d,p) empiricaldispersion=gd3bj scf=xqc pop=npa geom=c
 heck
 ----------------------------------------------------------------------

 --------------------------------------
 CID_63245664_JID_5859_Energie_neutraal
 --------------------------------------
 Structure from the checkpoint file:  "JID_5859.chk"
 Charge =  0 Multiplicity = 1

 SCF Done:  E(RB3LYP) =  -1447.48239663     A.U. after   15 cycles
 Normal termination of Gaussian 16 at Thu Dec 10 18:02:50 2020.

 ----------------------------------------------------------------------
 # B3LYP/6-311++G(d,p) empiricaldispersion=gd3bj scf=xqc pop=npa geom=c
 heck
 ----------------------------------------------------------------------

 ------------------------------------
 CID_63245664_JID_5859_Energie_kation
 ------------------------------------
 Structure from the checkpoint file:  "JID_5859.chk"
 Charge =  1 Multiplicity = 2

 SCF Done:  E(UB3LYP) =  -1447.18621366     A.U. after   24 cycles
 Normal termination of Gaussian 16 at Thu Dec 10 18:15:25 2020.
 Gaussian 16:  ES64L-G16RevA.03 25-Dec-2016

 ----------------------------------------------------------------------
 # B3LYP/6-311++G(d,p) empiricaldispersion=gd3bj scf=xqc pop=npa geom=c
 heck
 ----------------------------------------------------------------------

 -----------------------------------
 CID_63245664_JID_5859_Energie_anion
 -----------------------------------
 Structure from the checkpoint file:  "JID_5859.chk"
 Charge = -1 Multiplicity = 2

                         Standard orientation:
 ---------------------------------------------------------------------
 Center     Atomic      Atomic             Coordinates (Angstroms)
 Number     Number       Type             X           Y           Z
 ---------------------------------------------------------------------
      1          6           0        4.403885    2.134338    0.126969
      2          6           0        4.305192    0.679304    0.571977
      3          8           0        3.875416   -0.181558   -0.482154
      4          6           0        2.476201   -0.203286   -0.685772
      5          6           0        1.833495   -1.263297    0.213914
      6         16           0        0.041583   -1.362106    0.030744
      7          8           0       -0.248266   -1.420237   -1.416880
      8          8           0       -0.444774   -2.428656    0.909485
      9          7           0       -0.459758    0.149575    0.607823
     10          6           0       -0.744299    0.148671    2.055809
     11          6           0       -1.369127    1.024779   -0.183710
     12          6           0       -0.798375    1.489712   -1.526894
     13          6           0       -2.804183    0.482092   -0.298404
     14         16           0       -4.053690    1.220274    0.518158
     15          7           0       -2.963189   -0.583795   -1.092929
     16          1           0        5.082814    2.222876   -0.726683
     17          1           0        4.784999    2.758600    0.943242
     18          1           0        3.427367    2.532551   -0.170172
     19          1           0        5.288728    0.303846    0.870662
     20          1           0        3.640559    0.586133    1.445059
     21          1           0        2.019615    0.774006   -0.489467
     22          1           0        2.301605   -0.456589   -1.733982
     23          1           0        2.203790   -2.263307   -0.028891
     24          1           0        2.024909   -1.071570    1.273357
     25          1           0       -0.752002    1.188210    2.391435
     26          1           0       -1.706964   -0.313550    2.294482
     27          1           0        0.044541   -0.384906    2.589220
     28          1           0       -1.457079    1.909870    0.446877
     29          1           0       -0.682933    0.680499   -2.245853
     30          1           0       -1.475605    2.240982   -1.944623
     31          1           0        0.177376    1.958468   -1.366996
     32          1           0       -2.163956   -1.059413   -1.507220
     33          1           0       -3.879182   -1.008116   -1.154089
 ---------------------------------------------------------------------

 SCF Done:  E(UB3LYP) =  -1447.48113332     A.U. after   33 cycles
 SCF Done:  E(UB3LYP) =  -1447.48113332     a.u. after    1 cycles

 The electronic state is 2-A.
 Alpha  occ. eigenvalues --  -88.97773 -88.67135 -19.04498 -19.03582 -19.03162
 Alpha  occ. eigenvalues --  -14.25666 -14.22234 -10.14396 -10.13147 -10.12655
 Alpha  occ. eigenvalues --  -10.12448 -10.11839 -10.10891 -10.07237 -10.06903
 Alpha  occ. eigenvalues --   -8.03966  -7.75887  -6.00250  -6.00226  -6.00029
 Alpha  occ. eigenvalues --   -5.72226  -5.71808  -5.71429  -1.03455  -0.95760
 Alpha  occ. eigenvalues --   -0.92570  -0.85184  -0.82226  -0.71984  -0.68211
 Alpha  occ. eigenvalues --   -0.66553  -0.62066  -0.61233  -0.58397  -0.55523
 Alpha  occ. eigenvalues --   -0.51715  -0.49486  -0.47372  -0.44433  -0.42758
 Alpha  occ. eigenvalues --   -0.42217  -0.40704  -0.40433  -0.39086  -0.37203
 Alpha  occ. eigenvalues --   -0.36761  -0.35350  -0.34856  -0.33427  -0.32512
 Alpha  occ. eigenvalues --   -0.32047  -0.30704  -0.30373  -0.29726  -0.29084
 Alpha  occ. eigenvalues --   -0.27802  -0.27078  -0.25830  -0.25285  -0.24527
 Alpha  occ. eigenvalues --   -0.23455  -0.23270  -0.22772  -0.22022  -0.18086
 Alpha  occ. eigenvalues --   -0.16867  -0.11872  -0.09281   0.03862
 Alpha virt. eigenvalues --    0.05413   0.07045   0.07478   0.07996   0.09123
 Alpha virt. eigenvalues --    0.09580   0.09739   0.10329   0.10604   0.11112
 Alpha virt. eigenvalues --    0.12208   0.12500   0.12919   0.13229   0.13596

  Beta  occ. eigenvalues --  -88.97770 -88.67118 -19.04492 -19.03573 -19.03157
  Beta  occ. eigenvalues --  -14.25617 -14.22127 -10.14386 -10.13117 -10.12648
  Beta  occ. eigenvalues --  -10.12462 -10.11367 -10.10876 -10.07196 -10.06875
  Beta  occ. eigenvalues --   -8.03963  -7.75872  -6.00241  -6.00221  -6.00027
  Beta  occ. eigenvalues --   -5.72233  -5.71735  -5.71420  -1.03429  -0.95745
  Beta  occ. eigenvalues --   -0.92553  -0.85016  -0.81888  -0.71948  -0.68058
  Beta  occ. eigenvalues --   -0.66491  -0.61866  -0.60999  -0.58342  -0.55442
  Beta  occ. eigenvalues --   -0.51624  -0.49240  -0.47255  -0.44288  -0.42722
  Beta  occ. eigenvalues --   -0.42177  -0.40668  -0.40339  -0.39036  -0.37153
  Beta  occ. eigenvalues --   -0.36699  -0.35268  -0.34793  -0.33338  -0.32468
  Beta  occ. eigenvalues --   -0.31981  -0.30429  -0.30314  -0.29673  -0.28972
  Beta  occ. eigenvalues --   -0.27706  -0.27023  -0.25713  -0.24674  -0.24215
  Beta  occ. eigenvalues --   -0.23387  -0.23051  -0.22570  -0.21941  -0.18056
  Beta  occ. eigenvalues --   -0.16742  -0.11109  -0.09223
  Beta virt. eigenvalues --    0.06278   0.07491   0.07781   0.08128   0.08686
  Beta virt. eigenvalues --    0.09246   0.09695   0.10120   0.10471   0.10733
  Beta virt. eigenvalues --    0.11321   0.12412   0.12522   0.12987   0.13246

 Mulliken charges and spin densities:
               1          2
     1  C    0.597548  -1.041164
     2  C    0.218039  -0.358454
     3  O   -0.072604   0.008652
     4  C   -0.870644   0.554156
     5  C   -0.229737  -0.283824
     6  S    0.151099  -0.122898
     7  O   -0.221405   0.002022
     8  O    0.004372   0.009259
     9  N   -0.151285   0.114389
    10  C    0.038468  -0.374498
    11  C   -0.129647   0.063410
    12  C   -0.153658  -0.331847
    13  C    0.002030   0.266707
    14  S   -0.801349   0.029149
    15  N   -0.295935   0.089984
    16  H    0.008931   0.138775
    17  H   -0.417994   0.557445
    18  H   -0.400427   0.533527
    19  H   -0.312985   0.487440
    20  H   -0.197144   0.302258
    21  H    0.888955  -0.777716
    22  H    0.061970   0.140481
    23  H    0.263082  -0.015906
    24  H    0.117555   0.136378
    25  H   -0.044220   0.203658
    26  H    0.133573   0.080131
    27  H   -0.088663   0.270016
    28  H    0.178928   0.009437
    29  H    0.188666  -0.031153
    30  H    0.146742   0.012664
    31  H   -0.149768   0.321637
    32  H    0.283523  -0.004369
    33  H    0.253984   0.010252
 Sum of Mulliken charges =  -1.00000   1.00000

 Dipole moment (field-independent basis, Debye):
    X=              0.6178    Y=             -3.9085    Z=             -3.6658  Tot=              5.3941
 Quadrupole moment (field-independent basis, Debye-Ang):
   XX=           -203.5541   YY=           -145.2740   ZZ=           -135.3911
   XY=             -4.7730   XZ=             -0.7643   YZ=             -3.7107

 Summary of Natural Population Analysis:

                                       Natural Population
                Natural  -----------------------------------------------
    Atom  No    Charge         Core      Valence    Rydberg      Total
 -----------------------------------------------------------------------
      C    1   -0.29999      0.99967     2.29486    0.00547     3.29999
      C    2   -0.01119      0.99959     1.99877    0.01282     3.01119
      O    3   -0.29963      0.99989     3.29033    0.00942     4.29963
      C    4   -0.02055      0.99955     2.00764    0.01336     3.02055
      C    5   -0.29861      0.99957     2.28688    0.01216     3.29861
      S    6    1.10637      4.99921     1.79558    0.09884     6.89363
      O    7   -0.47979      0.99990     3.47432    0.00557     4.47979
      O    8   -0.45889      0.99991     3.45378    0.00520     4.45889
      N    9   -0.37503      0.99973     2.86003    0.01527     3.87503
      C   10   -0.17768      0.99963     2.16921    0.00885     3.17768
      C   11   -0.03338      0.99950     2.01884    0.01503     3.03338
      C   12   -0.28870      0.99963     2.28193    0.00714     3.28870
      C   13    0.12359      0.99962     1.85531    0.02148     2.87641
      S   14   -0.13247      4.99954     3.11844    0.01449     8.13247
      N   15   -0.37636      0.99965     2.86576    0.01095     3.87636
      H   16    0.09885      0.00000     0.40013    0.00102     0.40115
      H   17    0.10477      0.00000     0.39336    0.00188     0.39523
      H   18    0.09863      0.00000     0.39991    0.00146     0.40137
      H   19    0.08941      0.00000     0.40926    0.00133     0.41059
      H   20    0.07980      0.00000     0.41822    0.00198     0.42020
      H   21    0.09097      0.00000     0.40700    0.00202     0.40903
      H   22    0.09685      0.00000     0.40200    0.00115     0.40315
      H   23    0.11641      0.00000     0.38256    0.00102     0.38359
      H   24    0.11603      0.00000     0.38246    0.00151     0.38397
      H   25    0.10230      0.00000     0.39665    0.00104     0.39770
      H   26    0.10404      0.00000     0.39489    0.00107     0.39596
      H   27    0.09917      0.00000     0.39984    0.00099     0.40083
      H   28    0.11388      0.00000     0.38446    0.00166     0.38612
      H   29    0.10843      0.00000     0.39056    0.00101     0.39157
      H   30    0.10527      0.00000     0.39409    0.00064     0.39473
      H   31    0.10036      0.00000     0.39845    0.00119     0.39964
      H   32    0.20457      0.00000     0.29365    0.00178     0.29543
      H   33    0.19257      0.00000     0.30574    0.00170     0.30743
 =======================================================================
   * Total *   -0.00000     22.99459    44.72491    0.28050    68.00000

 Normal termination of Gaussian 16 at Thu Dec 10 18:32:23 2020.
