 Gaussian 16, Revision A.03,

 -----------------------------------------------------------
 # opt freq B3LYP/6-31G(d) empiricaldispersion=gd3bj scf=xqc
 -----------------------------------------------------------

 ------------------------------
 CID_80193241_JID_3803_neutraal
 ------------------------------
 Symbolic Z-matrix:
 Charge =  0 Multiplicity = 1

 SCF Done:  E(RB3LYP) =  -561.873910791     A.U. after   14 cycles
 SCF Done:  E(RB3LYP) =  -561.876483156     A.U. after   12 cycles
 SCF Done:  E(RB3LYP) =  -561.876700480     A.U. after   11 cycles
 SCF Done:  E(RB3LYP) =  -561.877103733     A.U. after   11 cycles
 SCF Done:  E(RB3LYP) =  -561.877196716     A.U. after   11 cycles
 SCF Done:  E(RB3LYP) =  -561.877311073     A.U. after   12 cycles
 SCF Done:  E(RB3LYP) =  -561.877415277     A.U. after   10 cycles
 SCF Done:  E(RB3LYP) =  -561.877564533     A.U. after   12 cycles
 SCF Done:  E(RB3LYP) =  -561.877593768     A.U. after   10 cycles
 SCF Done:  E(RB3LYP) =  -561.877633002     A.U. after   11 cycles
 SCF Done:  E(RB3LYP) =  -561.877644603     A.U. after   11 cycles
 SCF Done:  E(RB3LYP) =  -561.877646991     A.U. after    9 cycles
 SCF Done:  E(RB3LYP) =  -561.877658684     A.U. after    9 cycles
 SCF Done:  E(RB3LYP) =  -561.877660536     A.U. after    9 cycles
 SCF Done:  E(RB3LYP) =  -561.877661440     A.U. after    7 cycles
 SCF Done:  E(RB3LYP) =  -561.877661780     A.U. after    7 cycles
 Optimization completed.
    -- Stationary point found.
 Normal termination of Gaussian 16 at Mon Dec 14 16:37:49 2020.

 --------------------------------------------------------------------
 #N Geom=AllCheck Guess=TCheck SCRF=Check GenChk RB3LYP/6-31G(d) Freq
 --------------------------------------------------------------------

 Structure from the checkpoint file:  "JID_3803.chk"
 ------------------------------
 CID_80193241_JID_3803_neutraal
 ------------------------------
 Charge =  0 Multiplicity = 1

 SCF Done:  E(RB3LYP) =  -561.877661780     A.U. after    1 cycles

  Exact polarizability: 145.829   2.965 106.814  -1.011   0.492 111.157
 Approx polarizability: 174.471   0.827 153.103  -8.187   4.427 178.413

                      1                      2                      3
                      A                      A                      A
 Frequencies --     32.5285                60.6227                68.4123
 Red. masses --      4.2743                 2.7505                 3.5998
 Frc consts  --      0.0027                 0.0060                 0.0099
 IR Inten    --      1.6352                 0.6381                 1.4241

                      4                      5                      6
                      A                      A                      A
 Frequencies --     99.7922               110.5418               162.0947
 Red. masses --      2.1606                 1.9339                 2.2458
 Frc consts  --      0.0127                 0.0139                 0.0348
 IR Inten    --      0.3661                 0.1045                 2.5028

                      7                      8                      9
                      A                      A                      A
 Frequencies --    168.0841               193.3750               220.3036
 Red. masses --      2.0073                 3.3763                 1.3013
 Frc consts  --      0.0334                 0.0744                 0.0372
 IR Inten    --      0.4574                 0.4699                 0.1316

                     10                     11                     12
                      A                      A                      A
 Frequencies --    234.8188               252.4830               276.4714
 Red. masses --      1.4884                 2.1081                 3.1613
 Frc consts  --      0.0484                 0.0792                 0.1424
 IR Inten    --      0.0636                 3.1305                 4.6840

                     13                     14                     15
                      A                      A                      A
 Frequencies --    286.6911               296.5537               329.9851
 Red. masses --      1.2621                 2.1440                 2.7523
 Frc consts  --      0.0611                 0.1111                 0.1766
 IR Inten    --      0.0245                 4.2471                 0.4766

                     16                     17                     18
                      A                      A                      A
 Frequencies --    347.9659               399.7730               448.6390
 Red. masses --      1.8225                 2.1840                 2.2111
 Frc consts  --      0.1300                 0.2057                 0.2622
 IR Inten    --      0.1550                 0.6314                 0.1461

                     19                     20                     21
                      A                      A                      A
 Frequencies --    480.7370               537.2510               586.0653
 Red. masses --      3.0897                 3.8789                 3.1158
 Frc consts  --      0.4207                 0.6596                 0.6305
 IR Inten    --      5.6583                 4.6373                 1.2892

                     22                     23                     24
                      A                      A                      A
 Frequencies --    616.0777               739.2832               759.4881
 Red. masses --      3.5640                 4.0448                 2.5121
 Frc consts  --      0.7970                 1.3025                 0.8537
 IR Inten    --      5.5933                 5.3676                 2.4896

                     25                     26                     27
                      A                      A                      A
 Frequencies --    789.6916               797.1572               812.7393
 Red. masses --      1.5645                 1.2244                 1.2068
 Frc consts  --      0.5748                 0.4584                 0.4697
 IR Inten    --      2.1857                 1.9055                 0.2720

                     28                     29                     30
                      A                      A                      A
 Frequencies --    826.0473               863.5846               905.3317
 Red. masses --      1.9765                 1.6482                 2.0366
 Frc consts  --      0.7946                 0.7242                 0.9835
 IR Inten    --      3.0424                 5.8134                 1.2012

                     31                     32                     33
                      A                      A                      A
 Frequencies --    955.6498               964.2967               996.3697
 Red. masses --      2.5085                 1.8829                 1.8907
 Frc consts  --      1.3498                 1.0316                 1.1059
 IR Inten    --      4.3462                 4.5924                 1.0454

                     34                     35                     36
                      A                      A                      A
 Frequencies --   1009.2798              1026.6367              1041.3425
 Red. masses --      1.8241                 2.3414                 1.9473
 Frc consts  --      1.0948                 1.4540                 1.2441
 IR Inten    --      1.0194                 1.7252                 8.0246

                     37                     38                     39
                      A                      A                      A
 Frequencies --   1053.7471              1062.9885              1084.2964
 Red. masses --      2.2060                 1.9067                 1.7551
 Frc consts  --      1.4432                 1.2694                 1.2157
 IR Inten    --      1.4368                 1.5105                 2.7423

                     40                     41                     42
                      A                      A                      A
 Frequencies --   1094.6355              1111.4381              1122.5756
 Red. masses --      1.8184                 1.6632                 1.5715
 Frc consts  --      1.2837                 1.2105                 1.1668
 IR Inten    --      9.9751                 1.5686                17.9053

                     43                     44                     45
                      A                      A                      A
 Frequencies --   1171.7042              1188.7885              1216.6631
 Red. masses --      2.2422                 1.5703                 1.8202
 Frc consts  --      1.8137                 1.3075                 1.5875
 IR Inten    --      4.5263                 1.3134                17.0994

                     46                     47                     48
                      A                      A                      A
 Frequencies --   1237.2201              1253.5796              1259.5457
 Red. masses --      1.5951                 2.7965                 1.5741
 Frc consts  --      1.4386                 2.5892                 1.4713
 IR Inten    --     12.4598                18.2409                 6.2202

                     49                     50                     51
                      A                      A                      A
 Frequencies --   1287.5843              1294.0647              1332.7818
 Red. masses --      1.2979                 1.3014                 1.2712
 Frc consts  --      1.2678                 1.2840                 1.3304
 IR Inten    --     16.0493                 5.7969                 4.3792

                     52                     53                     54
                      A                      A                      A
 Frequencies --   1346.5197              1356.2298              1358.9996
 Red. masses --      1.2813                 1.4485                 1.3428
 Frc consts  --      1.3687                 1.5698                 1.4611
 IR Inten    --      7.0815                 3.1953                 0.6886

                     55                     56                     57
                      A                      A                      A
 Frequencies --   1372.3821              1388.2467              1398.7558
 Red. masses --      1.4386                 1.4704                 1.4825
 Frc consts  --      1.5964                 1.6696                 1.7089
 IR Inten    --      3.5314                 3.8006                 5.2948

                     58                     59                     60
                      A                      A                      A
 Frequencies --   1417.8942              1428.1785              1443.7405
 Red. masses --      1.5050                 1.3477                 1.2437
 Frc consts  --      1.7826                 1.6196                 1.5273
 IR Inten    --      4.4632                26.8851                 6.0273

                     61                     62                     63
                      A                      A                      A
 Frequencies --   1447.3662              1458.7247              1511.8617
 Red. masses --      1.2677                 3.2151                 1.0693
 Frc consts  --      1.5647                 4.0307                 1.4401
 IR Inten    --      0.3893               249.5347                 0.9242

                     64                     65                     66
                      A                      A                      A
 Frequencies --   1517.5493              1518.3133              1525.6826
 Red. masses --      1.0683                 1.0733                 1.0781
 Frc consts  --      1.4496                 1.4578                 1.4785
 IR Inten    --      9.1457                 0.7796                 3.0725

                     67                     68                     69
                      A                      A                      A
 Frequencies --   1528.2379              1531.5418              1534.2381
 Red. masses --      1.0632                 1.0561                 1.0466
 Frc consts  --      1.4630                 1.4595                 1.4515
 IR Inten    --      7.0117                 5.9617                 8.0980

                     70                     71                     72
                      A                      A                      A
 Frequencies --   1538.2000              1540.0163              1541.6486
 Red. masses --      1.0651                 1.0591                 1.0776
 Frc consts  --      1.4848                 1.4799                 1.5090
 IR Inten    --     18.4752                 7.6735                 3.3308

                     73                     74                     75
                      A                      A                      A
 Frequencies --   1553.6773              1564.7980              1753.1733
 Red. masses --      1.0718                 1.0903                10.1926
 Frc consts  --      1.5244                 1.5729                18.4580
 IR Inten    --     11.1635                 0.8261               279.4543

                     76                     77                     78
                      A                      A                      A
 Frequencies --   3021.5872              3027.8784              3032.8174
 Red. masses --      1.0686                 1.0636                 1.0635
 Frc consts  --      5.7482                 5.7451                 5.7632
 IR Inten    --     13.3621                32.7010                64.0104

                     79                     80                     81
                      A                      A                      A
 Frequencies --   3040.2201              3052.7519              3054.4547
 Red. masses --      1.0628                 1.0388                 1.0356
 Frc consts  --      5.7880                 5.7038                 5.6926
 IR Inten    --     33.4339                15.2004                 9.5060

                     82                     83                     84
                      A                      A                      A
 Frequencies --   3056.2415              3059.3936              3063.8190
 Red. masses --      1.0398                 1.0979                 1.0705
 Frc consts  --      5.7224                 6.0544                 5.9207
 IR Inten    --     39.5240                15.8459                17.8272

                     85                     86                     87
                      A                      A                      A
 Frequencies --   3071.3896              3075.4302              3078.3568
 Red. masses --      1.0961                 1.0754                 1.0817
 Frc consts  --      6.0923                 5.9927                 6.0396
 IR Inten    --     31.0236                59.9055                12.0348

                     88                     89                     90
                      A                      A                      A
 Frequencies --   3111.5821              3112.0681              3114.6113
 Red. masses --      1.1025                 1.1023                 1.1017
 Frc consts  --      6.2891                 6.2902                 6.2969
 IR Inten    --     52.7559                 7.5884                 6.7667

                     91                     92                     93
                      A                      A                      A
 Frequencies --   3116.1819              3125.9016              3127.0454
 Red. masses --      1.1017                 1.0995                 1.0986
 Frc consts  --      6.3029                 6.3301                 6.3294
 IR Inten    --     56.3520                18.7069                48.4789

                     94                     95                     96
                      A                      A                      A
 Frequencies --   3127.1968              3136.4566              3139.7025
 Red. masses --      1.0974                 1.1017                 1.1038
 Frc consts  --      6.3233                 6.3857                 6.4108
 IR Inten    --     22.9581                25.1082                34.2530

 - Thermochemistry -
 -------------------
 Temperature   298.150 Kelvin.  Pressure   1.00000 Atm.
 Atom     1 has atomic number  6 and mass  12.00000

 Molecular mass:   183.16231 amu.
 Principal axes and moments of inertia in atomic units:
                           1         2         3
     Eigenvalues --  1191.522903925.381434052.42488
           X            0.99981   0.01578   0.01112
           Y           -0.01458   0.99479  -0.10088
           Z           -0.01266   0.10070   0.99484
 This molecule is an asymmetric top.
 Rotational symmetry number  1.
 Warning -- assumption of classical behavior for rotation
           may cause significant error
 Rotational temperatures (Kelvin)      0.07269     0.02207     0.02137
 Rotational constants (GHZ):           1.51465     0.45976     0.44535
 Zero-point vibrational energy     818179.0 (Joules/Mol)
                                  195.54947 (Kcal/Mol)
 Warning -- explicit consideration of  22 degrees of freedom as
           vibrations may cause significant error
 Vibrational temperatures:     46.80    87.22    98.43   143.58   159.05
          (Kelvin)            233.22   241.84   278.22   316.97   337.85
                              363.27   397.78   412.48   426.67   474.78
                              500.65   575.18   645.49   691.67   772.98
                              843.22   886.40  1063.66  1092.73  1136.19
                             1146.93  1169.35  1188.50  1242.51  1302.57
                             1374.97  1387.41  1433.55  1452.13  1477.10
                             1498.26  1516.11  1529.40  1560.06  1574.94
                             1599.11  1615.14  1685.82  1710.40  1750.51
                             1780.08  1803.62  1812.21  1852.55  1861.87
                             1917.58  1937.34  1951.31  1955.30  1974.55
                             1997.38  2012.50  2040.03  2054.83  2077.22
                             2082.44  2098.78  2175.23  2183.41  2184.51
                             2195.12  2198.79  2203.55  2207.43  2213.13
                             2215.74  2218.09  2235.40  2251.40  2522.43
                             4347.39  4356.44  4363.55  4374.20  4392.23
                             4394.68  4397.25  4401.78  4408.15  4419.04
                             4424.86  4429.07  4476.87  4477.57  4481.23
                             4483.49  4497.48  4499.12  4499.34  4512.66
                             4517.33

 Zero-point correction=                           0.311628 (Hartree/Particle)
 Thermal correction to Energy=                    0.326361
 Thermal correction to Enthalpy=                  0.327305
 Thermal correction to Gibbs Free Energy=         0.269994
 Sum of electronic and zero-point Energies=           -561.566034
 Sum of electronic and thermal Energies=              -561.551301
 Sum of electronic and thermal Enthalpies=            -561.550356
 Sum of electronic and thermal Free Energies=         -561.607667

                     E (Thermal)             CV                S
                      KCal/Mol        Cal/Mol-Kelvin    Cal/Mol-Kelvin
 Total                  204.795             55.094            120.621
 Electronic               0.000              0.000              0.000
 Translational            0.889              2.981             41.522
 Rotational               0.889              2.981             31.317
 Vibrational            203.017             49.133             47.782
 Vibration     1          0.594              1.983              5.669
 Vibration     2          0.597              1.973              4.437
 Vibration     3          0.598              1.969              4.199
 Vibration     4          0.604              1.949              3.458
 Vibration     5          0.606              1.941              3.259
 Vibration     6          0.622              1.889              2.525
 Vibration     7          0.625              1.882              2.457
 Vibration     8          0.635              1.849              2.195
 Vibration     9          0.647              1.810              1.957
 Vibration    10          0.655              1.788              1.842
 Vibration    11          0.664              1.759              1.713
 Vibration    12          0.678              1.717              1.555
 Vibration    13          0.684              1.698              1.493
 Vibration    14          0.690              1.680              1.436
 Vibration    15          0.713              1.616              1.260
 Vibration    16          0.726              1.579              1.175
 Vibration    17          0.766              1.471              0.963
 Vibration    18          0.808              1.364              0.800
 Vibration    19          0.837              1.293              0.708
 Vibration    20          0.892              1.168              0.571
 Vibration    21          0.943              1.062              0.474
 Vibration    22          0.976              0.998              0.423

 Optimization completed.
    -- Stationary point found.
 Normal termination of Gaussian 16 at Mon Dec 14 16:47:46 2020.

 ----------------------------------------------------------------------
 # B3LYP/6-311++G(d,p) empiricaldispersion=gd3bj scf=xqc pop=npa geom=c
 heck
 ----------------------------------------------------------------------

 --------------------------------------
 CID_80193241_JID_3803_Energie_neutraal
 --------------------------------------
 Structure from the checkpoint file:  "JID_3803.chk"
 Charge =  0 Multiplicity = 1

 SCF Done:  E(RB3LYP) =  -562.035689025     A.U. after   14 cycles
 Normal termination of Gaussian 16 at Mon Dec 14 16:52:45 2020.

 ----------------------------------------------------------------------
 # B3LYP/6-311++G(d,p) empiricaldispersion=gd3bj scf=xqc pop=npa geom=c
 heck
 ----------------------------------------------------------------------

 ------------------------------------
 CID_80193241_JID_3803_Energie_kation
 ------------------------------------
 Structure from the checkpoint file:  "JID_3803.chk"
 Charge =  1 Multiplicity = 2

 SCF Done:  E(UB3LYP) =  -561.724266352     A.U. after   22 cycles
 Normal termination of Gaussian 16 at Mon Dec 14 17:03:38 2020.
 Gaussian 16:  ES64L-G16RevA.03 25-Dec-2016

 ----------------------------------------------------------------------
 # B3LYP/6-311++G(d,p) empiricaldispersion=gd3bj scf=xqc pop=npa geom=c
 heck
 ----------------------------------------------------------------------

 -----------------------------------
 CID_80193241_JID_3803_Energie_anion
 -----------------------------------
 Structure from the checkpoint file:  "JID_3803.chk"
 Charge = -1 Multiplicity = 2

                         Standard orientation:
 ---------------------------------------------------------------------
 Center     Atomic      Atomic             Coordinates (Angstroms)
 Number     Number       Type             X           Y           Z
 ---------------------------------------------------------------------
      1          6           0        3.573801    1.046730    0.440027
      2          6           0        3.171840   -0.432780    0.549468
      3          6           0        2.030316   -0.743703   -0.411013
      4          8           0        2.246757   -0.944485   -1.605092
      5          7           0        0.763804   -0.735251    0.097433
      6          6           0        0.377367   -0.355936    1.459172
      7          6           0       -1.155399   -0.210498    1.392941
      8          6           0       -1.524875   -0.093555   -0.110420
      9          6           0       -0.389442   -0.888450   -0.786998
     10          6           0       -2.884175   -0.759085   -0.411141
     11          6           0       -4.096985   -0.125243    0.276654
     12          6           0       -1.541128    1.373844   -0.601131
     13          6           0       -0.219631    2.148235   -0.540454
     14          1           0        3.817288    1.289324   -0.598781
     15          1           0        4.449155    1.261629    1.061636
     16          1           0        2.760950    1.709125    0.759018
     17          1           0        4.011799   -1.063047    0.243629
     18          1           0        2.922745   -0.687402    1.584581
     19          1           0        0.860619    0.582810    1.750188
     20          1           0        0.677208   -1.119057    2.188057
     21          1           0       -1.628570   -1.104491    1.814407
     22          1           0       -1.505350    0.645855    1.977319
     23          1           0       -0.656438   -1.950325   -0.884890
     24          1           0       -0.130768   -0.525301   -1.784242
     25          1           0       -3.043138   -0.758775   -1.498398
     26          1           0       -2.818489   -1.814307   -0.113120
     27          1           0       -4.276073    0.898249   -0.067550
     28          1           0       -5.002598   -0.704667    0.067120
     29          1           0       -3.969510   -0.094398    1.365059
     30          1           0       -1.895429    1.371790   -1.641410
     31          1           0       -2.293724    1.925282   -0.024096
     32          1           0        0.566462    1.668927   -1.131297
     33          1           0       -0.362334    3.159157   -0.937984
     34          1           0        0.145372    2.254896    0.486815
 ---------------------------------------------------------------------

 SCF Done:  E(UB3LYP) =  -562.023482387     A.U. after   31 cycles

 The electronic state is 2-A.
 Alpha  occ. eigenvalues --  -18.98186 -14.23803 -10.16537 -10.10607 -10.09823
 Alpha  occ. eigenvalues --  -10.08779 -10.07980 -10.07219 -10.07125 -10.07070
 Alpha  occ. eigenvalues --  -10.06911 -10.06137 -10.06056  -0.93405  -0.84369
 Alpha  occ. eigenvalues --   -0.73126  -0.68266  -0.65626  -0.65526  -0.62639
 Alpha  occ. eigenvalues --   -0.56789  -0.53250  -0.52783  -0.51841  -0.45572
 Alpha  occ. eigenvalues --   -0.43958  -0.39970  -0.39295  -0.36603  -0.36100
 Alpha  occ. eigenvalues --   -0.34946  -0.34388  -0.33692  -0.32626  -0.31814
 Alpha  occ. eigenvalues --   -0.30381  -0.29647  -0.28823  -0.28719  -0.27745
 Alpha  occ. eigenvalues --   -0.27322  -0.27053  -0.26180  -0.25895  -0.24474
 Alpha  occ. eigenvalues --   -0.23757  -0.22433  -0.21886  -0.21219  -0.15246
 Alpha  occ. eigenvalues --   -0.14147   0.04255
 Alpha virt. eigenvalues --    0.06159   0.07037   0.07723   0.08083   0.08978
 Alpha virt. eigenvalues --    0.09397   0.10025   0.10270   0.10583   0.11249
 Alpha virt. eigenvalues --    0.11793   0.12078   0.12718   0.12820   0.13339

  Beta  occ. eigenvalues --  -18.98181 -14.23803 -10.16535 -10.10575 -10.09814
  Beta  occ. eigenvalues --  -10.08780 -10.07968 -10.07196 -10.07108 -10.07036
  Beta  occ. eigenvalues --  -10.06893 -10.06105 -10.06033  -0.93396  -0.84357
  Beta  occ. eigenvalues --   -0.73105  -0.68240  -0.65586  -0.65487  -0.62605
  Beta  occ. eigenvalues --   -0.56745  -0.53194  -0.52711  -0.51776  -0.45527
  Beta  occ. eigenvalues --   -0.43914  -0.39947  -0.39262  -0.36576  -0.36074
  Beta  occ. eigenvalues --   -0.34912  -0.34357  -0.33667  -0.32601  -0.31784
  Beta  occ. eigenvalues --   -0.30359  -0.29622  -0.28790  -0.28672  -0.27703
  Beta  occ. eigenvalues --   -0.27265  -0.27024  -0.26137  -0.25869  -0.24447
  Beta  occ. eigenvalues --   -0.23729  -0.22404  -0.21852  -0.21190  -0.15237
  Beta  occ. eigenvalues --   -0.14130
  Beta virt. eigenvalues --    0.06503   0.06916   0.07718   0.08426   0.08533
  Beta virt. eigenvalues --    0.09331   0.09835   0.10523   0.10681   0.10921
  Beta virt. eigenvalues --    0.11457   0.12163   0.12267   0.13035   0.13150

 Mulliken charges and spin densities:
               1          2
     1  C    0.438645  -0.932066
     2  C   -0.911815   0.797886
     3  C    0.251648  -0.374584
     4  O   -0.348672   0.013414
     5  N   -0.049666   0.136412
     6  C    0.134960  -0.538082
     7  C    1.943326  -2.540324
     8  C    0.521456   0.622120
     9  C   -0.824167   0.184976
    10  C   -1.279520   1.109197
    11  C    1.228575  -1.873801
    12  C   -0.184067  -0.364499
    13  C    0.270252  -0.881218
    14  H    0.129977   0.022540
    15  H   -0.316824   0.469380
    16  H   -0.043803   0.177798
    17  H    0.011908   0.185301
    18  H   -0.253699   0.402465
    19  H   -0.067479   0.231259
    20  H   -0.389634   0.572949
    21  H   -0.041609   0.240537
    22  H   -0.413269   0.611166
    23  H    0.044128   0.152787
    24  H    0.210557   0.014601
    25  H    0.046256   0.088217
    26  H   -0.174742   0.313138
    27  H   -0.292951   0.435055
    28  H   -0.327482   0.472947
    29  H   -0.248466   0.403887
    30  H   -0.024246   0.173334
    31  H   -0.005304   0.147964
    32  H    0.095187   0.087373
    33  H   -0.104099   0.262611
    34  H   -0.025360   0.175260
 Sum of Mulliken charges =  -1.00000   1.00000

 Dipole moment (field-independent basis, Debye):
    X=              1.5266    Y=             -0.3134    Z=             -3.2694  Tot=              3.6219
 Quadrupole moment (field-independent basis, Debye-Ang):
   XX=           -159.1420   YY=           -120.7385   ZZ=           -130.4057
   XY=              0.5760   XZ=              4.9605   YZ=             -2.0674

 Summary of Natural Population Analysis:

                                       Natural Population
                Natural  -----------------------------------------------
    Atom  No    Charge         Core      Valence    Rydberg      Total
 -----------------------------------------------------------------------
      C    1   -0.28234      0.99966     2.27741    0.00527     3.28234
      C    2   -0.22971      0.99961     2.22211    0.00800     3.22971
      C    3    0.34723      0.99963     1.62990    0.02324     2.65277
      O    4   -0.33476      0.99988     3.32980    0.00507     4.33476
      N    5   -0.25558      0.99964     2.74575    0.01020     3.75558
      C    6   -0.08192      0.99962     2.07150    0.01080     3.08192
      C    7   -0.19482      0.99959     2.18477    0.01046     3.19482
      C    8   -0.04255      0.99955     2.02894    0.01407     3.04255
      C    9   -0.08085      0.99957     2.07070    0.01058     3.08085
      C   10   -0.18292      0.99959     2.17311    0.01022     3.18292
      C   11   -0.28670      0.99966     2.28192    0.00511     3.28670
      C   12   -0.18677      0.99959     2.17766    0.00953     3.18677
      C   13   -0.28816      0.99966     2.28319    0.00531     3.28816
      H   14    0.10125      0.00000     0.39779    0.00096     0.39875
      H   15    0.09886      0.00000     0.40017    0.00097     0.40114
      H   16    0.09892      0.00000     0.39984    0.00124     0.40108
      H   17    0.10643      0.00000     0.39256    0.00101     0.39357
      H   18    0.10282      0.00000     0.39566    0.00152     0.39718
      H   19    0.09719      0.00000     0.40072    0.00208     0.40281
      H   20    0.09827      0.00000     0.40001    0.00171     0.40173
      H   21    0.10335      0.00000     0.39494    0.00171     0.39665
      H   22    0.10839      0.00000     0.38974    0.00187     0.39161
      H   23    0.09566      0.00000     0.40316    0.00118     0.40434
      H   24    0.11075      0.00000     0.38813    0.00112     0.38925
      H   25    0.09485      0.00000     0.40405    0.00110     0.40515
      H   26    0.09645      0.00000     0.40230    0.00125     0.40355
      H   27    0.09737      0.00000     0.40141    0.00122     0.40263
      H   28    0.09954      0.00000     0.39949    0.00096     0.40046
      H   29    0.09960      0.00000     0.39903    0.00137     0.40040
      H   30    0.09459      0.00000     0.40431    0.00110     0.40541
      H   31    0.09953      0.00000     0.39910    0.00136     0.40047
      H   32    0.10010      0.00000     0.39882    0.00108     0.39990
      H   33    0.09876      0.00000     0.40049    0.00075     0.40124
      H   34    0.09716      0.00000     0.40146    0.00139     0.40284
 =======================================================================
   * Total *   -0.00000     12.99523    37.84995    0.15482    51.00000

 Normal termination of Gaussian 16 at Mon Dec 14 17:18:11 2020.
