 Gaussian 16, Revision A.03,

 -----------------------------------------------------------
 # opt freq B3LYP/6-31G(d) empiricaldispersion=gd3bj scf=xqc
 -----------------------------------------------------------

 ------------------------------
 CID_77519595_JID_1501_neutraal
 ------------------------------
 Symbolic Z-matrix:
 Charge =  0 Multiplicity = 1

 SCF Done:  E(RB3LYP) =  -683.814020503     A.U. after   14 cycles
 SCF Done:  E(RB3LYP) =  -683.819056446     A.U. after   13 cycles
 SCF Done:  E(RB3LYP) =  -683.821028429     A.U. after   13 cycles
 SCF Done:  E(RB3LYP) =  -683.822139364     A.U. after   12 cycles
 SCF Done:  E(RB3LYP) =  -683.822953532     A.U. after   12 cycles
 SCF Done:  E(RB3LYP) =  -683.822344768     A.U. after   13 cycles
 SCF Done:  E(RB3LYP) =  -683.823980041     A.U. after   12 cycles
 SCF Done:  E(RB3LYP) =  -683.824837570     A.U. after   12 cycles
 SCF Done:  E(RB3LYP) =  -683.825139980     A.U. after   12 cycles
 SCF Done:  E(RB3LYP) =  -683.825388846     A.U. after   11 cycles
 SCF Done:  E(RB3LYP) =  -683.826836871     A.U. after    8 cycles
 SCF Done:  E(RB3LYP) =  -683.826837121     A.U. after    7 cycles
 SCF Done:  E(RB3LYP) =  -683.826837294     A.U. after    7 cycles
 SCF Done:  E(RB3LYP) =  -683.826837464     A.U. after    7 cycles
 SCF Done:  E(RB3LYP) =  -683.826837576     A.U. after    7 cycles
 SCF Done:  E(RB3LYP) =  -683.826837649     A.U. after    7 cycles
 Optimization completed.
    -- Stationary point found.
 Normal termination of Gaussian 16 at Thu Dec 17 20:05:03 2020.

 --------------------------------------------------------------------
 #N Geom=AllCheck Guess=TCheck SCRF=Check GenChk RB3LYP/6-31G(d) Freq
 --------------------------------------------------------------------

 Structure from the checkpoint file:  "JID_1501.chk"
 ------------------------------
 CID_77519595_JID_1501_neutraal
 ------------------------------
 Charge =  0 Multiplicity = 1

 SCF Done:  E(RB3LYP) =  -683.826837649     A.U. after    1 cycles

  Exact polarizability:  98.464  -7.716  70.406   7.126 -13.478  41.604
 Approx polarizability: 135.925 -29.460 123.786  16.980 -32.134  63.431

                      1                      2                      3
                      A                      A                      A
 Frequencies --     25.8597                44.4088                55.3626
 Red. masses --      7.1872                 7.1866                10.3039
 Frc consts  --      0.0028                 0.0084                 0.0186
 IR Inten    --      2.2558                 2.0908                 0.3545

                      4                      5                      6
                      A                      A                      A
 Frequencies --     82.5222               112.3639               121.4935
 Red. masses --      6.4250                 8.3586                 5.8167
 Frc consts  --      0.0258                 0.0622                 0.0506
 IR Inten    --      6.3470                 4.1440                 0.9287

                      7                      8                      9
                      A                      A                      A
 Frequencies --    147.1363               166.4476               181.5412
 Red. masses --      5.2909                 1.2711                 7.6577
 Frc consts  --      0.0675                 0.0207                 0.1487
 IR Inten    --     16.5066                50.0637                 1.1980

                     10                     11                     12
                      A                      A                      A
 Frequencies --    200.1045               229.5297               231.7545
 Red. masses --      1.1743                 6.4473                 2.3107
 Frc consts  --      0.0277                 0.2001                 0.0731
 IR Inten    --     66.5564                26.2048                 2.0165

                     13                     14                     15
                      A                      A                      A
 Frequencies --    307.1765               317.9334               359.6303
 Red. masses --      2.4980                 5.7437                 1.8316
 Frc consts  --      0.1389                 0.3421                 0.1396
 IR Inten    --     25.1029                25.5522               255.0441

                     16                     17                     18
                      A                      A                      A
 Frequencies --    371.6765               387.2385               432.8190
 Red. masses --      2.3608                 3.5248                 1.1507
 Frc consts  --      0.1922                 0.3114                 0.1270
 IR Inten    --    193.5484                70.1154                43.2381

                     19                     20                     21
                      A                      A                      A
 Frequencies --    488.4640               609.0122               669.9324
 Red. masses --      6.8869                 7.3054                 6.3825
 Frc consts  --      0.9681                 1.5964                 1.6877
 IR Inten    --     20.4104                 1.8116                14.7235

                     22                     23                     24
                      A                      A                      A
 Frequencies --    705.1259               718.5931               752.4006
 Red. masses --      5.1343                 1.1642                 8.4168
 Frc consts  --      1.5041                 0.3542                 2.8073
 IR Inten    --     20.6396                37.1017                19.0027

                     25                     26                     27
                      A                      A                      A
 Frequencies --    839.1464               900.2877               919.7533
 Red. masses --      5.4640                 1.0724                 1.3183
 Frc consts  --      2.2669                 0.5121                 0.6571
 IR Inten    --      5.7227                37.8785                52.7394

                     28                     29                     30
                      A                      A                      A
 Frequencies --    963.6724              1085.8067              1180.8244
 Red. masses --      1.2813                 1.3616                 2.8851
 Frc consts  --      0.7010                 0.9458                 2.3702
 IR Inten    --    187.0401                26.0754               206.8941

                     31                     32                     33
                      A                      A                      A
 Frequencies --   1246.0673              1279.4751              1282.4502
 Red. masses --      6.9782                 2.8931                 1.2852
 Frc consts  --      6.3837                 2.7905                 1.2454
 IR Inten    --    296.3527               141.1264                14.3367

                     34                     35                     36
                      A                      A                      A
 Frequencies --   1319.4823              1407.2162              1430.1923
 Red. masses --      2.1825                 1.4417                 1.3441
 Frc consts  --      2.2388                 1.6821                 1.6198
 IR Inten    --    369.8233                13.0387                63.0828

                     37                     38                     39
                      A                      A                      A
 Frequencies --   1467.8344              1482.6768              1544.5765
 Red. masses --      1.2472                 1.4155                 2.3511
 Frc consts  --      1.5833                 1.8334                 3.3048
 IR Inten    --     34.7458                14.2553                66.7193

                     40                     41                     42
                      A                      A                      A
 Frequencies --   1708.5228              1724.5625              1737.7870
 Red. masses --      4.8019                 1.2147                 3.6131
 Frc consts  --      8.2585                 2.1284                 6.4286
 IR Inten    --    172.5822               117.7884                66.3095

                     43                     44                     45
                      A                      A                      A
 Frequencies --   1787.8363              2982.1388              3103.2718
 Red. masses --      7.9416                 1.0816                 1.0868
 Frc consts  --     14.9560                 5.6671                 6.1667
 IR Inten    --    694.8988               659.0032              1079.1020

                     46                     47                     48
                      A                      A                      A
 Frequencies --   3155.8186              3233.9572              3563.5485
 Red. masses --      1.0730                 1.0921                 1.0646
 Frc consts  --      6.2961                 6.7293                 7.9654
 IR Inten    --   2048.7179                 4.5322                98.9852

                     49                     50                     51
                      A                      A                      A
 Frequencies --   3668.4079              3720.7420              3835.6258
 Red. masses --      1.0647                 1.0463                 1.0803
 Frc consts  --      8.4419                 8.5342                 9.3640
 IR Inten    --     98.3446                10.7023                32.9032

 - Thermochemistry -
 -------------------
 Temperature   298.150 Kelvin.  Pressure   1.00000 Atm.
 Atom     1 has atomic number  6 and mass  12.00000

 Molecular mass:   168.02700 amu.
 Principal axes and moments of inertia in atomic units:
                           1         2         3
     Eigenvalues --  1215.188033133.159863624.71164
           X            0.99997  -0.00484  -0.00535
           Y            0.00490   0.99994   0.01003
           Z            0.00530  -0.01006   0.99994
 This molecule is an asymmetric top.
 Rotational symmetry number  1.
 Warning -- assumption of classical behavior for rotation
           may cause significant error
 Rotational temperatures (Kelvin)      0.07128     0.02764     0.02390
 Rotational constants (GHZ):           1.48515     0.57601     0.49790
 Zero-point vibrational energy     360615.5 (Joules/Mol)
                                   86.18918 (Kcal/Mol)
 Warning -- explicit consideration of  20 degrees of freedom as
           vibrations may cause significant error
 Vibrational temperatures:     37.21    63.89    79.65   118.73   161.67
          (Kelvin)            174.80   211.70   239.48   261.20   287.91
                              330.24   333.44   441.96   457.44   517.43
                              534.76   557.15   622.73   702.79   876.23
                              963.88  1014.52  1033.90  1082.54  1207.34
                             1295.31  1323.32  1386.51  1562.23  1698.94
                             1792.81  1840.88  1845.16  1898.44  2024.67
                             2057.73  2111.89  2133.24  2222.30  2458.18
                             2481.26  2500.29  2572.30  4290.63  4464.92
                             4540.52  4652.94  5127.15  5278.02  5353.32
                             5518.61

 Zero-point correction=                           0.137351 (Hartree/Particle)
 Thermal correction to Energy=                    0.151622
 Thermal correction to Enthalpy=                  0.152566
 Thermal correction to Gibbs Free Energy=         0.094840
 Sum of electronic and zero-point Energies=           -683.689486
 Sum of electronic and thermal Energies=              -683.675216
 Sum of electronic and thermal Enthalpies=            -683.674271
 Sum of electronic and thermal Free Energies=         -683.731997

                     E (Thermal)             CV                S
                      KCal/Mol        Cal/Mol-Kelvin    Cal/Mol-Kelvin
 Total                   95.144             47.294            121.495
 Electronic               0.000              0.000              0.000
 Translational            0.889              2.981             41.265
 Rotational               0.889              2.981             31.001
 Vibrational             93.367             41.332             49.228
 Vibration     1          0.593              1.985              6.124
 Vibration     2          0.595              1.980              5.052
 Vibration     3          0.596              1.975              4.616
 Vibration     4          0.600              1.961              3.830
 Vibration     5          0.607              1.939              3.228
 Vibration     6          0.609              1.931              3.076
 Vibration     7          0.617              1.906              2.709
 Vibration     8          0.624              1.884              2.475
 Vibration     9          0.630              1.865              2.313
 Vibration    10          0.638              1.840              2.132
 Vibration    11          0.652              1.796              1.883
 Vibration    12          0.653              1.792              1.865
 Vibration    13          0.697              1.660              1.377
 Vibration    14          0.704              1.639              1.321
 Vibration    15          0.734              1.555              1.124
 Vibration    16          0.743              1.530              1.073
 Vibration    17          0.756              1.497              1.011
 Vibration    18          0.794              1.399              0.849
 Vibration    19          0.844              1.276              0.688
 Vibration    20          0.968              1.013              0.434

                           ! Non-Optimized Parameters !
 Normal termination of Gaussian 16 at Thu Dec 17 20:08:05 2020.

 ----------------------------------------------------------------------
 # B3LYP/6-311++G(d,p) empiricaldispersion=gd3bj scf=xqc pop=npa geom=c
 heck
 ----------------------------------------------------------------------

 --------------------------------------
 CID_77519595_JID_1501_Energie_neutraal
 --------------------------------------
 Structure from the checkpoint file:  "JID_1501.chk"
 Charge =  0 Multiplicity = 1

 SCF Done:  E(RB3LYP) =  -684.090791023     A.U. after   14 cycles
 Normal termination of Gaussian 16 at Thu Dec 17 20:09:02 2020.

 ----------------------------------------------------------------------
 # B3LYP/6-311++G(d,p) empiricaldispersion=gd3bj scf=xqc pop=npa geom=c
 heck
 ----------------------------------------------------------------------

 ------------------------------------
 CID_77519595_JID_1501_Energie_kation
 ------------------------------------
 Structure from the checkpoint file:  "JID_1501.chk"
 Charge =  1 Multiplicity = 2

 SCF Done:  E(UB3LYP) =  -683.763951440     A.U. after   20 cycles
 Normal termination of Gaussian 16 at Thu Dec 17 20:10:52 2020.
 Gaussian 16:  ES64L-G16RevA.03 25-Dec-2016

 ----------------------------------------------------------------------
 # B3LYP/6-311++G(d,p) empiricaldispersion=gd3bj scf=xqc pop=npa geom=c
 heck
 ----------------------------------------------------------------------

 -----------------------------------
 CID_77519595_JID_1501_Energie_anion
 -----------------------------------
 Structure from the checkpoint file:  "JID_1501.chk"
 Charge = -1 Multiplicity = 2

                         Standard orientation:
 ---------------------------------------------------------------------
 Center     Atomic      Atomic             Coordinates (Angstroms)
 Number     Number       Type             X           Y           Z
 ---------------------------------------------------------------------
      1          6           0       -2.634598    0.059589   -0.480937
      2          6           0       -1.657196   -0.829341   -0.190718
      3          6           0       -0.228831   -0.530157   -0.248025
      4          8           0        0.592568   -1.352927    0.181149
      5          8           0        0.098646    0.636315   -0.794548
      6          8           0       -1.976820   -2.088967    0.246611
      7          8           0       -2.463155    1.340264   -0.880194
      8          6           0        3.473516    0.330993   -0.071146
      9          8           0        2.681037    1.108745   -0.590370
     10          8           0        3.203270   -0.851984    0.425589
     11          8           0       -1.119262    1.671374    1.864194
     12          1           0       -3.678158   -0.215829   -0.371630
     13          1           0        1.090438    0.815794   -0.707388
     14          1           0       -1.126379   -2.511027    0.469980
     15          1           0       -1.504112    1.484881   -1.027729
     16          1           0        4.538488    0.577265    0.023094
     17          1           0        2.222279   -1.055993    0.329466
     18          1           0       -1.623604    1.044137    2.403129
     19          1           0       -1.766568    1.971712    1.206591
 ---------------------------------------------------------------------

 SCF Done:  E(UB3LYP) =  -684.092954563     A.U. after   29 cycles

 The electronic state is 2-A.
 Alpha  occ. eigenvalues --  -19.03858 -19.00086 -18.99934 -18.99874 -18.99317
 Alpha  occ. eigenvalues --  -18.99064 -18.94815 -10.17753 -10.11243 -10.05696
 Alpha  occ. eigenvalues --  -10.05405  -0.98694  -0.94622  -0.91075  -0.90401
 Alpha  occ. eigenvalues --   -0.89993  -0.87741  -0.84970  -0.60389  -0.54115
 Alpha  occ. eigenvalues --   -0.50812  -0.44987  -0.41967  -0.39544  -0.39084
 Alpha  occ. eigenvalues --   -0.38203  -0.36640  -0.33005  -0.32186  -0.31115
 Alpha  occ. eigenvalues --   -0.30367  -0.29083  -0.26822  -0.25741  -0.24409
 Alpha  occ. eigenvalues --   -0.23868  -0.21887  -0.20973  -0.20345  -0.18091
 Alpha  occ. eigenvalues --   -0.17340  -0.16920  -0.14257  -0.06607   0.06237
 Alpha virt. eigenvalues --    0.09036   0.09385   0.09828   0.12004   0.12037
 Alpha virt. eigenvalues --    0.13108   0.14798   0.15111   0.16248   0.16562
 Alpha virt. eigenvalues --    0.18110   0.18886   0.20076   0.20204   0.20545

  Beta  occ. eigenvalues --  -19.03830 -19.00009 -18.99832 -18.99713 -18.99339
  Beta  occ. eigenvalues --  -18.99050 -18.94537 -10.17524 -10.10698 -10.05772
  Beta  occ. eigenvalues --  -10.04935  -0.98509  -0.94181  -0.90686  -0.90337
  Beta  occ. eigenvalues --   -0.89915  -0.87704  -0.84538  -0.59868  -0.53709
  Beta  occ. eigenvalues --   -0.50010  -0.44768  -0.41666  -0.39516  -0.38922
  Beta  occ. eigenvalues --   -0.38002  -0.36425  -0.32259  -0.31806  -0.30731
  Beta  occ. eigenvalues --   -0.29044  -0.28753  -0.26440  -0.25602  -0.23808
  Beta  occ. eigenvalues --   -0.23444  -0.21543  -0.20566  -0.20120  -0.17956
  Beta  occ. eigenvalues --   -0.17166  -0.15793  -0.14008  -0.05151
  Beta virt. eigenvalues --    0.08976   0.09566   0.11079   0.11914   0.11942
  Beta virt. eigenvalues --    0.12961   0.13880   0.14722   0.15064   0.16257
  Beta virt. eigenvalues --    0.16757   0.18029   0.18995   0.20154   0.20558

 Mulliken charges and spin densities:
               1          2
     1  C   -0.503508   0.457740
     2  C    0.400291  -0.253454
     3  C   -0.199501   0.432872
     4  O   -0.551532   0.099095
     5  O   -0.514594   0.020413
     6  O   -0.309763   0.008015
     7  O   -0.277399   0.013503
     8  C    0.061531   0.152040
     9  O   -0.441712   0.026823
    10  O   -0.328468   0.007240
    11  O   -0.399751  -0.035533
    12  H    0.108528  -0.003796
    13  H    0.511535  -0.001479
    14  H    0.248942   0.013713
    15  H    0.286318   0.001917
    16  H    0.098471  -0.009029
    17  H    0.425924  -0.001597
    18  H    0.135815   0.095186
    19  H    0.248873  -0.023669
 Sum of Mulliken charges =  -1.00000   1.00000

 Dipole moment (field-independent basis, Debye):
    X=              2.1375    Y=              0.1084    Z=              0.0582  Tot=              2.1410
 Quadrupole moment (field-independent basis, Debye-Ang):
   XX=            -92.2175   YY=            -82.4719   ZZ=            -75.5867
   XY=             -0.6332   XZ=             -2.6362   YZ=             -1.0464

 Summary of Natural Population Analysis:

                                       Natural Population
                Natural  -----------------------------------------------
    Atom  No    Charge         Core      Valence    Rydberg      Total
 -----------------------------------------------------------------------
      C    1    0.15469      0.99947     1.82788    0.01796     2.84531
      C    2    0.02189      0.99938     1.96131    0.01741     2.97811
      C    3    0.45329      0.99965     1.52211    0.02494     2.54671
      O    4   -0.35682      0.99984     3.35067    0.00631     4.35682
      O    5   -0.36745      0.99984     3.36181    0.00580     4.36745
      O    6   -0.36464      0.99988     3.35742    0.00733     4.36464
      O    7   -0.35214      0.99989     3.34398    0.00827     4.35214
      C    8    0.37180      0.99983     1.60262    0.02575     2.62820
      O    9   -0.32756      0.99986     3.32055    0.00715     4.32756
      O   10   -0.34734      0.99987     3.34104    0.00643     4.34734
      O   11   -0.46459      0.99991     3.45811    0.00656     4.46459
      H   12    0.07301      0.00000     0.42573    0.00125     0.42699
      H   13    0.25566      0.00000     0.24141    0.00293     0.24434
      H   14    0.24140      0.00000     0.25555    0.00306     0.25860
      H   15    0.24795      0.00000     0.24880    0.00325     0.25205
      H   16    0.04020      0.00000     0.45785    0.00195     0.45980
      H   17    0.25944      0.00000     0.23741    0.00315     0.24056
      H   18    0.22726      0.00000     0.26930    0.00343     0.27274
      H   19    0.23395      0.00000     0.26244    0.00361     0.26605
 =======================================================================
   * Total *    0.00000     10.99743    32.84602    0.15655    44.00000

 Normal termination of Gaussian 16 at Thu Dec 17 20:13:29 2020.
