 Gaussian 16, Revision A.03,

 -----------------------------------------------------------
 # opt freq B3LYP/6-31G(d) empiricaldispersion=gd3bj scf=xqc
 -----------------------------------------------------------

 -------------------------------
 CID_81088416_JID_10379_neutraal
 -------------------------------
 Symbolic Z-matrix:
 Charge =  0 Multiplicity = 1

 SCF Done:  E(RB3LYP) =  -934.858510040     A.U. after   15 cycles
 SCF Done:  E(RB3LYP) =  -934.866475573     A.U. after   14 cycles
 SCF Done:  E(RB3LYP) =  -934.866559298     A.U. after   14 cycles
 SCF Done:  E(RB3LYP) =  -934.872009683     A.U. after   13 cycles
 SCF Done:  E(RB3LYP) =  -934.874863188     A.U. after   13 cycles
 SCF Done:  E(RB3LYP) =  -934.878809082     A.U. after   13 cycles
 SCF Done:  E(RB3LYP) =  -934.882384600     A.U. after   13 cycles
 SCF Done:  E(RB3LYP) =  -934.885647706     A.U. after   13 cycles
 SCF Done:  E(RB3LYP) =  -934.889108683     A.U. after   15 cycles
 SCF Done:  E(RB3LYP) =  -934.890227144     A.U. after   13 cycles
 SCF Done:  E(RB3LYP) =  -934.892016066     A.U. after    8 cycles
 SCF Done:  E(RB3LYP) =  -934.892016502     A.U. after    9 cycles
 SCF Done:  E(RB3LYP) =  -934.892016629     A.U. after    8 cycles
 SCF Done:  E(RB3LYP) =  -934.892016754     A.U. after    8 cycles
 SCF Done:  E(RB3LYP) =  -934.892016764     A.U. after    7 cycles
 Optimization completed.
    -- Stationary point found.
 Normal termination of Gaussian 16 at Sat Dec 12 16:10:07 2020.

 --------------------------------------------------------------------
 #N Geom=AllCheck Guess=TCheck SCRF=Check GenChk RB3LYP/6-31G(d) Freq
 --------------------------------------------------------------------

 Structure from the checkpoint file:  "JID_10379.chk"
 -------------------------------
 CID_81088416_JID_10379_neutraal
 -------------------------------
 Charge =  0 Multiplicity = 1

 SCF Done:  E(RB3LYP) =  -934.892016764     A.U. after    1 cycles

  Exact polarizability: 224.925 -22.025 140.955  -7.775  -3.210 148.617
 Approx polarizability: 297.746 -49.427 212.405 -27.035  -7.263 246.751

                      1                      2                      3
                      A                      A                      A
 Frequencies --     17.6173                23.4435                28.7578
 Red. masses --      4.5061                 4.5418                 4.3976
 Frc consts  --      0.0008                 0.0015                 0.0021
 IR Inten    --      0.1904                 0.9186                 1.1755

                      4                      5                      6
                      A                      A                      A
 Frequencies --     35.8669                58.0295                72.6116
 Red. masses --      4.8653                 4.5671                 5.0783
 Frc consts  --      0.0037                 0.0091                 0.0158
 IR Inten    --      1.1823                 1.1393                 0.7300

                      7                      8                      9
                      A                      A                      A
 Frequencies --     77.2697                82.2909                87.2309
 Red. masses --      3.8062                 3.7914                 4.8634
 Frc consts  --      0.0134                 0.0151                 0.0218
 IR Inten    --      2.1054                 1.1577                 1.1345

                     10                     11                     12
                      A                      A                      A
 Frequencies --     98.2768               152.7905               196.1766
 Red. masses --      2.4318                 3.0257                 4.9954
 Frc consts  --      0.0138                 0.0416                 0.1133
 IR Inten    --      2.3576                 0.2314                 0.6094

                     13                     14                     15
                      A                      A                      A
 Frequencies --    229.0213               234.3226               265.3165
 Red. masses --      1.4688                 3.1905                 2.3759
 Frc consts  --      0.0454                 0.1032                 0.0985
 IR Inten    --      2.3456                 0.5526                 7.6775

                     16                     17                     18
                      A                      A                      A
 Frequencies --    270.3754               292.3152               297.2085
 Red. masses --      2.8618                 1.7428                 4.5543
 Frc consts  --      0.1233                 0.0877                 0.2370
 IR Inten    --      1.3922                35.7160                 4.9438

                     19                     20                     21
                      A                      A                      A
 Frequencies --    318.8901               342.0266               368.2785
 Red. masses --      1.9258                 5.8784                 4.5659
 Frc consts  --      0.1154                 0.4052                 0.3649
 IR Inten    --     25.8638                 6.3062                 0.9284

                     22                     23                     24
                      A                      A                      A
 Frequencies --    426.0471               431.7696               438.7573
 Red. masses --      3.0571                 3.4484                 4.0641
 Frc consts  --      0.3269                 0.3788                 0.4610
 IR Inten    --     15.9434                 1.0217                 1.5183

                     25                     26                     27
                      A                      A                      A
 Frequencies --    453.2362               466.8823               502.5070
 Red. masses --      4.5788                 6.3496                 2.9965
 Frc consts  --      0.5542                 0.8155                 0.4458
 IR Inten    --      0.6057                23.1703                52.7119

                     28                     29                     30
                      A                      A                      A
 Frequencies --    522.8394               552.6312               568.0409
 Red. masses --      1.6062                 2.5404                 1.6944
 Frc consts  --      0.2587                 0.4571                 0.3221
 IR Inten    --     32.2804                 3.1700               115.0062

                     31                     32                     33
                      A                      A                      A
 Frequencies --    633.1109               666.5442               670.9580
 Red. masses --      3.6007                 6.1103                 3.6816
 Frc consts  --      0.8504                 1.5994                 0.9765
 IR Inten    --     19.5032                 3.8263                13.3092

                     34                     35                     36
                      A                      A                      A
 Frequencies --    713.3651               728.7976               753.1541
 Red. masses --      2.5481                 3.5991                 2.9761
 Frc consts  --      0.7640                 1.1263                 0.9946
 IR Inten    --     10.0254                24.1242                16.2821

                     37                     38                     39
                      A                      A                      A
 Frequencies --    764.8338               779.0756               807.3469
 Red. masses --      3.2091                 4.3883                 1.2241
 Frc consts  --      1.1060                 1.5693                 0.4701
 IR Inten    --      1.3286                15.1472                 5.7568

                     40                     41                     42
                      A                      A                      A
 Frequencies --    845.4949               848.6133               855.3396
 Red. masses --      1.5238                 1.4544                 1.6456
 Frc consts  --      0.6418                 0.6171                 0.7093
 IR Inten    --      2.1528                 5.2128                 6.0219

                     43                     44                     45
                      A                      A                      A
 Frequencies --    913.9906               924.2401               925.7244
 Red. masses --      3.3040                 2.9578                 3.7735
 Frc consts  --      1.6262                 1.4886                 1.9053
 IR Inten    --     19.4106                 9.8265                12.4976

                     46                     47                     48
                      A                      A                      A
 Frequencies --    949.0361               965.7098               970.5478
 Red. masses --      1.6532                 2.8770                 1.4188
 Frc consts  --      0.8773                 1.5808                 0.7874
 IR Inten    --    223.9320                21.3714                 3.2927

                     49                     50                     51
                      A                      A                      A
 Frequencies --    973.2127               995.3647              1030.8540
 Red. masses --      1.3939                 2.9030                 2.0390
 Frc consts  --      0.7779                 1.6946                 1.2766
 IR Inten    --      1.1656                17.7225                10.7247

                     52                     53                     54
                      A                      A                      A
 Frequencies --   1043.9661              1066.7920              1070.0669
 Red. masses --      2.4897                 1.3008                 1.9812
 Frc consts  --      1.5987                 0.8722                 1.3366
 IR Inten    --      7.3791                 8.1668                14.8780

                     55                     56                     57
                      A                      A                      A
 Frequencies --   1090.1139              1103.8099              1131.9734
 Red. masses --      1.3240                 1.5549                 1.3066
 Frc consts  --      0.9270                 1.1162                 0.9864
 IR Inten    --      3.6900                61.6924                 5.5077

                     58                     59                     60
                      A                      A                      A
 Frequencies --   1153.5378              1159.5814              1172.7256
 Red. masses --      1.0825                 2.1149                 3.8520
 Frc consts  --      0.8487                 1.6755                 3.1212
 IR Inten    --      1.5821                19.7495               118.1088

                     61                     62                     63
                      A                      A                      A
 Frequencies --   1191.5715              1200.7525              1216.8417
 Red. masses --      1.2752                 1.1187                 1.4054
 Frc consts  --      1.0668                 0.9503                 1.2261
 IR Inten    --      2.7025                 0.4093                 2.9263

                     64                     65                     66
                      A                      A                      A
 Frequencies --   1225.7777              1233.7236              1244.6420
 Red. masses --      1.7077                 2.3652                 2.2583
 Frc consts  --      1.5118                 2.1211                 2.0612
 IR Inten    --     44.4260                 2.5131                25.2905

                     67                     68                     69
                      A                      A                      A
 Frequencies --   1250.6030              1270.0460              1282.8254
 Red. masses --      1.3609                 1.8728                 2.3182
 Frc consts  --      1.2541                 1.7798                 2.2477
 IR Inten    --     17.0033                84.9345                 2.0912

                     70                     71                     72
                      A                      A                      A
 Frequencies --   1313.5794              1327.8326              1335.4999
 Red. masses --      1.7305                 1.7866                 3.3955
 Frc consts  --      1.7593                 1.8560                 3.5681
 IR Inten    --    189.1408                 4.0536                17.9200

                     73                     74                     75
                      A                      A                      A
 Frequencies --   1372.0548              1386.0595              1411.5534
 Red. masses --      1.7196                 1.6328                 2.7205
 Frc consts  --      1.9074                 1.8482                 3.1937
 IR Inten    --    161.5220                79.9845               183.9548

                     76                     77                     78
                      A                      A                      A
 Frequencies --   1414.7303              1437.0028              1455.6571
 Red. masses --      1.4375                 2.2938                 1.5455
 Frc consts  --      1.6951                 2.7907                 1.9294
 IR Inten    --      6.3134                13.5288                28.6404

                     79                     80                     81
                      A                      A                      A
 Frequencies --   1458.1468              1484.4659              1497.4379
 Red. masses --      1.7736                 2.2525                 1.0900
 Frc consts  --      2.2218                 2.9246                 1.4401
 IR Inten    --     13.7450                19.5309                 3.2226

                     82                     83                     84
                      A                      A                      A
 Frequencies --   1502.5927              1514.7208              1531.5215
 Red. masses --      1.1628                 1.0477                 1.0626
 Frc consts  --      1.5469                 1.4163                 1.4685
 IR Inten    --      3.0864                 4.0902                10.6899

                     85                     86                     87
                      A                      A                      A
 Frequencies --   1533.0648              1552.0885              1565.4598
 Red. masses --      1.3025                 1.0862                 2.8508
 Frc consts  --      1.8036                 1.5417                 4.1163
 IR Inten    --      3.3551                 1.7180               172.5794

                     88                     89                     90
                      A                      A                      A
 Frequencies --   1632.0048              1668.6156              1708.5992
 Red. masses --      6.7470                 6.0920                 1.0895
 Frc consts  --     10.5877                 9.9937                 1.8740
 IR Inten    --      2.6672                 5.7924                38.4457

                     91                     92                     93
                      A                      A                      A
 Frequencies --   1771.4812              1780.2345              2990.7060
 Red. masses --      7.8532                 8.0910                 1.0450
 Frc consts  --     14.5201                15.1080                 5.5069
 IR Inten    --    611.5817               204.9179                34.0703

                     94                     95                     96
                      A                      A                      A
 Frequencies --   3001.3562              3040.7128              3044.7640
 Red. masses --      1.0499                 1.1041                 1.1046
 Frc consts  --      5.5722                 6.0145                 6.0335
 IR Inten    --     84.4178                84.1968                 9.9842

                     97                     98                     99
                      A                      A                      A
 Frequencies --   3135.2009              3135.9028              3164.5905
 Red. masses --      1.0862                 1.0966                 1.0544
 Frc consts  --      6.2903                 6.3539                 6.2214
 IR Inten    --     17.0104                33.5518                13.9530

                    100                    101                    102
                      A                      A                      A
 Frequencies --   3168.8608              3201.1349              3203.4963
 Red. masses --      1.0621                 1.0882                 1.0896
 Frc consts  --      6.2838                 6.5701                 6.5881
 IR Inten    --     12.4478                10.4574                 4.3954

                    103                    104                    105
                      A                      A                      A
 Frequencies --   3205.1726              3216.0858              3220.6212
 Red. masses --      1.0884                 1.0952                 1.0955
 Frc consts  --      6.5878                 6.6742                 6.6949
 IR Inten    --      7.7113                 7.7098                 2.7284

                    106                    107                    108
                      A                      A                      A
 Frequencies --   3248.8737              3270.5903              3454.4652
 Red. masses --      1.1156                 1.1102                 1.0505
 Frc consts  --      6.9380                 6.9970                 7.3861
 IR Inten    --      7.8949                 5.2664                 3.9894

                    109                    110                    111
                      A                      A                      A
 Frequencies --   3540.2397              3557.7181              3567.5027
 Red. masses --      1.0907                 1.0744                 1.0751
 Frc consts  --      8.0539                 8.0123                 8.0615
 IR Inten    --      2.0228                25.7940                23.4234

 - Thermochemistry -
 -------------------
 Temperature   298.150 Kelvin.  Pressure   1.00000 Atm.
 Atom     1 has atomic number  6 and mass  12.00000

 Molecular mass:   277.14264 amu.
 Principal axes and moments of inertia in atomic units:
                           1         2         3
     Eigenvalues --  2554.25584********************
           X            0.99981   0.01799   0.00797
           Y           -0.01744   0.99772  -0.06516
           Z           -0.00912   0.06500   0.99784
 This molecule is an asymmetric top.
 Rotational symmetry number  1.
 Warning -- assumption of classical behavior for rotation
           may cause significant error
 Rotational temperatures (Kelvin)      0.03391     0.00745     0.00708
 Rotational constants (GHZ):           0.70656     0.15514     0.14757
 Zero-point vibrational energy     853881.8 (Joules/Mol)
                                  204.08265 (Kcal/Mol)
 Warning -- explicit consideration of  30 degrees of freedom as
           vibrations may cause significant error
 Vibrational temperatures:     25.35    33.73    41.38    51.60    83.49
          (Kelvin)            104.47   111.17   118.40   125.51   141.40
                              219.83   282.25   329.51   337.14   381.73
                              389.01   420.58   427.62   458.81   492.10
                              529.87   612.99   621.22   631.27   652.11
                              671.74   723.00   752.25   795.11   817.28
                              910.91   959.01   965.36  1026.37  1048.58
                             1083.62  1100.43  1120.92  1161.59  1216.48
                             1220.97  1230.64  1315.03  1329.78  1331.91
                             1365.45  1389.44  1396.40  1400.24  1432.11
                             1483.17  1502.03  1534.88  1539.59  1568.43
                             1588.14  1628.66  1659.68  1668.38  1687.29
                             1714.41  1727.61  1750.76  1763.62  1775.05
                             1790.76  1799.34  1827.31  1845.70  1889.95
                             1910.45  1921.49  1974.08  1994.23  2030.91
                             2035.48  2067.53  2094.37  2097.95  2135.82
                             2154.48  2161.90  2179.35  2203.52  2205.74
                             2233.11  2252.35  2348.09  2400.77  2458.29
                             2548.77  2561.36  4302.96  4318.28  4374.91
                             4380.74  4510.85  4511.86  4553.14  4559.28
                             4605.72  4609.12  4611.53  4627.23  4633.76
                             4674.40  4705.65  4970.20  5093.62  5118.76
                             5132.84

 Zero-point correction=                           0.325226 (Hartree/Particle)
 Thermal correction to Energy=                    0.345521
 Thermal correction to Enthalpy=                  0.346465
 Thermal correction to Gibbs Free Energy=         0.272773
 Sum of electronic and zero-point Energies=           -934.566790
 Sum of electronic and thermal Energies=              -934.546496
 Sum of electronic and thermal Enthalpies=            -934.545552
 Sum of electronic and thermal Free Energies=         -934.619244

                     E (Thermal)             CV                S
                      KCal/Mol        Cal/Mol-Kelvin    Cal/Mol-Kelvin
 Total                  216.818             74.729            155.098
 Electronic               0.000              0.000              0.000
 Translational            0.889              2.981             42.757
 Rotational               0.889              2.981             34.251
 Vibrational            215.040             68.767             78.090
 Vibration     1          0.593              1.986              6.886
 Vibration     2          0.593              1.985              6.319
 Vibration     3          0.593              1.984              5.913
 Vibration     4          0.594              1.982              5.475
 Vibration     5          0.596              1.974              4.523
 Vibration     6          0.599              1.967              4.081
 Vibration     7          0.599              1.964              3.959
 Vibration     8          0.600              1.961              3.835
 Vibration     9          0.601              1.958              3.721
 Vibration    10          0.604              1.950              3.488
 Vibration    11          0.619              1.900              2.637
 Vibration    12          0.636              1.845              2.169
 Vibration    13          0.652              1.797              1.887
 Vibration    14          0.654              1.788              1.846
 Vibration    15          0.671              1.737              1.627
 Vibration    16          0.674              1.728              1.594
 Vibration    17          0.688              1.688              1.461
 Vibration    18          0.691              1.679              1.433
 Vibration    19          0.705              1.637              1.316
 Vibration    20          0.721              1.591              1.203
 Vibration    21          0.741              1.537              1.087
 Vibration    22          0.788              1.414              0.872
 Vibration    23          0.793              1.401              0.853
 Vibration    24          0.799              1.386              0.831
 Vibration    25          0.812              1.354              0.786
 Vibration    26          0.824              1.324              0.746
 Vibration    27          0.858              1.244              0.652
 Vibration    28          0.878              1.199              0.603
 Vibration    29          0.908              1.134              0.539
 Vibration    30          0.924              1.100              0.508

                           ! Non-Optimized Parameters !
 Normal termination of Gaussian 16 at Sat Dec 12 16:32:10 2020.

 ----------------------------------------------------------------------
 # B3LYP/6-311++G(d,p) empiricaldispersion=gd3bj scf=xqc pop=npa geom=c
 heck
 ----------------------------------------------------------------------

 ---------------------------------------
 CID_81088416_JID_10379_Energie_neutraal
 ---------------------------------------
 Structure from the checkpoint file:  "JID_10379.chk"
 Charge =  0 Multiplicity = 1

 SCF Done:  E(RB3LYP) =  -935.170140627     A.U. after   15 cycles
 Normal termination of Gaussian 16 at Sat Dec 12 16:42:11 2020.

 ----------------------------------------------------------------------
 # B3LYP/6-311++G(d,p) empiricaldispersion=gd3bj scf=xqc pop=npa geom=c
 heck
 ----------------------------------------------------------------------

 -------------------------------------
 CID_81088416_JID_10379_Energie_kation
 -------------------------------------
 Structure from the checkpoint file:  "JID_10379.chk"
 Charge =  1 Multiplicity = 2

 SCF Done:  E(UB3LYP) =  -934.863962275     A.U. after   28 cycles
 Normal termination of Gaussian 16 at Sat Dec 12 17:08:38 2020.
 Gaussian 16:  ES64L-G16RevA.03 25-Dec-2016

 ----------------------------------------------------------------------
 # B3LYP/6-311++G(d,p) empiricaldispersion=gd3bj scf=xqc pop=npa geom=c
 heck
 ----------------------------------------------------------------------

 ------------------------------------
 CID_81088416_JID_10379_Energie_anion
 ------------------------------------
 Structure from the checkpoint file:  "JID_10379.chk"
 Charge = -1 Multiplicity = 2

                         Standard orientation:
 ---------------------------------------------------------------------
 Center     Atomic      Atomic             Coordinates (Angstroms)
 Number     Number       Type             X           Y           Z
 ---------------------------------------------------------------------
      1          6           0        3.187322    2.806876   -1.049584
      2          8           0        2.828693    1.562106   -0.491524
      3          6           0        3.790025    1.075433    0.423747
      4          6           0        3.320069   -0.284847    0.950477
      5          6           0        3.114755   -1.213767   -0.257534
      6          8           0        4.078157   -1.777075   -0.763261
      7          7           0        1.854128   -1.377504   -0.782834
      8          6           0        0.648689   -0.727181   -0.407214
      9          6           0        0.019825    0.142236   -1.302654
     10          6           0       -1.181587    0.753791   -0.956349
     11          6           0       -1.766143    0.511377    0.289912
     12          6           0       -1.124401   -0.342776    1.193287
     13          6           0        0.063788   -0.976249    0.839241
     14          7           0       -2.985417    1.164066    0.648515
     15          6           0       -4.277465    0.660151    0.698716
     16          8           0       -5.122553    1.264866    1.347473
     17          6           0       -4.680978   -0.549903   -0.087944
     18          6           0       -4.287007   -0.767743   -1.540545
     19          6           0       -3.825791   -1.736941   -0.498553
     20          7           0        4.342340   -0.794459    1.861704
     21          1           0        2.383610    3.098364   -1.730663
     22          1           0        4.131442    2.741617   -1.612945
     23          1           0        3.298665    3.581592   -0.274600
     24          1           0        4.769465    0.952079   -0.066900
     25          1           0        3.918010    1.760252    1.274886
     26          1           0        2.391340   -0.131008    1.501795
     27          1           0        1.867806   -1.847073   -1.681895
     28          1           0        0.493461    0.354052   -2.255653
     29          1           0       -1.670836    1.438857   -1.641331
     30          1           0       -1.584203   -0.533723    2.158007
     31          1           0        0.538134   -1.676809    1.519158
     32          1           0       -2.903238    1.981836    1.243719
     33          1           0       -5.712404   -0.783825    0.152189
     34          1           0       -5.076744   -1.059178   -2.226450
     35          1           0       -3.549667   -0.094866   -1.964149
     36          1           0       -2.775663   -1.749165   -0.238614
     37          1           0       -4.312085   -2.706674   -0.442801
     38          1           0        3.957398   -1.568684    2.400594
     39          1           0        5.077181   -1.204283    1.282438
 ---------------------------------------------------------------------

 SCF Done:  E(UB3LYP) =  -935.168973429     A.U. after   33 cycles
 SCF Done:  E(UB3LYP) =  -935.168973429     a.u. after    1 cycles

 The electronic state is 2-A.
 Alpha  occ. eigenvalues --  -19.02846 -18.98362 -18.98289 -14.23150 -14.22388
 Alpha  occ. eigenvalues --  -14.20474 -10.17170 -10.16108 -10.11947 -10.11567
 Alpha  occ. eigenvalues --  -10.10737 -10.09524 -10.08996 -10.08677 -10.07919
 Alpha  occ. eigenvalues --  -10.07502 -10.06104 -10.05907 -10.05556 -10.05388
 Alpha  occ. eigenvalues --   -0.94505  -0.93525  -0.93456  -0.82147  -0.81289
 Alpha  occ. eigenvalues --   -0.79834  -0.77077  -0.72335  -0.65469  -0.63526
 Alpha  occ. eigenvalues --   -0.62252  -0.57849  -0.56326  -0.53719  -0.51707
 Alpha  occ. eigenvalues --   -0.51292  -0.50054  -0.46769  -0.45777  -0.42984
 Alpha  occ. eigenvalues --   -0.42411  -0.41375  -0.40201  -0.39705  -0.38445
 Alpha  occ. eigenvalues --   -0.37841  -0.36926  -0.35845  -0.34585  -0.33606
 Alpha  occ. eigenvalues --   -0.33027  -0.31988  -0.31426  -0.31162  -0.30859
 Alpha  occ. eigenvalues --   -0.30197  -0.29518  -0.28325  -0.27889  -0.26836
 Alpha  occ. eigenvalues --   -0.26032  -0.24927  -0.24065  -0.22873  -0.22559
 Alpha  occ. eigenvalues --   -0.20363  -0.17686  -0.17508  -0.16667  -0.15902
 Alpha  occ. eigenvalues --   -0.15068  -0.14869  -0.14559  -0.12448   0.04467
 Alpha virt. eigenvalues --    0.06632   0.06925   0.07546   0.08460   0.08680
 Alpha virt. eigenvalues --    0.09076   0.09243   0.09537   0.09949   0.10445
 Alpha virt. eigenvalues --    0.10616   0.10886   0.11180   0.11622   0.12133

  Beta  occ. eigenvalues --  -19.02843 -18.98286 -18.98284 -14.23207 -14.22414
  Beta  occ. eigenvalues --  -14.20470 -10.17147 -10.16014 -10.11934 -10.11533
  Beta  occ. eigenvalues --  -10.10743 -10.09522 -10.08996 -10.08679 -10.07551
  Beta  occ. eigenvalues --  -10.07136 -10.06146 -10.05938 -10.05487 -10.05327
  Beta  occ. eigenvalues --   -0.94475  -0.93506  -0.93328  -0.81932  -0.81091
  Beta  occ. eigenvalues --   -0.79822  -0.77056  -0.72128  -0.65426  -0.63341
  Beta  occ. eigenvalues --   -0.61796  -0.57774  -0.56281  -0.53598  -0.51700
  Beta  occ. eigenvalues --   -0.50884  -0.49982  -0.46626  -0.45623  -0.42881
  Beta  occ. eigenvalues --   -0.42322  -0.41262  -0.40191  -0.39630  -0.38325
  Beta  occ. eigenvalues --   -0.37793  -0.36855  -0.35699  -0.34501  -0.33454
  Beta  occ. eigenvalues --   -0.32961  -0.31896  -0.31345  -0.31107  -0.30770
  Beta  occ. eigenvalues --   -0.30068  -0.29419  -0.28233  -0.27810  -0.26725
  Beta  occ. eigenvalues --   -0.25845  -0.24411  -0.23904  -0.22862  -0.22419
  Beta  occ. eigenvalues --   -0.20358  -0.17481  -0.17173  -0.16520  -0.15883
  Beta  occ. eigenvalues --   -0.14998  -0.14871  -0.14012  -0.11224
  Beta virt. eigenvalues --    0.06726   0.06969   0.07513   0.08136   0.08634
  Beta virt. eigenvalues --    0.08714   0.09340   0.09762   0.10024   0.10135
  Beta virt. eigenvalues --    0.10567   0.10698   0.11048   0.11178   0.11847

 Mulliken charges and spin densities:
               1          2
     1  C    0.326389  -0.610083
     2  O   -0.105838   0.035343
     3  C   -0.097805  -0.053974
     4  C   -0.510416  -0.101839
     5  C    0.059930  -0.050360
     6  O   -0.347461   0.028572
     7  N   -0.132404   0.035677
     8  C   -0.311537  -0.165493
     9  C   -0.194338   0.292664
    10  C   -0.146129   0.312350
    11  C   -0.430087  -0.351706
    12  C    0.288380  -0.108163
    13  C   -0.032367   0.147069
    14  N   -0.187792   0.085498
    15  C   -0.145860   0.038719
    16  O   -0.356036   0.005820
    17  C    0.167644  -0.125040
    18  C   -0.313124  -0.012205
    19  C   -0.260973  -0.027307
    20  N   -0.246014   0.020330
    21  H   -0.136684   0.273177
    22  H   -0.045920   0.164164
    23  H   -0.176805   0.309802
    24  H    0.175562  -0.007980
    25  H    0.040479   0.127228
    26  H    0.045737   0.146482
    27  H    0.167127   0.127055
    28  H    0.194691  -0.014280
    29  H    0.103650   0.079254
    30  H    0.120516   0.040506
    31  H    0.169768  -0.002780
    32  H    0.034561   0.289955
    33  H    0.219374   0.015705
    34  H    0.154829   0.002239
    35  H    0.118215   0.003041
    36  H    0.174775   0.034788
    37  H    0.162434   0.001201
    38  H    0.227347   0.003334
    39  H    0.226183   0.011239
 Sum of Mulliken charges =  -1.00000   1.00000

 Dipole moment (field-independent basis, Debye):
    X=             -0.5279    Y=             -3.9142    Z=             -1.6743  Tot=              4.2899
 Quadrupole moment (field-independent basis, Debye-Ang):
   XX=           -207.0451   YY=           -150.2617   ZZ=           -140.4729
   XY=             13.9663   XZ=             14.8927   YZ=             -9.4168

 Summary of Natural Population Analysis:

                                       Natural Population
                Natural  -----------------------------------------------
    Atom  No    Charge         Core      Valence    Rydberg      Total
 -----------------------------------------------------------------------
      C    1   -0.09595      0.99962     2.08702    0.00930     3.09595
      O    2   -0.29558      0.99988     3.28540    0.01030     4.29558
      C    3   -0.00262      0.99957     1.98954    0.01351     3.00262
      C    4   -0.06710      0.99956     2.05447    0.01307     3.06710
      C    5    0.35336      0.99965     1.62077    0.02622     2.64664
      O    6   -0.33250      0.99988     3.32654    0.00609     4.33250
      N    7   -0.31611      0.99964     2.80658    0.00989     3.81611
      C    8    0.12107      0.99945     1.86741    0.01208     2.87893
      C    9   -0.08715      0.99952     2.07771    0.00992     3.08715
      C   10   -0.10614      0.99952     2.09658    0.01004     3.10614
      C   11    0.10244      0.99945     1.88506    0.01306     2.89756
      C   12   -0.09222      0.99952     2.08273    0.00997     3.09222
      C   13   -0.11831      0.99952     2.10959    0.00921     3.11831
      N   14   -0.32360      0.99965     2.81400    0.00994     3.82360
      C   15    0.34305      0.99963     1.63234    0.02498     2.65695
      O   16   -0.32976      0.99988     3.32406    0.00583     4.32976
      C   17   -0.15264      0.99955     2.14429    0.00880     3.15264
      C   18   -0.19026      0.99963     2.18427    0.00636     3.19026
      C   19   -0.19263      0.99963     2.18626    0.00674     3.19263
      N   20   -0.41812      0.99977     2.90981    0.00853     3.91812
      H   21    0.09299      0.00000     0.40593    0.00108     0.40701
      H   22    0.07525      0.00000     0.42353    0.00122     0.42475
      H   23    0.07812      0.00000     0.42028    0.00160     0.42188
      H   24    0.07941      0.00000     0.41916    0.00144     0.42059
      H   25    0.08460      0.00000     0.41371    0.00169     0.41540
      H   26    0.10945      0.00000     0.38858    0.00196     0.39055
      H   27    0.19632      0.00000     0.30131    0.00237     0.30368
      H   28    0.09930      0.00000     0.39991    0.00079     0.40070
      H   29    0.09955      0.00000     0.39948    0.00097     0.40045
      H   30    0.09957      0.00000     0.39953    0.00089     0.40043
      H   31    0.09799      0.00000     0.40105    0.00095     0.40201
      H   32    0.19807      0.00000     0.29831    0.00363     0.30193
      H   33    0.10986      0.00000     0.38920    0.00094     0.39014
      H   34    0.09727      0.00000     0.40171    0.00103     0.40273
      H   35    0.11099      0.00000     0.38819    0.00082     0.38901
      H   36    0.12019      0.00000     0.37894    0.00087     0.37981
      H   37    0.09736      0.00000     0.40161    0.00103     0.40264
      H   38    0.17308      0.00000     0.32552    0.00139     0.32692
      H   39    0.18141      0.00000     0.31676    0.00184     0.31859
 =======================================================================
   * Total *    0.00000     19.99251    53.75714    0.25034    74.00000

 Normal termination of Gaussian 16 at Sat Dec 12 17:41:30 2020.
