 Gaussian 16, Revision A.03,

 -----------------------------------------------------------
 # opt freq B3LYP/6-31G(d) empiricaldispersion=gd3bj scf=xqc
 -----------------------------------------------------------

 -------------------------------
 CID_13813063_JID_10994_neutraal
 -------------------------------
 Symbolic Z-matrix:
 Charge =  0 Multiplicity = 1

 SCF Done:  E(RB3LYP) =  -843.508409714     A.U. after   16 cycles
 SCF Done:  E(RB3LYP) =  -843.511264683     A.U. after   15 cycles
 SCF Done:  E(RB3LYP) =  -843.511288236     A.U. after   16 cycles
 SCF Done:  E(RB3LYP) =  -843.512171260     A.U. after   14 cycles
 SCF Done:  E(RB3LYP) =  -843.512011542     A.U. after   15 cycles
 SCF Done:  E(RB3LYP) =  -843.512729519     A.U. after   14 cycles
 SCF Done:  E(RB3LYP) =  -843.513875320     A.U. after   15 cycles
 SCF Done:  E(RB3LYP) =  -843.515030774     A.U. after   16 cycles
 SCF Done:  E(RB3LYP) =  -843.515109031     A.U. after   17 cycles
 SCF Done:  E(RB3LYP) =  -843.516151581     A.U. after   16 cycles
 SCF Done:  E(RB3LYP) =  -843.516497898     A.U. after   11 cycles
 SCF Done:  E(RB3LYP) =  -843.516498917     A.U. after   10 cycles
 SCF Done:  E(RB3LYP) =  -843.516499101     A.U. after    9 cycles
 SCF Done:  E(RB3LYP) =  -843.516499166     A.U. after    7 cycles
 SCF Done:  E(RB3LYP) =  -843.516499192     A.U. after    7 cycles
 SCF Done:  E(RB3LYP) =  -843.516499200     A.U. after    7 cycles
 Optimization completed.
    -- Stationary point found.
 Normal termination of Gaussian 16 at Mon Dec 14 17:49:39 2020.

 --------------------------------------------------------------------
 #N Geom=AllCheck Guess=TCheck SCRF=Check GenChk RB3LYP/6-31G(d) Freq
 --------------------------------------------------------------------

 Structure from the checkpoint file:  "JID_10994.chk"
 -------------------------------
 CID_13813063_JID_10994_neutraal
 -------------------------------
 Charge =  0 Multiplicity = 1

 SCF Done:  E(RB3LYP) =  -843.516499200     A.U. after    1 cycles

  Exact polarizability: 425.511  -1.016 216.140   0.006   0.007  67.585
 Approx polarizability: 559.435  11.745 405.306   0.011   0.013 102.592

                      1                      2                      3
                      A                      A                      A
 Frequencies --     15.4648                16.6206                18.5311
 Red. masses --      6.2485                 3.8936                 3.5420
 Frc consts  --      0.0009                 0.0006                 0.0007
 IR Inten    --      0.6995                 0.2427                 0.9281

                      4                      5                      6
                      A                      A                      A
 Frequencies --     50.1298                58.1106                73.6986
 Red. masses --      5.6921                 6.1187                 7.0664
 Frc consts  --      0.0084                 0.0122                 0.0226
 IR Inten    --      0.2423                 0.5653                 0.7713

                      7                      8                      9
                      A                      A                      A
 Frequencies --    100.2109               105.1639               158.0294
 Red. masses --      4.0110                 5.6382                 6.0431
 Frc consts  --      0.0237                 0.0367                 0.0889
 IR Inten    --      3.8845                 0.0088                 0.4184

                     10                     11                     12
                      A                      A                      A
 Frequencies --    201.8284               205.6919               246.3609
 Red. masses --      9.4966                 5.1526                 1.3617
 Frc consts  --      0.2279                 0.1284                 0.0487
 IR Inten    --      4.9155                 1.2300                 0.0007

                     13                     14                     15
                      A                      A                      A
 Frequencies --    251.4028               277.4574               303.9305
 Red. masses --      3.9429                 6.9120                 3.6011
 Frc consts  --      0.1468                 0.3135                 0.1960
 IR Inten    --      1.5545                 3.2550                 1.6324

                     16                     17                     18
                      A                      A                      A
 Frequencies --    345.0920               397.0825               411.9828
 Red. masses --      8.2815                 5.2502                 2.9866
 Frc consts  --      0.5811                 0.4877                 0.2987
 IR Inten    --      8.9084                 0.4059                 0.0012

                     19                     20                     21
                      A                      A                      A
 Frequencies --    422.0677               464.5151               479.2712
 Red. masses --      3.1637                 5.3354                 5.5368
 Frc consts  --      0.3321                 0.6783                 0.7493
 IR Inten    --      0.0264                 0.8740                 0.4059

                     22                     23                     24
                      A                      A                      A
 Frequencies --    499.5354               527.3798               559.2664
 Red. masses --      7.6868                 6.2632                 3.5931
 Frc consts  --      1.1301                 1.0263                 0.6621
 IR Inten    --      5.5834                 7.7232                11.0328

                     25                     26                     27
                      A                      A                      A
 Frequencies --    562.4376               570.0594               599.7693
 Red. masses --      3.2153                 6.9565                 9.2551
 Frc consts  --      0.5993                 1.3319                 1.9616
 IR Inten    --      1.4132                51.7375                12.0208

                     28                     29                     30
                      A                      A                      A
 Frequencies --    637.0005               658.2268               662.7249
 Red. masses --      6.5620                 7.5226                 8.1505
 Frc consts  --      1.5688                 1.9203                 2.1091
 IR Inten    --      0.1843                 3.4119                 2.7580

                     31                     32                     33
                      A                      A                      A
 Frequencies --    702.3702               727.7935               740.8371
 Red. masses --      1.9718                 4.3991                12.1417
 Frc consts  --      0.5731                 1.3729                 3.9262
 IR Inten    --     23.5386                 0.7234                13.6367

                     34                     35                     36
                      A                      A                      A
 Frequencies --    756.0137               776.5595               825.1256
 Red. masses --      6.3800                 1.7609                 1.2681
 Frc consts  --      2.1485                 0.6257                 0.5087
 IR Inten    --     12.7484                34.1658                 4.7088

                     37                     38                     39
                      A                      A                      A
 Frequencies --    829.2818               850.2776               857.7494
 Red. masses --      6.0829                 1.6588                 1.2472
 Frc consts  --      2.4647                 0.7066                 0.5406
 IR Inten    --     22.0723                51.0824                 0.0027

                     40                     41                     42
                      A                      A                      A
 Frequencies --    908.3198               937.0775               954.8403
 Red. masses --      7.4576                 1.3866                 1.3138
 Frc consts  --      3.6252                 0.7174                 0.7057
 IR Inten    --      3.8859                 2.6045                 0.1456

                     43                     44                     45
                      A                      A                      A
 Frequencies --    967.2697               972.4412              1001.9665
 Red. masses --      1.2857                 1.3491                 1.2635
 Frc consts  --      0.7087                 0.7517                 0.7474
 IR Inten    --      0.0015                 0.0083                 0.0440

                     46                     47                     48
                      A                      A                      A
 Frequencies --   1020.5714              1032.5538              1057.3539
 Red. masses --      6.2357                 2.7048                 2.2251
 Frc consts  --      3.8267                 1.6991                 1.4657
 IR Inten    --      5.1292                 1.1518                 1.4712

                     49                     50                     51
                      A                      A                      A
 Frequencies --   1075.8315              1111.8579              1121.9346
 Red. masses --      6.4877                 1.5772                 5.1055
 Frc consts  --      4.4242                 1.1488                 3.7864
 IR Inten    --     48.9259                 2.8635               721.3272

                     52                     53                     54
                      A                      A                      A
 Frequencies --   1144.2449              1185.2868              1196.2837
 Red. masses --      1.3091                 1.2704                 1.0983
 Frc consts  --      1.0098                 1.0516                 0.9261
 IR Inten    --      7.2131                 0.7576                 0.0709

                     55                     56                     57
                      A                      A                      A
 Frequencies --   1209.3707              1212.4947              1219.9290
 Red. masses --      1.1771                 1.1443                 1.3641
 Frc consts  --      1.0144                 0.9911                 1.1961
 IR Inten    --     44.4271                 1.4088                10.4285

                     58                     59                     60
                      A                      A                      A
 Frequencies --   1293.9863              1310.0774              1335.0688
 Red. masses --      3.9252                 4.3987                 2.6565
 Frc consts  --      3.8723                 4.4481                 2.7897
 IR Inten    --      0.1651               510.2099                 8.8924

                     61                     62                     63
                      A                      A                      A
 Frequencies --   1336.5924              1348.8423              1360.0664
 Red. masses --      1.8392                 2.7332                 6.8043
 Frc consts  --      1.9358                 2.9299                 7.4158
 IR Inten    --     88.9556               181.4230                13.9338

                     64                     65                     66
                      A                      A                      A
 Frequencies --   1367.1585              1469.7599              1490.8140
 Red. masses --      1.9477                 3.2163                 2.2327
 Frc consts  --      2.1449                 4.0936                 2.9237
 IR Inten    --      1.1713                 3.1785                 6.1940

                     67                     68                     69
                      A                      A                      A
 Frequencies --   1500.3589              1522.6151              1533.7989
 Red. masses --      1.2084                 1.0472                 1.0628
 Frc consts  --      1.6027                 1.4305                 1.4731
 IR Inten    --     35.6676                 6.4343                66.7007

                     70                     71                     72
                      A                      A                      A
 Frequencies --   1542.9882              1564.6637              1612.8173
 Red. masses --      2.2875                 2.5366                 6.4998
 Frc consts  --      3.2088                 3.6589                 9.9614
 IR Inten    --     23.9244               154.6842                21.1043

                     73                     74                     75
                      A                      A                      A
 Frequencies --   1629.1267              1659.4465              1666.8868
 Red. masses --      5.1263                 5.5500                 5.7515
 Frc consts  --      8.0161                 9.0048                 9.4156
 IR Inten    --      0.5701                25.1892               317.4304

                     76                     77                     78
                      A                      A                      A
 Frequencies --   1695.4504              2299.0358              2312.8257
 Red. masses --     12.1695                11.9974                12.0007
 Frc consts  --     20.6106                37.3620                37.8217
 IR Inten    --    255.9788              1125.3539               164.1537

                     79                     80                     81
                      A                      A                      A
 Frequencies --   3034.4782              3097.0421              3167.9855
 Red. masses --      1.0343                 1.1071                 1.1005
 Frc consts  --      5.6116                 6.2564                 6.5075
 IR Inten    --     71.8853                37.2382                25.8592

                     82                     83                     84
                      A                      A                      A
 Frequencies --   3189.9468              3199.7883              3209.6716
 Red. masses --      1.0855                 1.0889                 1.0927
 Frc consts  --      6.5081                 6.5684                 6.6325
 IR Inten    --      0.4320                 7.0512                25.1075

                     85                     86                     87
                      A                      A                      A
 Frequencies --   3210.7157              3214.3230              3219.0109
 Red. masses --      1.0880                 1.0894                 1.0946
 Frc consts  --      6.6084                 6.6318                 6.6826
 IR Inten    --      4.9268                 3.3751                15.9099

                     88                     89                     90
                      A                      A                      A
 Frequencies --   3222.8111              3226.2410              3236.3598
 Red. masses --      1.0968                 1.0954                 1.0927
 Frc consts  --      6.7118                 6.7175                 6.7432
 IR Inten    --     10.5598                 5.7594                13.3406

 - Thermochemistry -
 -------------------
 Temperature   298.150 Kelvin.  Pressure   1.00000 Atm.
 Atom     1 has atomic number  6 and mass  12.00000

 Molecular mass:   260.08373 amu.
 Principal axes and moments of inertia in atomic units:
                           1         2         3
     Eigenvalues --  2311.86943********************
           X            0.99999  -0.00414   0.00000
           Y            0.00414   0.99999   0.00001
           Z           -0.00000  -0.00001   1.00000
 This molecule is an asymmetric top.
 Rotational symmetry number  1.
 Warning -- assumption of classical behavior for rotation
           may cause significant error
 Rotational temperatures (Kelvin)      0.03746     0.00460     0.00410
 Rotational constants (GHZ):           0.78064     0.09583     0.08540
 Zero-point vibrational energy     642128.1 (Joules/Mol)
                                  153.47230 (Kcal/Mol)
 Warning -- explicit consideration of  27 degrees of freedom as
           vibrations may cause significant error
 Vibrational temperatures:     22.25    23.91    26.66    72.13    83.61
          (Kelvin)            106.04   144.18   151.31   227.37   290.39
                              295.94   354.46   361.71   399.20   437.29
                              496.51   571.31   592.75   607.26   668.33
                              689.56   718.72   758.78   804.66   809.22
                              820.19   862.93   916.50   947.04   953.51
                             1010.55  1047.13  1065.90  1087.74  1117.30
                             1187.17  1193.15  1223.36  1234.11  1306.87
                             1348.25  1373.80  1391.69  1399.13  1441.61
                             1468.37  1485.61  1521.30  1547.88  1599.72
                             1614.21  1646.31  1705.36  1721.19  1740.01
                             1744.51  1755.21  1861.76  1884.91  1920.87
                             1923.06  1940.68  1956.83  1967.04  2114.66
                             2144.95  2158.68  2190.70  2206.79  2220.02
                             2251.20  2320.48  2343.95  2387.57  2398.28
                             2439.37  3307.80  3327.64  4365.94  4455.95
                             4558.02  4589.62  4603.78  4618.00  4619.50
                             4624.69  4631.44  4636.91  4641.84  4656.40

 Zero-point correction=                           0.244574 (Hartree/Particle)
 Thermal correction to Energy=                    0.262299
 Thermal correction to Enthalpy=                  0.263244
 Thermal correction to Gibbs Free Energy=         0.194115
 Sum of electronic and zero-point Energies=           -843.271926
 Sum of electronic and thermal Energies=              -843.254200
 Sum of electronic and thermal Enthalpies=            -843.253256
 Sum of electronic and thermal Free Energies=         -843.322384

                     E (Thermal)             CV                S
                      KCal/Mol        Cal/Mol-Kelvin    Cal/Mol-Kelvin
 Total                  164.595             65.759            145.493
 Electronic               0.000              0.000              0.000
 Translational            0.889              2.981             42.567
 Rotational               0.889              2.981             35.174
 Vibrational            162.818             59.797             67.751
 Vibration     1          0.593              1.986              7.145
 Vibration     2          0.593              1.986              7.002
 Vibration     3          0.593              1.986              6.786
 Vibration     4          0.595              1.978              4.812
 Vibration     5          0.596              1.974              4.520
 Vibration     6          0.599              1.966              4.052
 Vibration     7          0.604              1.949              3.450
 Vibration     8          0.605              1.945              3.356
 Vibration     9          0.621              1.894              2.573
 Vibration    10          0.639              1.837              2.116
 Vibration    11          0.640              1.832              2.082
 Vibration    12          0.661              1.769              1.756
 Vibration    13          0.663              1.760              1.721
 Vibration    14          0.678              1.715              1.549
 Vibration    15          0.695              1.666              1.395
 Vibration    16          0.723              1.585              1.189
 Vibration    17          0.764              1.476              0.973
 Vibration    18          0.776              1.444              0.920
 Vibration    19          0.784              1.422              0.885
 Vibration    20          0.822              1.329              0.753
 Vibration    21          0.836              1.296              0.712
 Vibration    22          0.855              1.251              0.659
 Vibration    23          0.882              1.189              0.593
 Vibration    24          0.915              1.119              0.525
 Vibration    25          0.918              1.113              0.519
 Vibration    26          0.926              1.096              0.504
 Vibration    27          0.958              1.032              0.450

 Optimization completed.
    -- Stationary point found.
 Normal termination of Gaussian 16 at Mon Dec 14 17:59:50 2020.

 ----------------------------------------------------------------------
 # B3LYP/6-311++G(d,p) empiricaldispersion=gd3bj scf=xqc pop=npa geom=c
 heck
 ----------------------------------------------------------------------

 ---------------------------------------
 CID_13813063_JID_10994_Energie_neutraal
 ---------------------------------------
 Structure from the checkpoint file:  "JID_10994.chk"
 Charge =  0 Multiplicity = 1

 SCF Done:  E(RB3LYP) =  -843.740703425     A.U. after   16 cycles
 Normal termination of Gaussian 16 at Mon Dec 14 18:04:52 2020.

 ----------------------------------------------------------------------
 # B3LYP/6-311++G(d,p) empiricaldispersion=gd3bj scf=xqc pop=npa geom=c
 heck
 ----------------------------------------------------------------------

 -------------------------------------
 CID_13813063_JID_10994_Energie_kation
 -------------------------------------
 Structure from the checkpoint file:  "JID_10994.chk"
 Charge =  1 Multiplicity = 2

 SCF Done:  E(UB3LYP) =  -843.452979616     A.U. after   24 cycles
 Normal termination of Gaussian 16 at Mon Dec 14 18:15:12 2020.
 Gaussian 16:  ES64L-G16RevA.03 25-Dec-2016

 ----------------------------------------------------------------------
 # B3LYP/6-311++G(d,p) empiricaldispersion=gd3bj scf=xqc pop=npa geom=c
 heck
 ----------------------------------------------------------------------

 ------------------------------------
 CID_13813063_JID_10994_Energie_anion
 ------------------------------------
 Structure from the checkpoint file:  "JID_10994.chk"
 Charge = -1 Multiplicity = 2

                         Standard orientation:
 ---------------------------------------------------------------------
 Center     Atomic      Atomic             Coordinates (Angstroms)
 Number     Number       Type             X           Y           Z
 ---------------------------------------------------------------------
      1          6           0       -7.398038   -0.852794    0.000118
      2          8           0       -6.168679   -1.565556    0.000065
      3          6           0       -5.012990   -0.853876    0.000047
      4          6           0       -4.942197    0.546364    0.000044
      5          6           0       -3.699912    1.171940    0.000005
      6          6           0       -2.510105    0.423176   -0.000020
      7          6           0       -2.599948   -0.986359   -0.000006
      8          6           0       -3.831629   -1.614696    0.000024
      9          6           0       -1.248868    1.070379   -0.000054
     10          6           0       -0.168224    1.630256   -0.000115
     11          6           0        1.105143    2.304196   -0.000110
     12          8           0        1.213846    3.527724   -0.000170
     13          6           0        2.250055    1.422068   -0.000038
     14          6           0        3.221181    0.690617   -0.000065
     15          6           0        4.360192   -0.160371   -0.000016
     16          6           0        5.656915    0.388929    0.000368
     17          6           0        6.768792   -0.446960    0.000418
     18          6           0        6.604796   -1.834309    0.000081
     19          6           0        5.321905   -2.387393   -0.000306
     20          6           0        4.203869   -1.559849   -0.000354
     21          1           0       -8.181653   -1.611460    0.000158
     22          1           0       -7.496268   -0.226006   -0.895035
     23          1           0       -7.496184   -0.226001    0.895277
     24          1           0       -5.841149    1.150526    0.000067
     25          1           0       -3.640780    2.255331    0.000001
     26          1           0       -1.687681   -1.573742   -0.000018
     27          1           0       -3.914343   -2.696350    0.000033
     28          1           0        5.772508    1.467726    0.000625
     29          1           0        7.765901   -0.016688    0.000716
     30          1           0        7.475512   -2.483626    0.000119
     31          1           0        5.194151   -3.465884   -0.000568
     32          1           0        3.203034   -1.979089   -0.000653
 ---------------------------------------------------------------------

 SCF Done:  E(UB3LYP) =  -843.787312216     A.U. after   24 cycles

 The electronic state is 2-A.
 Alpha  occ. eigenvalues --  -19.07536 -18.93870 -10.15806 -10.14063 -10.11069
 Alpha  occ. eigenvalues --  -10.08837 -10.08591 -10.08466 -10.08038 -10.07979
 Alpha  occ. eigenvalues --  -10.07939 -10.07623 -10.07613 -10.07088 -10.07003
 Alpha  occ. eigenvalues --  -10.06993 -10.03943 -10.03714 -10.03707 -10.03489
 Alpha  occ. eigenvalues --   -0.99343  -0.87913  -0.76547  -0.75773  -0.68679
 Alpha  occ. eigenvalues --   -0.67150  -0.66206  -0.64782  -0.64241  -0.62215
 Alpha  occ. eigenvalues --   -0.60011  -0.54195  -0.52373  -0.51515  -0.50590
 Alpha  occ. eigenvalues --   -0.49592  -0.45592  -0.43724  -0.42325  -0.40413
 Alpha  occ. eigenvalues --   -0.40102  -0.38885  -0.37092  -0.36050  -0.35369
 Alpha  occ. eigenvalues --   -0.34031  -0.33360  -0.33225  -0.32498  -0.30144
 Alpha  occ. eigenvalues --   -0.29842  -0.28792  -0.28199  -0.27921  -0.26737
 Alpha  occ. eigenvalues --   -0.25808  -0.25008  -0.24920  -0.24639  -0.19573
 Alpha  occ. eigenvalues --   -0.18059  -0.16840  -0.15975  -0.15932  -0.14035
 Alpha  occ. eigenvalues --   -0.12467  -0.11274  -0.10971   0.00331
 Alpha virt. eigenvalues --    0.05086   0.06698   0.06887   0.07633   0.07682
 Alpha virt. eigenvalues --    0.08175   0.08467   0.08651   0.09179   0.09675
 Alpha virt. eigenvalues --    0.10470   0.10688   0.11028   0.11782   0.12171

  Beta  occ. eigenvalues --  -19.07494 -18.93163 -10.15807 -10.13909 -10.10841
  Beta  occ. eigenvalues --  -10.08866 -10.08589 -10.08520 -10.08069 -10.07908
  Beta  occ. eigenvalues --  -10.07817 -10.07669 -10.07658 -10.06923 -10.06896
  Beta  occ. eigenvalues --  -10.06889 -10.03891 -10.03660 -10.03623 -10.03382
  Beta  occ. eigenvalues --   -0.99238  -0.86688  -0.76421  -0.75611  -0.68496
  Beta  occ. eigenvalues --   -0.66857  -0.66100  -0.64644  -0.64031  -0.61922
  Beta  occ. eigenvalues --   -0.59913  -0.53509  -0.52275  -0.51311  -0.50532
  Beta  occ. eigenvalues --   -0.49248  -0.45530  -0.43595  -0.42179  -0.40378
  Beta  occ. eigenvalues --   -0.39978  -0.38638  -0.36898  -0.35985  -0.35287
  Beta  occ. eigenvalues --   -0.33984  -0.33337  -0.33145  -0.32468  -0.29808
  Beta  occ. eigenvalues --   -0.29702  -0.28144  -0.28004  -0.27313  -0.25696
  Beta  occ. eigenvalues --   -0.25369  -0.24869  -0.24597  -0.23860  -0.18665
  Beta  occ. eigenvalues --   -0.17068  -0.16484  -0.15896  -0.15540  -0.13875
  Beta  occ. eigenvalues --   -0.11094  -0.10527  -0.10380
  Beta virt. eigenvalues --    0.05083   0.05503   0.06873   0.07675   0.07692
  Beta virt. eigenvalues --    0.08049   0.08164   0.08632   0.08668   0.09194
  Beta virt. eigenvalues --    0.09673   0.10470   0.10700   0.11776   0.12161

 Mulliken charges and spin densities:
               1          2
     1  C   -0.317600  -0.002185
     2  O   -0.164602   0.007458
     3  C   -0.517172   0.100107
     4  C   -0.000141  -0.039889
     5  C   -0.419468   0.089586
     6  C    0.800681  -0.026179
     7  C   -0.583185   0.065623
     8  C   -0.438910  -0.037551
     9  C    0.283162   0.156833
    10  C    0.675778  -0.016159
    11  C   -1.049212   0.105857
    12  O   -0.330724   0.253348
    13  C    0.651467   0.004693
    14  C    0.572388   0.148366
    15  C    0.927367  -0.006379
    16  C   -1.003522   0.071951
    17  C    0.053604  -0.027726
    18  C   -0.552129   0.127797
    19  C    0.060932  -0.026032
    20  C   -1.187557   0.070900
    21  H    0.156737  -0.000161
    22  H    0.142012   0.002337
    23  H    0.142012   0.002337
    24  H    0.147202   0.002426
    25  H    0.136280  -0.006370
    26  H    0.070961  -0.005402
    27  H    0.172172   0.002196
    28  H    0.116022  -0.005686
    29  H    0.141915   0.002327
    30  H    0.117505  -0.010126
    31  H    0.153511   0.002409
    32  H    0.042516  -0.006708
 Sum of Mulliken charges =  -1.00000   1.00000

 Dipole moment (field-independent basis, Debye):
    X=             -6.8845    Y=             -6.4693    Z=              0.0004  Tot=              9.4471
 Quadrupole moment (field-independent basis, Debye-Ang):
   XX=           -157.9887   YY=           -149.5261   ZZ=           -126.9454
   XY=            -10.6162   XZ=              0.0011   YZ=              0.0030

 Summary of Natural Population Analysis:

                                       Natural Population
                Natural  -----------------------------------------------
    Atom  No    Charge         Core      Valence    Rydberg      Total
 -----------------------------------------------------------------------
      C    1   -0.10132      0.99961     2.09359    0.00812     3.10132
      O    2   -0.27115      0.99985     3.26158    0.00972     4.27115
      C    3    0.18318      0.99940     1.80593    0.01149     2.81682
      C    4   -0.16498      0.99953     2.15789    0.00757     3.16498
      C    5   -0.04714      0.99955     2.03919    0.00840     3.04714
      C    6   -0.07924      0.99949     2.07197    0.00779     3.07924
      C    7   -0.05433      0.99954     2.04694    0.00785     3.05433
      C    8   -0.13888      0.99953     2.13056    0.00879     3.13888
      C    9    0.02713      0.99922     1.96653    0.00712     2.97287
      C   10   -0.02239      0.99917     2.01677    0.00645     3.02239
      C   11    0.20766      0.99952     1.77627    0.01655     2.79234
      O   12   -0.19311      0.99989     3.18690    0.00632     4.19311
      C   13   -0.01708      0.99916     2.01151    0.00641     3.01708
      C   14    0.02526      0.99921     1.96846    0.00707     2.97474
      C   15   -0.06107      0.99949     2.05365    0.00793     3.06107
      C   16   -0.06181      0.99954     2.05406    0.00820     3.06181
      C   17   -0.12010      0.99957     2.11137    0.00916     3.12010
      C   18   -0.07738      0.99958     2.06834    0.00946     3.07738
      C   19   -0.12024      0.99957     2.11150    0.00916     3.12024
      C   20   -0.06163      0.99954     2.05391    0.00818     3.06163
      H   21    0.08986      0.00000     0.40937    0.00077     0.41014
      H   22    0.08250      0.00000     0.41602    0.00148     0.41750
      H   23    0.08250      0.00000     0.41602    0.00148     0.41750
      H   24    0.09975      0.00000     0.39920    0.00105     0.40025
      H   25    0.10216      0.00000     0.39694    0.00090     0.39784
      H   26    0.10306      0.00000     0.39608    0.00086     0.39694
      H   27    0.10303      0.00000     0.39599    0.00098     0.39697
      H   28    0.10179      0.00000     0.39732    0.00090     0.39821
      H   29    0.09536      0.00000     0.40365    0.00099     0.40464
      H   30    0.09186      0.00000     0.40715    0.00100     0.40814
      H   31    0.09550      0.00000     0.40352    0.00099     0.40450
      H   32    0.10127      0.00000     0.39783    0.00090     0.39873
 =======================================================================
   * Total *    0.00000     19.98997    47.82599    0.18404    68.00000

 Normal termination of Gaussian 16 at Mon Dec 14 18:25:46 2020.
