 Gaussian 16, Revision A.03,

 -----------------------------------------------------------
 # opt freq B3LYP/6-31G(d) empiricaldispersion=gd3bj scf=xqc
 -----------------------------------------------------------

 -------------------------------
 CID_131930610_JID_6036_neutraal
 -------------------------------
 Symbolic Z-matrix:
 Charge =  0 Multiplicity = 1

 SCF Done:  E(RB3LYP) =  -1065.87977335     A.U. after   17 cycles
 SCF Done:  E(RB3LYP) =  -1065.88774724     A.U. after   13 cycles
 SCF Done:  E(RB3LYP) =  -1065.88952897     A.U. after   12 cycles
 SCF Done:  E(RB3LYP) =  -1065.88612530     A.U. after   14 cycles
 SCF Done:  E(RB3LYP) =  -1065.88906138     A.U. after   13 cycles
 SCF Done:  E(RB3LYP) =  -1065.89003206     A.U. after   11 cycles
 SCF Done:  E(RB3LYP) =  -1065.89024536     A.U. after   11 cycles
 SCF Done:  E(RB3LYP) =  -1065.89041729     A.U. after   12 cycles
 SCF Done:  E(RB3LYP) =  -1065.89053319     A.U. after   12 cycles
 SCF Done:  E(RB3LYP) =  -1065.89060695     A.U. after   11 cycles
 SCF Done:  E(RB3LYP) =  -1065.89069790     A.U. after   12 cycles
 SCF Done:  E(RB3LYP) =  -1065.89070695     A.U. after   10 cycles
 SCF Done:  E(RB3LYP) =  -1065.89070893     A.U. after   10 cycles
 SCF Done:  E(RB3LYP) =  -1065.89070938     A.U. after   10 cycles
 SCF Done:  E(RB3LYP) =  -1065.89070939     A.U. after    8 cycles
 SCF Done:  E(RB3LYP) =  -1065.89070941     A.U. after    7 cycles
 Optimization completed.
    -- Stationary point found.
 Normal termination of Gaussian 16 at Thu Dec 10 21:19:25 2020.

 --------------------------------------------------------------------
 #N Geom=AllCheck Guess=TCheck SCRF=Check GenChk RB3LYP/6-31G(d) Freq
 --------------------------------------------------------------------

 Structure from the checkpoint file:  "JID_6036.chk"
 -------------------------------
 CID_131930610_JID_6036_neutraal
 -------------------------------
 Charge =  0 Multiplicity = 1

 SCF Done:  E(RB3LYP) =  -1065.89070941     A.U. after    1 cycles

  Exact polarizability: 199.736 -28.942 140.664  -6.232 -17.358 115.271
 Approx polarizability: 306.154 -66.438 242.727 -22.138 -56.937 215.489

                      1                      2                      3
                      A                      A                      A
 Frequencies --     21.8011                26.3342                44.5893
 Red. masses --      3.4817                 4.7475                 6.6402
 Frc consts  --      0.0010                 0.0019                 0.0078
 IR Inten    --      0.4498                 0.0753                 0.1007

                      4                      5                      6
                      A                      A                      A
 Frequencies --     98.4385               136.4355               163.9709
 Red. masses --      3.2766                 3.9833                 4.1816
 Frc consts  --      0.0187                 0.0437                 0.0662
 IR Inten    --      0.0559                 5.7812                 3.5870

                      7                      8                      9
                      A                      A                      A
 Frequencies --    172.2331               206.0518               217.0087
 Red. masses --      1.9530                 1.9415                 2.7369
 Frc consts  --      0.0341                 0.0486                 0.0759
 IR Inten    --      2.6807                 2.2834                 2.4723

                     10                     11                     12
                      A                      A                      A
 Frequencies --    228.7636               248.9308               264.1042
 Red. masses --      2.1466                 1.6473                 2.3310
 Frc consts  --      0.0662                 0.0601                 0.0958
 IR Inten    --      1.3374                 1.3955                 2.1832

                     13                     14                     15
                      A                      A                      A
 Frequencies --    303.4538               329.1814               366.9962
 Red. masses --      2.3489                 4.7219                 3.3353
 Frc consts  --      0.1274                 0.3015                 0.2647
 IR Inten    --      5.4342                 0.8682                 3.9960

                     16                     17                     18
                      A                      A                      A
 Frequencies --    404.8845               421.7559               433.5253
 Red. masses --      2.2822                 3.5305                 3.5314
 Frc consts  --      0.2204                 0.3700                 0.3910
 IR Inten    --      0.2738                 8.7280                 6.8147

                     19                     20                     21
                      A                      A                      A
 Frequencies --    465.0793               535.0058               551.4671
 Red. masses --      5.3472                 5.6389                 3.5904
 Frc consts  --      0.6814                 0.9510                 0.6433
 IR Inten    --      1.4274                 3.9116                 0.8823

                     22                     23                     24
                      A                      A                      A
 Frequencies --    570.3170               614.4586               643.7846
 Red. masses --      6.4792                 2.1362                 3.4151
 Frc consts  --      1.2417                 0.4752                 0.8339
 IR Inten    --      0.6763                30.3659                11.4178

                     25                     26                     27
                      A                      A                      A
 Frequencies --    673.7665               724.7771               769.9770
 Red. masses --      9.0207                 2.8160                 3.3838
 Frc consts  --      2.4127                 0.8715                 1.1820
 IR Inten    --      3.8740                77.6092                 9.3584

                     28                     29                     30
                      A                      A                      A
 Frequencies --    793.2892               817.8288               822.2438
 Red. masses --      4.2099                 8.5067                 1.7307
 Frc consts  --      1.5609                 3.3522                 0.6894
 IR Inten    --     35.8416                30.2544                27.2097

                     31                     32                     33
                      A                      A                      A
 Frequencies --    827.8245               850.2499               869.8879
 Red. masses --     11.3374                 2.2629                 3.5366
 Frc consts  --      4.5776                 0.9638                 1.5768
 IR Inten    --     20.8602                24.1172                11.9593

                     34                     35                     36
                      A                      A                      A
 Frequencies --    879.7556               930.7384               955.5780
 Red. masses --      1.7627                 1.9582                 1.7657
 Frc consts  --      0.8038                 0.9995                 0.9499
 IR Inten    --      8.8920                 2.6395                 4.5638

                     37                     38                     39
                      A                      A                      A
 Frequencies --    965.0323               977.7557               979.1643
 Red. masses --      1.9064                 2.8531                 1.4005
 Frc consts  --      1.0461                 1.6071                 0.7911
 IR Inten    --      8.1232                 4.5341                 0.4947

                     40                     41                     42
                      A                      A                      A
 Frequencies --   1007.8039              1096.8832              1129.8758
 Red. masses --      1.8053                 1.9737                 3.3821
 Frc consts  --      1.0803                 1.3991                 2.5439
 IR Inten    --      2.0601                63.3988                18.2451

                     43                     44                     45
                      A                      A                      A
 Frequencies --   1153.8355              1166.0429              1177.1329
 Red. masses --      2.7664                 2.3841                 1.5204
 Frc consts  --      2.1700                 1.9099                 1.2412
 IR Inten    --     24.0315                28.4906                 9.7348

                     46                     47                     48
                      A                      A                      A
 Frequencies --   1181.5489              1189.7727              1200.4785
 Red. masses --      1.8473                 1.9137                 1.4286
 Frc consts  --      1.5194                 1.5960                 1.2131
 IR Inten    --     24.1624                33.1120                 1.9857

                     49                     50                     51
                      A                      A                      A
 Frequencies --   1234.1294              1270.6527              1275.2125
 Red. masses --      1.7439                 1.7300                 1.2189
 Frc consts  --      1.5649                 1.6457                 1.1679
 IR Inten    --     22.9595                 0.1031                 4.9478

                     52                     53                     54
                      A                      A                      A
 Frequencies --   1296.5236              1328.6388              1365.9310
 Red. masses --      1.9090                 2.1908                 1.5367
 Frc consts  --      1.8907                 2.2786                 1.6892
 IR Inten    --     18.0732                 9.3463                 9.5277

                     55                     56                     57
                      A                      A                      A
 Frequencies --   1368.2131              1375.8206              1392.5335
 Red. masses --      1.9478                 1.4311                 4.0581
 Frc consts  --      2.1483                 1.5961                 4.6365
 IR Inten    --      3.1463                 8.6975                 1.0645

                     58                     59                     60
                      A                      A                      A
 Frequencies --   1410.9369              1423.8530              1441.1682
 Red. masses --      1.4193                 1.3139                 1.2914
 Frc consts  --      1.6647                 1.5695                 1.5803
 IR Inten    --      4.3643                14.7981                17.9000

                     61                     62                     63
                      A                      A                      A
 Frequencies --   1488.5099              1498.4974              1503.2924
 Red. masses --      2.6548                 1.2354                 1.1576
 Frc consts  --      3.4656                 1.6344                 1.5414
 IR Inten    --      0.9765                 0.2137                 6.0485

                     64                     65                     66
                      A                      A                      A
 Frequencies --   1511.5153              1514.9315              1525.5388
 Red. masses --      1.0542                 1.0946                 1.0846
 Frc consts  --      1.4191                 1.4801                 1.4872
 IR Inten    --      4.0947                13.9510                 9.3356

                     67                     68                     69
                      A                      A                      A
 Frequencies --   1530.7408              1536.2703              1542.4887
 Red. masses --      1.0732                 4.6313                 1.1386
 Frc consts  --      1.4816                 6.4400                 1.5962
 IR Inten    --      1.9581                 7.8953                10.8356

                     70                     71                     72
                      A                      A                      A
 Frequencies --   1555.7905              1566.9437              1673.4117
 Red. masses --      1.0926                 5.5030                 6.1204
 Frc consts  --      1.5581                 7.9608                10.0981
 IR Inten    --      9.3017                15.0992                 6.0157

                     73                     74                     75
                      A                      A                      A
 Frequencies --   2980.6163              3000.8658              3029.8017
 Red. masses --      1.0628                 1.0410                 1.0815
 Frc consts  --      5.5633                 5.5231                 5.8491
 IR Inten    --     39.9434                69.5585                42.9162

                     76                     77                     78
                      A                      A                      A
 Frequencies --   3031.9964              3039.4748              3049.2905
 Red. masses --      1.0719                 1.0880                 1.1033
 Frc consts  --      5.8059                 5.9220                 6.0444
 IR Inten    --     36.5228                60.9072                58.5752

                     79                     80                     81
                      A                      A                      A
 Frequencies --   3058.4057              3078.9903              3124.3180
 Red. masses --      1.0360                 1.1000                 1.1015
 Frc consts  --      5.7094                 6.1442                 6.3350
 IR Inten    --     30.3000                23.1591                30.4381

                     82                     83                     84
                      A                      A                      A
 Frequencies --   3143.2869              3144.8119              3183.6265
 Red. masses --      1.0978                 1.1030                 1.0885
 Frc consts  --      6.3905                 6.4271                 6.5002
 IR Inten    --     21.0646                21.6622                10.7716

                     85                     86                     87
                      A                      A                      A
 Frequencies --   3223.8479              3225.5189              3512.0186
 Red. masses --      1.0913                 1.0936                 1.0731
 Frc consts  --      6.6829                 6.7033                 7.7985
 IR Inten    --      6.4926                 5.0519                 0.3523

 - Thermochemistry -
 -------------------
 Temperature   298.150 Kelvin.  Pressure   1.00000 Atm.
 Atom     1 has atomic number  6 and mass  12.00000

 Molecular mass:   237.09358 amu.
 Principal axes and moments of inertia in atomic units:
                           1         2         3
     Eigenvalues --  1931.427565989.950236964.57595
           X            0.99996   0.00944  -0.00010
           Y           -0.00944   0.99989   0.01129
           Z            0.00021  -0.01129   0.99994
 This molecule is an asymmetric top.
 Rotational symmetry number  1.
 Warning -- assumption of classical behavior for rotation
           may cause significant error
 Rotational temperatures (Kelvin)      0.04484     0.01446     0.01244
 Rotational constants (GHZ):           0.93441     0.30129     0.25913
 Zero-point vibrational energy     670316.9 (Joules/Mol)
                                  160.20958 (Kcal/Mol)
 Warning -- explicit consideration of  23 degrees of freedom as
           vibrations may cause significant error
 Vibrational temperatures:     31.37    37.89    64.15   141.63   196.30
          (Kelvin)            235.92   247.81   296.46   312.23   329.14
                              358.16   379.99   436.60   473.62   528.03
                              582.54   606.81   623.75   669.15   769.75
                              793.44   820.56   884.07   926.26   969.40
                             1042.79  1107.83  1141.37  1176.67  1183.03
                             1191.05  1223.32  1251.57  1265.77  1339.12
                             1374.86  1388.47  1406.77  1408.80  1450.01
                             1578.17  1625.64  1660.11  1677.68  1693.63
                             1699.99  1711.82  1727.22  1775.64  1828.19
                             1834.75  1865.41  1911.61  1965.27  1968.55
                             1979.50  2003.55  2030.02  2048.61  2073.52
                             2141.63  2156.00  2162.90  2174.73  2179.65
                             2194.91  2202.39  2210.35  2219.30  2238.44
                             2254.48  2407.67  4288.44  4317.58  4359.21
                             4362.37  4373.13  4387.25  4400.36  4429.98
                             4495.20  4522.49  4524.68  4580.53  4638.40
                             4640.80  5053.01

 Zero-point correction=                           0.255310 (Hartree/Particle)
 Thermal correction to Energy=                    0.270446
 Thermal correction to Enthalpy=                  0.271390
 Thermal correction to Gibbs Free Energy=         0.211350
 Sum of electronic and zero-point Energies=          -1065.635399
 Sum of electronic and thermal Energies=             -1065.620263
 Sum of electronic and thermal Enthalpies=           -1065.619319
 Sum of electronic and thermal Free Energies=        -1065.679360

                     E (Thermal)             CV                S
                      KCal/Mol        Cal/Mol-Kelvin    Cal/Mol-Kelvin
 Total                  169.707             57.454            126.366
 Electronic               0.000              0.000              0.000
 Translational            0.889              2.981             42.291
 Rotational               0.889              2.981             32.755
 Vibrational            167.930             51.492             51.320
 Vibration     1          0.593              1.985              6.463
 Vibration     2          0.593              1.985              6.088
 Vibration     3          0.595              1.980              5.044
 Vibration     4          0.604              1.950              3.485
 Vibration     5          0.614              1.917              2.853
 Vibration     6          0.623              1.887              2.503
 Vibration     7          0.626              1.877              2.411
 Vibration     8          0.641              1.831              2.078
 Vibration     9          0.646              1.815              1.984
 Vibration    10          0.651              1.797              1.889
 Vibration    11          0.662              1.765              1.738
 Vibration    12          0.671              1.739              1.634
 Vibration    13          0.695              1.667              1.398
 Vibration    14          0.712              1.617              1.264
 Vibration    15          0.740              1.540              1.092
 Vibration    16          0.770              1.460              0.945
 Vibration    17          0.784              1.423              0.886
 Vibration    18          0.794              1.397              0.847
 Vibration    19          0.823              1.328              0.751
 Vibration    20          0.890              1.173              0.576
 Vibration    21          0.907              1.136              0.541
 Vibration    22          0.926              1.095              0.504
 Vibration    23          0.974              1.001              0.425

 Optimization completed.
    -- Stationary point found.
 Normal termination of Gaussian 16 at Thu Dec 10 21:31:09 2020.

 ----------------------------------------------------------------------
 # B3LYP/6-311++G(d,p) empiricaldispersion=gd3bj scf=xqc pop=npa geom=c
 heck
 ----------------------------------------------------------------------

 ---------------------------------------
 CID_131930610_JID_6036_Energie_neutraal
 ---------------------------------------
 Structure from the checkpoint file:  "JID_6036.chk"
 Charge =  0 Multiplicity = 1

 SCF Done:  E(RB3LYP) =  -1066.09872834     A.U. after   17 cycles
 Normal termination of Gaussian 16 at Thu Dec 10 21:37:22 2020.

 ----------------------------------------------------------------------
 # B3LYP/6-311++G(d,p) empiricaldispersion=gd3bj scf=xqc pop=npa geom=c
 heck
 ----------------------------------------------------------------------

 -------------------------------------
 CID_131930610_JID_6036_Energie_kation
 -------------------------------------
 Structure from the checkpoint file:  "JID_6036.chk"
 Charge =  1 Multiplicity = 2

 SCF Done:  E(UB3LYP) =  -1065.80148065     A.U. after   28 cycles
 Normal termination of Gaussian 16 at Thu Dec 10 21:51:26 2020.
 Gaussian 16:  ES64L-G16RevA.03 25-Dec-2016

 ----------------------------------------------------------------------
 # B3LYP/6-311++G(d,p) empiricaldispersion=gd3bj scf=xqc pop=npa geom=c
 heck
 ----------------------------------------------------------------------

 ------------------------------------
 CID_131930610_JID_6036_Energie_anion
 ------------------------------------
 Structure from the checkpoint file:  "JID_6036.chk"
 Charge = -1 Multiplicity = 2

                         Standard orientation:
 ---------------------------------------------------------------------
 Center     Atomic      Atomic             Coordinates (Angstroms)
 Number     Number       Type             X           Y           Z
 ---------------------------------------------------------------------
      1          6           0        4.470247    0.718528   -0.034445
      2          6           0        3.235301   -0.120167    0.308126
      3          6           0        2.171888    0.738916    1.011029
      4          8           0        1.668138    1.671630    0.073397
      5          6           0        0.644170    2.484121    0.607490
      6          7           0        2.779400   -0.790830   -0.912799
      7          6           0        1.783019   -1.844260   -0.763953
      8          6           0        0.362737   -1.442871   -0.368425
      9          6           0       -0.288074   -0.430262   -1.029420
     10          6           0       -1.596429   -0.064563   -0.614772
     11          7           0       -2.345904    0.918082   -1.135048
     12         16           0       -3.753112    0.926789   -0.279076
     13          7           0       -3.462197   -0.304710    0.775507
     14          6           0       -2.239108   -0.765152    0.482949
     15          6           0       -1.552984   -1.826412    1.137180
     16          6           0       -0.289987   -2.137879    0.706779
     17          1           0        4.197492    1.534385   -0.712235
     18          1           0        5.226427    0.097201   -0.521456
     19          1           0        4.902156    1.164603    0.868308
     20          1           0        3.526372   -0.910270    1.014854
     21          1           0        1.353986    0.112552    1.396471
     22          1           0        2.621479    1.262465    1.872211
     23          1           0       -0.190473    1.878401    0.990850
     24          1           0        1.020127    3.120061    1.424374
     25          1           0        0.275158    3.116885   -0.203144
     26          1           0        2.458390   -0.084546   -1.571590
     27          1           0        1.734561   -2.382459   -1.720540
     28          1           0        2.168321   -2.562071   -0.029845
     29          1           0        0.181437    0.124692   -1.833580
     30          1           0       -2.031620   -2.352987    1.955599
     31          1           0        0.257099   -2.938372    1.198919
 ---------------------------------------------------------------------

 SCF Done:  E(UB3LYP) =  -1066.13484525     A.U. after   22 cycles

 The electronic state is 2-A.
 Alpha  occ. eigenvalues --  -88.74085 -19.01935 -14.18585 -14.15277 -14.15244
 Alpha  occ. eigenvalues --  -10.10534 -10.10203 -10.10087 -10.07805 -10.06515
 Alpha  occ. eigenvalues --  -10.05331 -10.05283 -10.03070 -10.02669 -10.02131
 Alpha  occ. eigenvalues --  -10.01747  -7.82450  -5.78881  -5.78321  -5.78094
 Alpha  occ. eigenvalues --   -0.93275  -0.83803  -0.79931  -0.71324  -0.70010
 Alpha  occ. eigenvalues --   -0.66753  -0.61050  -0.59960  -0.59334  -0.54899
 Alpha  occ. eigenvalues --   -0.54072  -0.48370  -0.46884  -0.43862  -0.43681
 Alpha  occ. eigenvalues --   -0.39299  -0.38423  -0.36843  -0.34948  -0.34497
 Alpha  occ. eigenvalues --   -0.34114  -0.33243  -0.31836  -0.31090  -0.29610
 Alpha  occ. eigenvalues --   -0.28990  -0.28164  -0.27513  -0.25760  -0.25486
 Alpha  occ. eigenvalues --   -0.25074  -0.23375  -0.22536  -0.21872  -0.20662
 Alpha  occ. eigenvalues --   -0.19212  -0.17019  -0.15684  -0.15231  -0.12783
 Alpha  occ. eigenvalues --   -0.11734  -0.10378  -0.08774   0.02580
 Alpha virt. eigenvalues --    0.07136   0.08812   0.08956   0.09588   0.10763
 Alpha virt. eigenvalues --    0.11151   0.11793   0.11925   0.12545   0.13609
 Alpha virt. eigenvalues --    0.13765   0.14034   0.14169   0.14718   0.14823

  Beta  occ. eigenvalues --  -88.73945 -19.01931 -14.18576 -14.14708 -14.14692
  Beta  occ. eigenvalues --  -10.10531 -10.10202 -10.10086 -10.07813 -10.06515
  Beta  occ. eigenvalues --  -10.05419 -10.05372 -10.03000 -10.02597 -10.01921
  Beta  occ. eigenvalues --  -10.01552  -7.82325  -5.78814  -5.78259  -5.77635
  Beta  occ. eigenvalues --   -0.93268  -0.83151  -0.79912  -0.70348  -0.69691
  Beta  occ. eigenvalues --   -0.66689  -0.60917  -0.59814  -0.58911  -0.54871
  Beta  occ. eigenvalues --   -0.53885  -0.48147  -0.46481  -0.43661  -0.43311
  Beta  occ. eigenvalues --   -0.39266  -0.38407  -0.36817  -0.34873  -0.34427
  Beta  occ. eigenvalues --   -0.33839  -0.33077  -0.31701  -0.31070  -0.29539
  Beta  occ. eigenvalues --   -0.28829  -0.27555  -0.26921  -0.25627  -0.25393
  Beta  occ. eigenvalues --   -0.24982  -0.23235  -0.22322  -0.21815  -0.19967
  Beta  occ. eigenvalues --   -0.17956  -0.15656  -0.14995  -0.14827  -0.12151
  Beta  occ. eigenvalues --   -0.11635  -0.09082  -0.06603
  Beta virt. eigenvalues --    0.07104   0.08655   0.08927   0.09026   0.09574
  Beta virt. eigenvalues --    0.10776   0.11194   0.11779   0.11922   0.12548
  Beta virt. eigenvalues --    0.13617   0.13862   0.14147   0.14289   0.14816

 Mulliken charges and spin densities:
               1          2
     1  C   -0.456490  -0.018057
     2  C   -0.381611   0.045960
     3  C   -0.392040  -0.022331
     4  O   -0.044649  -0.009105
     5  C   -0.269980  -0.003434
     6  N    0.098477  -0.014707
     7  C   -0.760383   0.039304
     8  C    0.906255   0.030073
     9  C   -0.163006   0.181821
    10  C   -0.556193  -0.072250
    11  N   -0.110861   0.222636
    12  S    0.268689   0.287654
    13  N   -0.211896   0.222639
    14  C   -0.160230  -0.031784
    15  C   -0.424130   0.129903
    16  C   -0.476827   0.010286
    17  H    0.157227   0.000428
    18  H    0.148537   0.001956
    19  H    0.105000   0.000422
    20  H    0.117885   0.009129
    21  H    0.191697   0.003459
    22  H    0.119026  -0.000752
    23  H    0.203562   0.001673
    24  H    0.106138   0.000787
    25  H    0.127405  -0.000598
    26  H    0.222612  -0.005314
    27  H    0.147859   0.019897
    28  H    0.126927  -0.006028
    29  H    0.132530  -0.007110
    30  H    0.129774  -0.011755
    31  H    0.098696  -0.004804
 Sum of Mulliken charges =  -1.00000   1.00000

 Dipole moment (field-independent basis, Debye):
    X=              7.6531    Y=              0.8608    Z=              1.7139  Tot=              7.8898
 Quadrupole moment (field-independent basis, Debye-Ang):
   XX=           -156.6739   YY=           -117.8025   ZZ=           -115.4338
   XY=              1.6236   XZ=              4.6231   YZ=              1.7732

 Summary of Natural Population Analysis:

                                       Natural Population
                Natural  -----------------------------------------------
    Atom  No    Charge         Core      Valence    Rydberg      Total
 -----------------------------------------------------------------------
      C    1   -0.28698      0.99965     2.28207    0.00526     3.28698
      C    2   -0.01631      0.99961     2.00604    0.01066     3.01631
      C    3   -0.01791      0.99957     2.00842    0.00993     3.01791
      O    4   -0.30322      0.99988     3.29303    0.01031     4.30322
      C    5   -0.09775      0.99963     2.08948    0.00865     3.09775
      N    6   -0.34577      0.99974     2.83154    0.01448     3.84577
      C    7   -0.08845      0.99959     2.07790    0.01096     3.08845
      C    8   -0.03296      0.99950     2.02402    0.00943     3.03296
      C    9   -0.07052      0.99945     2.06118    0.00989     3.07052
      C   10    0.03314      0.99951     1.95044    0.01691     2.96686
      N   11   -0.25808      0.99972     2.74307    0.01529     3.75808
      S   12    0.44080      4.99948     2.52290    0.03682     7.55920
      N   13   -0.25086      0.99972     2.73664    0.01451     3.75086
      C   14    0.03000      0.99951     1.95252    0.01797     2.97000
      C   15   -0.06713      0.99952     2.05830    0.00930     3.06713
      C   16   -0.10318      0.99954     2.09471    0.00894     3.10318
      H   17    0.10141      0.00000     0.39753    0.00106     0.39859
      H   18    0.09962      0.00000     0.39939    0.00099     0.40038
      H   19    0.09249      0.00000     0.40667    0.00084     0.40751
      H   20    0.08752      0.00000     0.41090    0.00158     0.41248
      H   21    0.09729      0.00000     0.40149    0.00122     0.40271
      H   22    0.07194      0.00000     0.42663    0.00143     0.42806
      H   23    0.09146      0.00000     0.40687    0.00166     0.40854
      H   24    0.06819      0.00000     0.43041    0.00140     0.43181
      H   25    0.09224      0.00000     0.40689    0.00086     0.40776
      H   26    0.17700      0.00000     0.32113    0.00186     0.32300
      H   27    0.09474      0.00000     0.40419    0.00107     0.40526
      H   28    0.08719      0.00000     0.41161    0.00120     0.41281
      H   29    0.09401      0.00000     0.40421    0.00178     0.40599
      H   30    0.09327      0.00000     0.40517    0.00156     0.40673
      H   31    0.08680      0.00000     0.41184    0.00136     0.41320
 =======================================================================
   * Total *    0.00000     19.99361    42.77719    0.22920    63.00000

 Normal termination of Gaussian 16 at Thu Dec 10 22:02:27 2020.
