 Gaussian 16, Revision A.03,

 -----------------------------------------------------------
 # opt freq B3LYP/6-31G(d) empiricaldispersion=gd3bj scf=xqc
 -----------------------------------------------------------

 ------------------------------
 CID_150610023_JID_216_neutraal
 ------------------------------
 Symbolic Z-matrix:
 Charge =  0 Multiplicity = 1

 SCF Done:  E(RB3LYP) =  -499.623425416     A.U. after   14 cycles
 SCF Done:  E(RB3LYP) =  -499.627107488     A.U. after   12 cycles
 SCF Done:  E(RB3LYP) =  -499.627449672     A.U. after   11 cycles
 SCF Done:  E(RB3LYP) =  -499.627649807     A.U. after   11 cycles
 SCF Done:  E(RB3LYP) =  -499.627645476     A.U. after   11 cycles
 SCF Done:  E(RB3LYP) =  -499.627754426     A.U. after   10 cycles
 SCF Done:  E(RB3LYP) =  -499.627758855     A.U. after    8 cycles
 SCF Done:  E(RB3LYP) =  -499.627759328     A.U. after    7 cycles
 SCF Done:  E(RB3LYP) =  -499.627759415     A.U. after    7 cycles
 Optimization completed.
    -- Stationary point found.

 1\1\GINC-NODE125\FOpt\RB3LYP\6-31G(d)\C7H12O3\VSC10255\08-Dec-2020\0\\
 # opt freq B3LYP/6-31G(d) empiricaldispersion=gd3bj scf=xqc\\CID_15061
 0023_JID_216_neutraal\\0,1\C,1.0737782915,-0.1222731185,-0.0492089464\
 C,0.4019881004,1.0849329126,0.609518742\C,0.9122584403,2.4247959021,0.
 0561053116\C,0.1518592165,3.6237179548,0.5396854196\C,0.7757307642,4.6
 560404851,1.1093684545\O,2.1146067863,4.6808223136,1.375818566\C,2.729
 5766255,3.3953842511,1.3614840732\O,2.3334208339,2.5909448877,0.271374
 9873\C,2.5051983911,2.7039537706,2.7101804347\O,3.0719860483,1.4074351

 Normal termination of Gaussian 16 at Tue Dec  8 10:20:06 2020.

 --------------------------------------------------------------------
 #N Geom=AllCheck Guess=TCheck SCRF=Check GenChk RB3LYP/6-31G(d) Freq
 --------------------------------------------------------------------

 Structure from the checkpoint file:  "JID_216.chk"
 ------------------------------
 CID_150610023_JID_216_neutraal
 ------------------------------
 Charge =  0 Multiplicity = 1

 SCF Done:  E(RB3LYP) =  -499.627759415     A.U. after    1 cycles

  Exact polarizability:  94.277   4.668  80.616  -2.139   5.560  62.149
 Approx polarizability: 133.164  12.418 112.575  -1.111   9.477  93.652

                      1                      2                      3
                      A                      A                      A
 Frequencies --     92.0446               107.0498               128.9292
 Red. masses --      4.0287                 5.0908                 2.4272
 Frc consts  --      0.0201                 0.0344                 0.0238
 IR Inten    --      0.1424                 2.3024                 3.6257

                      4                      5                      6
                      A                      A                      A
 Frequencies --    172.5259               213.5610               222.9149
 Red. masses --      1.5209                 1.9465                 3.3636
 Frc consts  --      0.0267                 0.0523                 0.0985
 IR Inten    --      2.4770                 0.6740                 7.9001

                      7                      8                      9
                      A                      A                      A
 Frequencies --    245.3855               333.9263               382.1597
 Red. masses --      1.9996                 3.1415                 1.3843
 Frc consts  --      0.0709                 0.2064                 0.1191
 IR Inten    --      2.3973                 4.1243                69.1245

                     10                     11                     12
                      A                      A                      A
 Frequencies --    413.1075               434.9115               503.1553
 Red. masses --      3.1690                 2.6575                 4.1311
 Frc consts  --      0.3186                 0.2962                 0.6162
 IR Inten    --     10.1407                10.4149                13.0200

                     13                     14                     15
                      A                      A                      A
 Frequencies --    527.1428               607.0171               614.2986
 Red. masses --      4.2481                 4.3507                 3.7698
 Frc consts  --      0.6955                 0.9445                 0.8382
 IR Inten    --     11.4991                 1.0712                 4.6710

                     16                     17                     18
                      A                      A                      A
 Frequencies --    749.4598               757.2376               822.9356
 Red. masses --      1.9776                 1.4070                 1.9653
 Frc consts  --      0.6545                 0.4753                 0.7842
 IR Inten    --     13.0255                17.9004                 6.2620

                     19                     20                     21
                      A                      A                      A
 Frequencies --    887.1334               901.5003               939.0062
 Red. masses --      2.0387                 2.4766                 1.3043
 Frc consts  --      0.9453                 1.1859                 0.6776
 IR Inten    --     19.2489                35.4431                 0.3878

                     22                     23                     24
                      A                      A                      A
 Frequencies --    964.7087              1003.2414              1018.8372
 Red. masses --      2.4352                 3.3627                 2.6126
 Frc consts  --      1.3353                 1.9941                 1.5979
 IR Inten    --      9.3549                22.4021                25.7637

                     25                     26                     27
                      A                      A                      A
 Frequencies --   1048.1091              1078.2793              1097.2043
 Red. masses --      2.5567                 3.2287                 3.0179
 Frc consts  --      1.6548                 2.2117                 2.1406
 IR Inten    --     14.4450                38.9048                94.1717

                     28                     29                     30
                      A                      A                      A
 Frequencies --   1119.9542              1136.7915              1152.3413
 Red. masses --      2.4268                 2.4007                 2.0918
 Frc consts  --      1.7935                 1.8279                 1.6365
 IR Inten    --     26.7297                 0.3483                23.1819

                     31                     32                     33
                      A                      A                      A
 Frequencies --   1190.7134              1239.4870              1278.2085
 Red. masses --      2.0213                 1.3095                 1.6347
 Frc consts  --      1.6885                 1.1854                 1.5735
 IR Inten    --     95.9838                21.6274               122.5962

                     34                     35                     36
                      A                      A                      A
 Frequencies --   1307.5922              1326.4471              1338.9832
 Red. masses --      1.2496                 1.2847                 1.2217
 Frc consts  --      1.2588                 1.3318                 1.2905
 IR Inten    --      8.0587                15.8135                 8.6343

                     37                     38                     39
                      A                      A                      A
 Frequencies --   1378.7675              1387.1089              1404.8711
 Red. masses --      1.2377                 1.2065                 1.3373
 Frc consts  --      1.3862                 1.3677                 1.5551
 IR Inten    --      1.1097                40.3432                 3.2192

                     40                     41                     42
                      A                      A                      A
 Frequencies --   1427.6571              1442.9776              1443.9979
 Red. masses --      1.3449                 1.4759                 1.2868
 Frc consts  --      1.6150                 1.8106                 1.5808
 IR Inten    --      9.1637                 9.4530                 1.8091

                     43                     44                     45
                      A                      A                      A
 Frequencies --   1459.7956              1513.9675              1524.5429
 Red. masses --      1.3578                 1.0733                 1.0409
 Frc consts  --      1.7048                 1.4494                 1.4254
 IR Inten    --     22.8816                 0.9456                 6.3903

                     46                     47                     48
                      A                      A                      A
 Frequencies --   1537.2956              1545.5202              1738.7211
 Red. masses --      1.0640                 1.0847                 6.4822
 Frc consts  --      1.4815                 1.5265                11.5461
 IR Inten    --      4.4375                 6.4255                76.8615

                     49                     50                     51
                      A                      A                      A
 Frequencies --   3019.1607              3031.1533              3050.3721
 Red. masses --      1.0839                 1.0688                 1.0627
 Frc consts  --      5.8212                 5.7860                 5.8261
 IR Inten    --     30.0711                27.5984                14.3026

                     52                     53                     54
                      A                      A                      A
 Frequencies --   3051.1953              3095.2074              3112.0970
 Red. masses --      1.0398                 1.0968                 1.0933
 Frc consts  --      5.7034                 6.1908                 6.2390
 IR Inten    --     33.2759                 4.5227                24.2583

                     55                     56                     57
                      A                      A                      A
 Frequencies --   3117.9868              3127.4312              3132.9494
 Red. masses --      1.1017                 1.1019                 1.0920
 Frc consts  --      6.3107                 6.3500                 6.3152
 IR Inten    --     55.1530                29.6282                49.2441

                     58                     59                     60
                      A                      A                      A
 Frequencies --   3212.5602              3232.6920              3728.3734
 Red. masses --      1.0862                 1.1003                 1.0650
 Frc consts  --      6.6048                 6.7749                 8.7223
 IR Inten    --      2.5257                17.0948                36.3721

 - Thermochemistry -
 -------------------
 Temperature   298.150 Kelvin.  Pressure   1.00000 Atm.
 Atom     1 has atomic number  6 and mass  12.00000

 Molecular mass:   144.07864 amu.
 Principal axes and moments of inertia in atomic units:
                           1         2         3
     Eigenvalues --  1029.967531403.941952048.64411
           X            0.99919   0.03907  -0.00994
           Y           -0.03892   0.99913   0.01474
           Z            0.01050  -0.01435   0.99984
 This molecule is an asymmetric top.
 Rotational symmetry number  1.
 Warning -- assumption of classical behavior for rotation
           may cause significant error
 Rotational temperatures (Kelvin)      0.08409     0.06169     0.04228
 Rotational constants (GHZ):           1.75223     1.28548     0.88094
 Zero-point vibrational energy     496885.1 (Joules/Mol)
                                  118.75839 (Kcal/Mol)
 Warning -- explicit consideration of  15 degrees of freedom as
           vibrations may cause significant error
 Vibrational temperatures:    132.43   154.02   185.50   248.23   307.27
          (Kelvin)            320.72   353.05   480.45   549.84   594.37
                              625.74   723.93   758.44   873.36   883.84
                             1078.31  1089.50  1184.02  1276.39  1297.06
                             1351.02  1388.00  1443.44  1465.88  1508.00
                             1551.40  1578.63  1611.36  1635.59  1657.96
                             1713.17  1783.35  1839.06  1881.33  1908.46
                             1926.50  1983.74  1995.74  2021.30  2054.08
                             2076.12  2077.59  2100.32  2178.26  2193.48
                             2211.83  2223.66  2501.63  4343.90  4361.15
                             4388.81  4389.99  4453.31  4477.61  4486.09
                             4499.68  4507.62  4622.16  4651.12  5364.30

 Zero-point correction=                           0.189254 (Hartree/Particle)
 Thermal correction to Energy=                    0.199234
 Thermal correction to Enthalpy=                  0.200178
 Thermal correction to Gibbs Free Energy=         0.154314
 Sum of electronic and zero-point Energies=           -499.438506
 Sum of electronic and thermal Energies=              -499.428525
 Sum of electronic and thermal Enthalpies=            -499.427581
 Sum of electronic and thermal Free Energies=         -499.473445

                     E (Thermal)             CV                S
                      KCal/Mol        Cal/Mol-Kelvin    Cal/Mol-Kelvin
 Total                  125.021             37.766             96.529
 Electronic               0.000              0.000              0.000
 Translational            0.889              2.981             40.807
 Rotational               0.889              2.981             29.473
 Vibrational            123.244             31.804             26.250
 Vibration     1          0.602              1.955              3.616
 Vibration     2          0.606              1.944              3.322
 Vibration     3          0.611              1.924              2.962
 Vibration     4          0.626              1.876              2.408
 Vibration     5          0.644              1.820              2.013
 Vibration     6          0.649              1.806              1.935
 Vibration     7          0.660              1.770              1.763
 Vibration     8          0.715              1.608              1.241
 Vibration     9          0.752              1.508              1.031
 Vibration    10          0.777              1.442              0.916
 Vibration    11          0.796              1.394              0.843
 Vibration    12          0.858              1.243              0.650
 Vibration    13          0.882              1.190              0.594
 Vibration    14          0.966              1.017              0.438
 Vibration    15          0.974              1.002              0.426

 Optimization completed.
    -- Stationary point found.

 1\1\GINC-NODE125\Freq\RB3LYP\6-31G(d)\C7H12O3\VSC10255\08-Dec-2020\0\\
 #N Geom=AllCheck Guess=TCheck SCRF=Check GenChk RB3LYP/6-31G(d) Freq\\
 CID_150610023_JID_216_neutraal\\0,1\C,1.0737782915,-0.1222731185,-0.04
 92089464\C,0.4019881004,1.0849329126,0.609518742\C,0.9122584403,2.4247
 959021,0.0561053116\C,0.1518592165,3.6237179548,0.5396854196\C,0.77573
 07642,4.6560404851,1.1093684545\O,2.1146067863,4.6808223136,1.37581856
 6\C,2.7295766255,3.3953842511,1.3614840732\O,2.3334208339,2.5909448877
 ,0.2713749873\C,2.5051983911,2.7039537706,2.7101804347\O,3.0719860483,

 Normal termination of Gaussian 16 at Tue Dec  8 10:24:20 2020.

 ----------------------------------------------------------------------
 # B3LYP/6-311++G(d,p) empiricaldispersion=gd3bj scf=xqc pop=npa geom=c
 heck
 ----------------------------------------------------------------------

 --------------------------------------
 CID_150610023_JID_216_Energie_neutraal
 --------------------------------------
 Structure from the checkpoint file:  "JID_216.chk"
 Charge =  0 Multiplicity = 1

 SCF Done:  E(RB3LYP) =  -499.783018188     A.U. after   14 cycles
 Normal termination of Gaussian 16 at Tue Dec  8 10:26:05 2020.

 ----------------------------------------------------------------------
 # B3LYP/6-311++G(d,p) empiricaldispersion=gd3bj scf=xqc pop=npa geom=c
 heck
 ----------------------------------------------------------------------

 ------------------------------------
 CID_150610023_JID_216_Energie_kation
 ------------------------------------
 Structure from the checkpoint file:  "JID_216.chk"
 Charge =  1 Multiplicity = 2

 SCF Done:  E(UB3LYP) =  -499.463975702     A.U. after   20 cycles
 Normal termination of Gaussian 16 at Tue Dec  8 10:29:29 2020.
 Gaussian 16:  ES64L-G16RevA.03 25-Dec-2016

 -----------------------------------
 CID_150610023_JID_216_Energie_anion
 -----------------------------------
 Structure from the checkpoint file:  "JID_216.chk"
 Charge = -1 Multiplicity = 2

                         Standard orientation:
 ---------------------------------------------------------------------
 Center     Atomic      Atomic             Coordinates (Angstroms)
 Number     Number       Type             X           Y           Z
 ---------------------------------------------------------------------
      1          6           0       -2.943278   -0.155594    0.212640
      2          6           0       -1.749447   -0.664594   -0.598689
      3          6           0       -0.564390   -1.083102    0.285825
      4          6           0        0.551964   -1.757995   -0.454274
      5          6           0        1.808377   -1.319251   -0.362765
      6          8           0        2.172352   -0.196688    0.323947
      7          6           0        1.087414    0.681915    0.609797
      8          8           0       -0.067675    0.020260    1.079245
      9          6           0        0.801929    1.559766   -0.613020
     10          8           0       -0.299277    2.414088   -0.368696
     11          1           0       -3.330128   -0.939525    0.874515
     12          1           0       -3.758349    0.166139   -0.443247
     13          1           0       -2.665778    0.693063    0.847794
     14          1           0       -2.049825   -1.540953   -1.188162
     15          1           0       -1.423250    0.094491   -1.318016
     16          1           0       -0.951313   -1.779242    1.043955
     17          1           0        0.328902   -2.652426   -1.025359
     18          1           0        2.665149   -1.807720   -0.814775
     19          1           0        1.414811    1.299842    1.447916
     20          1           0        1.673835    2.191519   -0.805369
     21          1           0        0.645507    0.922578   -1.495092
     22          1           0       -0.948170    1.884080    0.122794
 ---------------------------------------------------------------------

 SCF Done:  E(UB3LYP) =  -499.766562791     A.U. after   30 cycles

 The electronic state is 2-A.
 Alpha  occ. eigenvalues --  -19.05983 -19.04164 -19.03147 -10.18429 -10.13034
 Alpha  occ. eigenvalues --  -10.12437 -10.12349 -10.06693 -10.06185 -10.05750
 Alpha  occ. eigenvalues --   -1.00087  -0.94002  -0.92467  -0.71503  -0.66290
 Alpha  occ. eigenvalues --   -0.63320  -0.58261  -0.55563  -0.50994  -0.44836
 Alpha  occ. eigenvalues --   -0.44009  -0.42498  -0.39022  -0.36721  -0.35576
 Alpha  occ. eigenvalues --   -0.34824  -0.33786  -0.33431  -0.30829  -0.29562
 Alpha  occ. eigenvalues --   -0.27210  -0.26708  -0.26448  -0.24745  -0.24085
 Alpha  occ. eigenvalues --   -0.21370  -0.20086  -0.17594  -0.12982   0.04904
 Alpha virt. eigenvalues --    0.07158   0.07816   0.08720   0.09279   0.10093
 Alpha virt. eigenvalues --    0.10766   0.11110   0.11904   0.12309   0.12924
 Alpha virt. eigenvalues --    0.13793   0.15075   0.15812   0.16810   0.17001

  Beta  occ. eigenvalues --  -19.05980 -19.04155 -19.03137 -10.18422 -10.13018
  Beta  occ. eigenvalues --  -10.12427 -10.12324 -10.06667 -10.06163 -10.05708
  Beta  occ. eigenvalues --   -1.00071  -0.93985  -0.92447  -0.71458  -0.66239
  Beta  occ. eigenvalues --   -0.63284  -0.58200  -0.55530  -0.50909  -0.44790
  Beta  occ. eigenvalues --   -0.43978  -0.42452  -0.38965  -0.36680  -0.35536
  Beta  occ. eigenvalues --   -0.34789  -0.33732  -0.33399  -0.30782  -0.29537
  Beta  occ. eigenvalues --   -0.27160  -0.26664  -0.26408  -0.24710  -0.24043
  Beta  occ. eigenvalues --   -0.21342  -0.20066  -0.17566  -0.12953
  Beta virt. eigenvalues --    0.07359   0.08167   0.08700   0.09179   0.10327
  Beta virt. eigenvalues --    0.10595   0.11200   0.11488   0.12300   0.12730
  Beta virt. eigenvalues --    0.13528   0.14225   0.15109   0.15927   0.16814

 Mulliken charges and spin densities:
               1          2
     1  C    1.806720  -2.388952
     2  C   -0.916476   0.650794
     3  C    1.425281  -1.193743
     4  C   -0.673860   0.364112
     5  C    1.301840  -1.352789
     6  O   -0.094046   0.011910
     7  C   -0.475965  -0.003285
     8  O   -0.172336   0.006543
     9  C    0.314826  -0.562986
    10  O   -0.257283   0.034969
    11  H   -0.259245   0.410771
    12  H   -0.401767   0.545340
    13  H   -0.154376   0.276413
    14  H   -0.652741   0.823838
    15  H    0.202369  -0.042683
    16  H   -0.391949   0.618826
    17  H   -0.905218   1.085161
    18  H   -0.954029   1.150275
    19  H   -0.082721   0.305627
    20  H    0.123098   0.047706
    21  H    0.003307   0.191398
    22  H    0.214573   0.020755
 Sum of Mulliken charges =  -1.00000   1.00000

 Dipole moment (field-independent basis, Debye):
    X=              2.4166    Y=              6.1979    Z=              1.8828  Tot=              6.9137
 Quadrupole moment (field-independent basis, Debye-Ang):
   XX=           -117.6688   YY=           -114.9415   ZZ=            -91.0941
   XY=              1.3847   XZ=              1.6260   YZ=             -6.2599

 Summary of Natural Population Analysis:

                                       Natural Population
                Natural  -----------------------------------------------
    Atom  No    Charge         Core      Valence    Rydberg      Total
 -----------------------------------------------------------------------
      C    1   -0.28647      0.99966     2.28054    0.00626     3.28647
      C    2   -0.20320      0.99961     2.19384    0.00976     3.20320
      C    3    0.05111      0.99951     1.93218    0.01720     2.94889
      C    4   -0.16139      0.99952     2.15052    0.01135     3.16139
      C    5    0.07882      0.99942     1.90560    0.01616     2.92118
      O    6   -0.28372      0.99987     3.27365    0.01020     4.28372
      C    7    0.21170      0.99957     1.77067    0.01806     2.78830
      O    8   -0.30914      0.99988     3.29980    0.00946     4.30914
      C    9   -0.03298      0.99958     2.02152    0.01189     3.03298
      O   10   -0.36997      0.99990     3.36316    0.00691     4.36997
      H   11    0.10131      0.00000     0.39700    0.00169     0.39869
      H   12    0.10170      0.00000     0.39706    0.00125     0.39830
      H   13    0.09295      0.00000     0.40555    0.00149     0.40705
      H   14    0.10682      0.00000     0.39021    0.00298     0.39318
      H   15    0.09530      0.00000     0.40289    0.00181     0.40470
      H   16    0.10007      0.00000     0.39785    0.00209     0.39993
      H   17    0.11627      0.00000     0.37881    0.00492     0.38373
      H   18    0.09590      0.00000     0.40128    0.00283     0.40410
      H   19    0.08794      0.00000     0.41067    0.00140     0.41206
      H   20    0.08908      0.00000     0.40956    0.00137     0.41092
      H   21    0.08384      0.00000     0.41440    0.00177     0.41616
      H   22    0.23407      0.00000     0.26233    0.00359     0.26593
 =======================================================================
   * Total *   -0.00000      9.99652    28.85907    0.14441    39.00000

 Normal termination of Gaussian 16 at Tue Dec  8 10:37:26 2020.
