 Gaussian 16, Revision A.03,

 -----------------------------------------------------------
 # opt freq B3LYP/6-31G(d) empiricaldispersion=gd3bj scf=xqc
 -----------------------------------------------------------

 ------------------------------
 CID_65757844_JID_8388_neutraal
 ------------------------------
 Symbolic Z-matrix:
 Charge =  0 Multiplicity = 1

 SCF Done:  E(RB3LYP) =  -1182.80331274     A.U. after   15 cycles
 SCF Done:  E(RB3LYP) =  -1182.80959890     A.U. after   12 cycles
 SCF Done:  E(RB3LYP) =  -1182.80923754     A.U. after   14 cycles
 SCF Done:  E(RB3LYP) =  -1182.81097228     A.U. after   12 cycles
 SCF Done:  E(RB3LYP) =  -1182.81168356     A.U. after   12 cycles
 SCF Done:  E(RB3LYP) =  -1182.81196338     A.U. after   12 cycles
 SCF Done:  E(RB3LYP) =  -1182.81223892     A.U. after   12 cycles
 SCF Done:  E(RB3LYP) =  -1182.81246243     A.U. after   12 cycles
 SCF Done:  E(RB3LYP) =  -1182.81259356     A.U. after   11 cycles
 SCF Done:  E(RB3LYP) =  -1182.81266278     A.U. after   10 cycles
 SCF Done:  E(RB3LYP) =  -1182.81303254     A.U. after    8 cycles
 SCF Done:  E(RB3LYP) =  -1182.81303442     A.U. after   10 cycles
 SCF Done:  E(RB3LYP) =  -1182.81303466     A.U. after    9 cycles
 SCF Done:  E(RB3LYP) =  -1182.81303487     A.U. after    8 cycles
 SCF Done:  E(RB3LYP) =  -1182.81303490     A.U. after    7 cycles
 Optimization completed on the basis of negligible forces.
    -- Stationary point found.
 Normal termination of Gaussian 16 at Fri Dec 11 20:35:54 2020.

 --------------------------------------------------------------------
 #N Geom=AllCheck Guess=TCheck SCRF=Check GenChk RB3LYP/6-31G(d) Freq
 --------------------------------------------------------------------

 Structure from the checkpoint file:  "JID_8388.chk"
 ------------------------------
 CID_65757844_JID_8388_neutraal
 ------------------------------
 Charge =  0 Multiplicity = 1

 SCF Done:  E(RB3LYP) =  -1182.81303490     A.U. after    1 cycles

  Exact polarizability: 203.072   9.231 153.182   8.063 -14.936 134.628
 Approx polarizability: 263.016  11.538 228.543   9.139 -38.064 233.770

                      1                      2                      3
                      A                      A                      A
 Frequencies --     19.7967                22.8396                33.3659
 Red. masses --      4.3848                 4.2030                 3.1225
 Frc consts  --      0.0010                 0.0013                 0.0020
 IR Inten    --      1.2800                 0.4744                 1.3597

                      4                      5                      6
                      A                      A                      A
 Frequencies --     51.5474                62.6885                75.5699
 Red. masses --      3.3922                 5.2009                 4.8429
 Frc consts  --      0.0053                 0.0120                 0.0163
 IR Inten    --      0.3307                 0.7483                 1.4431

                      7                      8                      9
                      A                      A                      A
 Frequencies --    115.5927               139.0949               158.9198
 Red. masses --      3.1019                 3.3563                 3.9006
 Frc consts  --      0.0244                 0.0383                 0.0580
 IR Inten    --      0.3707                 1.4223                 1.6826

                     10                     11                     12
                      A                      A                      A
 Frequencies --    189.4911               202.5953               208.6343
 Red. masses --      3.4076                 1.9265                 2.0165
 Frc consts  --      0.0721                 0.0466                 0.0517
 IR Inten    --      1.1069                 1.3422                 3.2552

                     13                     14                     15
                      A                      A                      A
 Frequencies --    218.7378               245.1243               257.9512
 Red. masses --      1.6375                 1.8385                 2.8740
 Frc consts  --      0.0462                 0.0651                 0.1127
 IR Inten    --      2.9893                 0.4471                 1.6104

                     16                     17                     18
                      A                      A                      A
 Frequencies --    277.7394               294.4651               315.8691
 Red. masses --      3.1397                 3.3958                 1.9120
 Frc consts  --      0.1427                 0.1735                 0.1124
 IR Inten    --      6.0403                 1.1550                 1.9917

                     19                     20                     21
                      A                      A                      A
 Frequencies --    353.6321               368.9619               393.4775
 Red. masses --      2.8048                 2.7977                 3.4504
 Frc consts  --      0.2067                 0.2244                 0.3147
 IR Inten    --      3.7518                 4.9316                 1.7756

                     22                     23                     24
                      A                      A                      A
 Frequencies --    417.2521               447.1618               459.6805
 Red. masses --      3.4285                 2.5979                 4.6613
 Frc consts  --      0.3517                 0.3061                 0.5803
 IR Inten    --      2.9849                11.2504                24.8611

                     25                     26                     27
                      A                      A                      A
 Frequencies --    474.7228               475.9226               512.5589
 Red. masses --      3.9949                 3.2091                 2.9649
 Frc consts  --      0.5304                 0.4283                 0.4589
 IR Inten    --     27.1091                12.0486                 5.6956

                     28                     29                     30
                      A                      A                      A
 Frequencies --    565.6927               605.3235               642.6168
 Red. masses --      3.3769                 5.6208                 6.7012
 Frc consts  --      0.6367                 1.2135                 1.6305
 IR Inten    --     19.2165                24.1823                 4.8278

                     31                     32                     33
                      A                      A                      A
 Frequencies --    672.9207               741.1864               748.5531
 Red. masses --      4.3512                 2.9736                 1.7453
 Frc consts  --      1.1609                 0.9625                 0.5762
 IR Inten    --      7.1049                83.4184                29.0988

                     34                     35                     36
                      A                      A                      A
 Frequencies --    759.6283               767.5588               806.6695
 Red. masses --      4.1178                 1.2524                 1.2274
 Frc consts  --      1.4000                 0.4347                 0.4706
 IR Inten    --    103.2667                24.7251                15.4802

                     37                     38                     39
                      A                      A                      A
 Frequencies --    836.5303               881.9348               897.4812
 Red. masses --      4.7398                 2.3895                 2.0360
 Frc consts  --      1.9542                 1.0950                 0.9662
 IR Inten    --      3.0058                 7.7977                11.4718

                     40                     41                     42
                      A                      A                      A
 Frequencies --    899.5050               934.7725               943.2158
 Red. masses --      1.3013                 1.4666                 2.6394
 Frc consts  --      0.6204                 0.7551                 1.3835
 IR Inten    --      3.5794                 1.6126                93.4883

                     43                     44                     45
                      A                      A                      A
 Frequencies --    959.1716               976.1340               987.4299
 Red. masses --      1.7525                 1.4781                 1.6094
 Frc consts  --      0.9499                 0.8298                 0.9246
 IR Inten    --     26.2531                12.0337                10.1828

                     46                     47                     48
                      A                      A                      A
 Frequencies --   1002.2008              1014.9735              1022.2086
 Red. masses --      1.3081                 4.5532                 2.5353
 Frc consts  --      0.7741                 2.7636                 1.5608
 IR Inten    --      3.2575                35.3043                30.1190

                     49                     50                     51
                      A                      A                      A
 Frequencies --   1052.9396              1078.2160              1090.6716
 Red. masses --      1.6892                 2.2818                 2.5629
 Frc consts  --      1.1034                 1.5629                 1.7963
 IR Inten    --      5.4019                 2.2301                 2.1992

                     52                     53                     54
                      A                      A                      A
 Frequencies --   1108.7280              1129.4040              1137.7028
 Red. masses --      7.2928                 1.5181                 1.7501
 Frc consts  --      5.2820                 1.1409                 1.3346
 IR Inten    --    104.5290                 1.2245                15.7629

                     55                     56                     57
                      A                      A                      A
 Frequencies --   1139.8887              1161.1141              1180.1997
 Red. masses --      1.7422                 1.6092                 2.1302
 Frc consts  --      1.3337                 1.2783                 1.7482
 IR Inten    --      6.5252                42.6063                 3.6455

                     58                     59                     60
                      A                      A                      A
 Frequencies --   1183.1404              1184.9243              1232.9192
 Red. masses --      1.7184                 1.1621                 2.3109
 Frc consts  --      1.4173                 0.9614                 2.0696
 IR Inten    --     32.4454                 2.8598                 8.0457

                     61                     62                     63
                      A                      A                      A
 Frequencies --   1243.9555              1266.6676              1278.1536
 Red. masses --      1.5625                 2.4362                 1.3515
 Frc consts  --      1.4246                 2.3029                 1.3009
 IR Inten    --      1.4379                 6.0120                23.2158

                     64                     65                     66
                      A                      A                      A
 Frequencies --   1295.4425              1310.9055              1318.5800
 Red. masses --      1.3169                 4.1383                 2.3958
 Frc consts  --      1.3021                 4.1900                 2.4542
 IR Inten    --      7.0764                 4.8211               101.6336

                     67                     68                     69
                      A                      A                      A
 Frequencies --   1327.2200              1331.5739              1355.8465
 Red. masses --      1.6866                 1.6019                 1.2880
 Frc consts  --      1.7505                 1.6735                 1.3951
 IR Inten    --      4.4915                63.2196                12.1542

                     70                     71                     72
                      A                      A                      A
 Frequencies --   1365.2502              1398.0248              1406.4116
 Red. masses --      1.3676                 1.3770                 1.4028
 Frc consts  --      1.5019                 1.5857                 1.6348
 IR Inten    --     15.4130                12.7330                37.1508

                     73                     74                     75
                      A                      A                      A
 Frequencies --   1410.9756              1428.5055              1443.8026
 Red. masses --      1.3218                 1.4055                 1.2574
 Frc consts  --      1.5504                 1.6898                 1.5443
 IR Inten    --      3.5255                19.8878                 4.3462

                     76                     77                     78
                      A                      A                      A
 Frequencies --   1469.9320              1481.3536              1483.5450
 Red. masses --      1.1970                 1.8112                 1.0950
 Frc consts  --      1.5239                 2.3418                 1.4199
 IR Inten    --      0.8697                27.4237                 8.9399

                     79                     80                     81
                      A                      A                      A
 Frequencies --   1489.9207              1506.8940              1516.1234
 Red. masses --      1.1713                 1.1297                 1.0863
 Frc consts  --      1.5319                 1.5113                 1.4712
 IR Inten    --      0.3179                 2.1745                 2.5265

                     82                     83                     84
                      A                      A                      A
 Frequencies --   1518.4496              1523.8154              1527.3591
 Red. masses --      1.0902                 1.0607                 2.0390
 Frc consts  --      1.4809                 1.4511                 2.8025
 IR Inten    --     23.8495                 8.0242                13.9283

                     85                     86                     87
                      A                      A                      A
 Frequencies --   1530.1727              1534.5929              1541.7866
 Red. masses --      1.1829                 1.0575                 1.0604
 Frc consts  --      1.6319                 1.4673                 1.4852
 IR Inten    --      9.7677                14.4905                 4.2572

                     88                     89                     90
                      A                      A                      A
 Frequencies --   1548.3120              1635.8621              1651.6475
 Red. masses --      1.0866                 5.9523                 5.5152
 Frc consts  --      1.5348                 9.3849                 8.8643
 IR Inten    --      1.0411                11.9864                44.7439

                     91                     92                     93
                      A                      A                      A
 Frequencies --   2925.9315              2931.1927              3022.2773
 Red. masses --      1.0745                 1.0732                 1.0680
 Frc consts  --      5.4197                 5.4328                 5.7476
 IR Inten    --     42.9348               148.3252                32.1417

                     94                     95                     96
                      A                      A                      A
 Frequencies --   3052.3153              3053.0861              3059.6395
 Red. masses --      1.0411                 1.0648                 1.0860
 Frc consts  --      5.7149                 5.8481                 5.9896
 IR Inten    --     20.0026                19.0030                29.6027

                     97                     98                     99
                      A                      A                      A
 Frequencies --   3069.0180              3073.5576              3094.7397
 Red. masses --      1.0362                 1.0932                 1.0613
 Frc consts  --      5.7501                 6.0845                 5.9890
 IR Inten    --     45.8757                36.9493                 4.3792

                    100                    101                    102
                      A                      A                      A
 Frequencies --   3110.6015              3113.7579              3120.0495
 Red. masses --      1.0881                 1.1020                 1.0946
 Frc consts  --      6.2031                 6.2950                 6.2783
 IR Inten    --      6.5620                55.9649                 2.3952

                    103                    104                    105
                      A                      A                      A
 Frequencies --   3136.3596              3140.6996              3153.4242
 Red. masses --      1.1049                 1.1003                 1.1037
 Frc consts  --      6.4034                 6.3945                 6.4666
 IR Inten    --     26.7779                22.6405                 7.0867

                    106                    107                    108
                      A                      A                      A
 Frequencies --   3179.0620              3185.3663              3188.6880
 Red. masses --      1.0883                 1.0883                 1.1017
 Frc consts  --      6.4804                 6.5062                 6.5999
 IR Inten    --     18.9002                 2.0339                 0.5942

                    109                    110                    111
                      A                      A                      A
 Frequencies --   3200.5851              3217.1730              3488.0129
 Red. masses --      1.0929                 1.0974                 1.0740
 Frc consts  --      6.5964                 6.6919                 7.6988
 IR Inten    --     23.9327                23.5762                 0.0846

 - Thermochemistry -
 -------------------
 Temperature   298.150 Kelvin.  Pressure   1.00000 Atm.
 Atom     1 has atomic number  6 and mass  12.00000

 Molecular mass:   271.13545 amu.
 Principal axes and moments of inertia in atomic units:
                           1         2         3
     Eigenvalues --  2658.125128174.837279648.74303
           X            0.99996  -0.00912   0.00106
           Y            0.00911   0.99996   0.00259
           Z           -0.00108  -0.00258   1.00000
 This molecule is an asymmetric top.
 Rotational symmetry number  1.
 Warning -- assumption of classical behavior for rotation
           may cause significant error
 Rotational temperatures (Kelvin)      0.03258     0.01060     0.00898
 Rotational constants (GHZ):           0.67895     0.22077     0.18704
 Zero-point vibrational energy     878032.5 (Joules/Mol)
                                  209.85480 (Kcal/Mol)
 Warning -- explicit consideration of  29 degrees of freedom as
           vibrations may cause significant error
 Vibrational temperatures:     28.48    32.86    48.01    74.17    90.19
          (Kelvin)            108.73   166.31   200.13   228.65   272.64
                              291.49   300.18   314.71   352.68   371.13
                              399.61   423.67   454.47   508.80   530.85
                              566.13   600.33   643.37   661.38   683.02
                              684.75   737.46   813.91   870.93   924.58
                              968.18  1066.40  1077.00  1092.94  1104.35
                             1160.62  1203.58  1268.91  1291.28  1294.19
                             1344.93  1357.08  1380.03  1404.44  1420.69
                             1441.94  1460.32  1470.73  1514.95  1551.31
                             1569.23  1595.21  1624.96  1636.90  1640.05
                             1670.58  1698.04  1702.28  1704.84  1773.90
                             1789.77  1822.45  1838.98  1863.85  1886.10
                             1897.14  1909.57  1915.84  1950.76  1964.29
                             2011.45  2023.51  2030.08  2055.30  2077.31
                             2114.90  2131.34  2134.49  2143.66  2168.08
                             2181.36  2184.71  2192.43  2197.53  2201.58
                             2207.94  2218.29  2227.68  2353.64  2376.35
                             4209.76  4217.33  4348.38  4391.60  4392.71
                             4402.14  4415.63  4422.16  4452.64  4475.46
                             4480.00  4489.06  4512.52  4518.77  4537.07
                             4573.96  4583.03  4587.81  4604.93  4628.79
                             5018.47

 Zero-point correction=                           0.334425 (Hartree/Particle)
 Thermal correction to Energy=                    0.353399
 Thermal correction to Enthalpy=                  0.354343
 Thermal correction to Gibbs Free Energy=         0.284937
 Sum of electronic and zero-point Energies=          -1182.478610
 Sum of electronic and thermal Energies=             -1182.459636
 Sum of electronic and thermal Enthalpies=           -1182.458692
 Sum of electronic and thermal Free Energies=        -1182.528098

                     E (Thermal)             CV                S
                      KCal/Mol        Cal/Mol-Kelvin    Cal/Mol-Kelvin
 Total                  221.761             70.831            146.077
 Electronic               0.000              0.000              0.000
 Translational            0.889              2.981             42.691
 Rotational               0.889              2.981             33.705
 Vibrational            219.984             64.870             69.681
 Vibration     1          0.593              1.986              6.654
 Vibration     2          0.593              1.985              6.371
 Vibration     3          0.594              1.983              5.619
 Vibration     4          0.596              1.977              4.757
 Vibration     5          0.597              1.972              4.371
 Vibration     6          0.599              1.965              4.003
 Vibration     7          0.608              1.936              3.173
 Vibration     8          0.615              1.914              2.816
 Vibration     9          0.621              1.893              2.563
 Vibration    10          0.633              1.854              2.233
 Vibration    11          0.639              1.836              2.109
 Vibration    12          0.642              1.828              2.056
 Vibration    13          0.647              1.813              1.970
 Vibration    14          0.660              1.771              1.765
 Vibration    15          0.667              1.749              1.676
 Vibration    16          0.679              1.715              1.548
 Vibration    17          0.689              1.684              1.448
 Vibration    18          0.703              1.643              1.331
 Vibration    19          0.730              1.568              1.150
 Vibration    20          0.741              1.536              1.084
 Vibration    21          0.761              1.484              0.987
 Vibration    22          0.780              1.433              0.901
 Vibration    23          0.806              1.367              0.804
 Vibration    24          0.818              1.339              0.767
 Vibration    25          0.831              1.306              0.724
 Vibration    26          0.833              1.303              0.721
 Vibration    27          0.868              1.222              0.627
 Vibration    28          0.922              1.105              0.513
 Vibration    29          0.964              1.021              0.441

 Optimization completed on the basis of negligible forces.
    -- Stationary point found.
 Normal termination of Gaussian 16 at Fri Dec 11 20:54:08 2020.

 ----------------------------------------------------------------------
 # B3LYP/6-311++G(d,p) empiricaldispersion=gd3bj scf=xqc pop=npa geom=c
 heck
 ----------------------------------------------------------------------

 --------------------------------------
 CID_65757844_JID_8388_Energie_neutraal
 --------------------------------------
 Structure from the checkpoint file:  "JID_8388.chk"
 Charge =  0 Multiplicity = 1

 SCF Done:  E(RB3LYP) =  -1183.06025164     A.U. after   15 cycles
 Normal termination of Gaussian 16 at Fri Dec 11 21:03:00 2020.

 ----------------------------------------------------------------------
 # B3LYP/6-311++G(d,p) empiricaldispersion=gd3bj scf=xqc pop=npa geom=c
 heck
 ----------------------------------------------------------------------

 ------------------------------------
 CID_65757844_JID_8388_Energie_kation
 ------------------------------------
 Structure from the checkpoint file:  "JID_8388.chk"
 Charge =  1 Multiplicity = 2

 SCF Done:  E(UB3LYP) =  -1182.75792890     A.U. after   30 cycles
 Normal termination of Gaussian 16 at Fri Dec 11 21:28:01 2020.
 Gaussian 16:  ES64L-G16RevA.03 25-Dec-2016

 ----------------------------------------------------------------------
 # B3LYP/6-311++G(d,p) empiricaldispersion=gd3bj scf=xqc pop=npa geom=c
 heck
 ----------------------------------------------------------------------

 -----------------------------------
 CID_65757844_JID_8388_Energie_anion
 -----------------------------------
 Structure from the checkpoint file:  "JID_8388.chk"
 Charge = -1 Multiplicity = 2

                         Standard orientation:
 ---------------------------------------------------------------------
 Center     Atomic      Atomic             Coordinates (Angstroms)
 Number     Number       Type             X           Y           Z
 ---------------------------------------------------------------------
      1          6           0       -3.207391    2.877662    0.552262
      2          6           0       -4.246432    2.001616   -0.150946
      3          6           0       -3.708047    0.645561   -0.609880
      4          7           0       -3.242249   -0.164467    0.515813
      5          6           0       -3.036681   -1.571207    0.191598
      6          6           0       -1.882578   -1.820504   -0.772336
      7         16           0       -0.213466   -1.521601   -0.110191
      8          8           0       -0.217179   -1.977802    1.283810
      9          8           0        0.688710   -2.096987   -1.116816
     10          7           0       -0.039554    0.167367   -0.171610
     11          6           0       -0.197962    0.863318    1.112288
     12          6           0        1.021926    0.667850   -1.039879
     13          6           0        2.423632    0.639706   -0.450293
     14          6           0        3.422234    1.479398   -0.955411
     15          6           0        4.707840    1.384813   -0.429887
     16          6           0        4.950764    0.464101    0.589322
     17          6           0        3.885930   -0.316985    1.036082
     18          7           0        2.650243   -0.236859    0.532400
     19          1           0       -2.837064    2.401342    1.464001
     20          1           0       -3.631263    3.851226    0.821925
     21          1           0       -2.343913    3.053617   -0.100226
     22          1           0       -5.107992    1.839132    0.513923
     23          1           0       -4.639394    2.525737   -1.031297
     24          1           0       -4.491673    0.123962   -1.193598
     25          1           0       -2.859956    0.808532   -1.286797
     26          1           0       -3.927978   -0.109559    1.266891
     27          1           0       -2.829206   -2.111137    1.120230
     28          1           0       -3.932588   -2.030347   -0.271193
     29          1           0       -1.854423   -2.880588   -1.042761
     30          1           0       -1.955364   -1.239790   -1.694449
     31          1           0        0.626069    0.653065    1.799457
     32          1           0       -0.233553    1.935043    0.894692
     33          1           0       -1.151377    0.571330    1.549638
     34          1           0        1.017025    0.077212   -1.959798
     35          1           0        0.757490    1.697191   -1.312439
     36          1           0        3.193241    2.188313   -1.746761
     37          1           0        5.505134    2.020380   -0.805296
     38          1           0        5.936094    0.357066    1.031870
     39          1           0        4.025407   -1.042068    1.835353
 ---------------------------------------------------------------------

 SCF Done:  E(UB3LYP) =  -1183.05149201     A.U. after   33 cycles
 SCF Done:  E(UB3LYP) =  -1183.05149201     a.u. after    1 cycles

 The electronic state is 2-A.
 Alpha  occ. eigenvalues --  -88.95613 -19.01310 -19.01124 -14.24364 -14.20961
 Alpha  occ. eigenvalues --  -14.19857 -10.11463 -10.11451 -10.11347 -10.11252
 Alpha  occ. eigenvalues --  -10.10284 -10.09715 -10.08957 -10.08595 -10.08302
 Alpha  occ. eigenvalues --  -10.07908 -10.07424 -10.06330  -8.01796  -5.98084
 Alpha  occ. eigenvalues --   -5.98052  -5.97859  -1.01229  -0.90510  -0.85158
 Alpha  occ. eigenvalues --   -0.82767  -0.82193  -0.70454  -0.70219  -0.68231
 Alpha  occ. eigenvalues --   -0.66917  -0.61778  -0.60562  -0.58143  -0.54136
 Alpha  occ. eigenvalues --   -0.53295  -0.51678  -0.49583  -0.46606  -0.43166
 Alpha  occ. eigenvalues --   -0.42214  -0.40923  -0.39932  -0.39284  -0.38030
 Alpha  occ. eigenvalues --   -0.37284  -0.36600  -0.35832  -0.34830  -0.34124
 Alpha  occ. eigenvalues --   -0.33664  -0.33052  -0.32201  -0.31575  -0.30706
 Alpha  occ. eigenvalues --   -0.30177  -0.29870  -0.29195  -0.28110  -0.27275
 Alpha  occ. eigenvalues --   -0.27004  -0.25800  -0.24620  -0.24342  -0.24040
 Alpha  occ. eigenvalues --   -0.21838  -0.20518  -0.20156  -0.19086  -0.16401
 Alpha  occ. eigenvalues --   -0.16047  -0.14965  -0.14243   0.03988
 Alpha virt. eigenvalues --    0.05263   0.06040   0.06581   0.07055   0.07386
 Alpha virt. eigenvalues --    0.07695   0.08108   0.08861   0.09767   0.09872
 Alpha virt. eigenvalues --    0.10017   0.10197   0.11353   0.11831   0.12311

  Beta  occ. eigenvalues --  -88.95612 -19.01309 -19.01121 -14.24365 -14.20945
  Beta  occ. eigenvalues --  -14.19697 -10.11452 -10.11434 -10.11364 -10.11246
  Beta  occ. eigenvalues --  -10.10212 -10.09694 -10.08952 -10.08446 -10.08326
  Beta  occ. eigenvalues --  -10.07854 -10.07394 -10.06309  -8.01795  -5.98082
  Beta  occ. eigenvalues --   -5.98051  -5.97858  -1.01226  -0.90507  -0.85017
  Beta  occ. eigenvalues --   -0.82685  -0.82159  -0.70289  -0.70106  -0.68146
  Beta  occ. eigenvalues --   -0.66873  -0.61725  -0.60531  -0.58101  -0.54039
  Beta  occ. eigenvalues --   -0.53123  -0.51580  -0.49501  -0.46552  -0.43127
  Beta  occ. eigenvalues --   -0.42170  -0.40883  -0.39901  -0.39222  -0.37975
  Beta  occ. eigenvalues --   -0.37220  -0.36561  -0.35783  -0.34786  -0.34065
  Beta  occ. eigenvalues --   -0.33641  -0.33003  -0.32115  -0.31536  -0.30637
  Beta  occ. eigenvalues --   -0.30123  -0.29802  -0.29122  -0.27830  -0.27244
  Beta  occ. eigenvalues --   -0.26942  -0.25751  -0.24611  -0.24284  -0.24009
  Beta  occ. eigenvalues --   -0.21828  -0.20504  -0.20103  -0.18331  -0.16248
  Beta  occ. eigenvalues --   -0.15797  -0.14880  -0.14204
  Beta virt. eigenvalues --    0.06013   0.06340   0.07049   0.07093   0.07369
  Beta virt. eigenvalues --    0.07633   0.07985   0.08352   0.09174   0.09984
  Beta virt. eigenvalues --    0.10093   0.10219   0.10393   0.11560   0.11958

 Mulliken charges and spin densities:
               1          2
     1  C    0.097814  -0.491711
     2  C    0.591717  -1.094128
     3  C   -0.050008  -0.048672
     4  N   -0.211927   0.074432
     5  C    0.644386  -0.891739
     6  C   -1.002503   0.435678
     7  S    0.170723  -0.079991
     8  O   -0.117930   0.002915
     9  O   -0.170880   0.005088
    10  N   -0.003095   0.082292
    11  C   -0.286365  -0.213426
    12  C    0.242679  -1.186281
    13  C   -0.201704   0.374378
    14  C   -0.363344   0.536894
    15  C    0.034854  -0.449504
    16  C    0.029128  -0.160286
    17  C   -0.301053   0.211685
    18  N    0.135767   0.089725
    19  H    0.068851   0.047458
    20  H   -0.265773   0.428598
    21  H   -0.000326   0.115460
    22  H   -0.324165   0.473612
    23  H   -0.286759   0.436300
    24  H   -0.390309   0.540517
    25  H    0.236876  -0.113586
    26  H    0.182090   0.090222
    27  H    0.162516   0.043872
    28  H   -0.300871   0.438623
    29  H    0.108291   0.116744
    30  H    0.092220   0.143941
    31  H    0.204505  -0.027596
    32  H   -0.019727   0.140718
    33  H    0.189755   0.024635
    34  H    0.213505   0.014676
    35  H   -0.014646   0.162691
    36  H   -0.175302   0.355135
    37  H   -0.099701   0.251700
    38  H    0.051022   0.096603
    39  H    0.129687   0.022325
 Sum of Mulliken charges =  -1.00000   1.00000

 Dipole moment (field-independent basis, Debye):
    X=              3.9754    Y=             -1.3608    Z=              0.4389  Tot=              4.2248
 Quadrupole moment (field-independent basis, Debye-Ang):
   XX=           -212.0580   YY=           -164.5986   ZZ=           -144.0451
   XY=             11.8583   XZ=              0.1054   YZ=              1.0613

 Summary of Natural Population Analysis:

                                       Natural Population
                Natural  -----------------------------------------------
    Atom  No    Charge         Core      Valence    Rydberg      Total
 -----------------------------------------------------------------------
      C    1   -0.28614      0.99966     2.28035    0.00613     3.28614
      C    2   -0.19122      0.99964     2.18335    0.00823     3.19122
      C    3   -0.08771      0.99962     2.07604    0.01204     3.08771
      N    4   -0.34351      0.99974     2.83127    0.01251     3.84351
      C    5   -0.09489      0.99961     2.08262    0.01266     3.09489
      C    6   -0.29038      0.99956     2.27856    0.01226     3.29038
      S    7    1.10546      4.99923     1.79647    0.09884     6.89454
      O    8   -0.46195      0.99991     3.45681    0.00523     4.46195
      O    9   -0.46765      0.99991     3.46238    0.00536     4.46765
      N   10   -0.36822      0.99974     2.85481    0.01366     3.86822
      C   11   -0.18533      0.99963     2.17691    0.00879     3.18533
      C   12   -0.09987      0.99956     2.08726    0.01305     3.09987
      C   13    0.10007      0.99953     1.88646    0.01394     2.89993
      C   14   -0.11669      0.99951     2.10841    0.00877     3.11669
      C   15   -0.06053      0.99957     2.05014    0.01082     3.06053
      C   16   -0.13533      0.99956     2.12718    0.00858     3.13533
      C   17    0.04197      0.99959     1.94470    0.01373     2.95803
      N   18   -0.22203      0.99967     2.71098    0.01138     3.72203
      H   19    0.09902      0.00000     0.39976    0.00122     0.40098
      H   20    0.09752      0.00000     0.40159    0.00089     0.40248
      H   21    0.09631      0.00000     0.40252    0.00117     0.40369
      H   22    0.09274      0.00000     0.40552    0.00174     0.40726
      H   23    0.09911      0.00000     0.39954    0.00136     0.40089
      H   24    0.08235      0.00000     0.41539    0.00226     0.41765
      H   25    0.09006      0.00000     0.40800    0.00194     0.40994
      H   26    0.17377      0.00000     0.32356    0.00267     0.32623
      H   27    0.10545      0.00000     0.39334    0.00121     0.39455
      H   28    0.08537      0.00000     0.41282    0.00181     0.41463
      H   29    0.11536      0.00000     0.38365    0.00099     0.38464
      H   30    0.11353      0.00000     0.38511    0.00137     0.38647
      H   31    0.10070      0.00000     0.39814    0.00115     0.39930
      H   32    0.09544      0.00000     0.40355    0.00101     0.40456
      H   33    0.11376      0.00000     0.38505    0.00119     0.38624
      H   34    0.11639      0.00000     0.38252    0.00109     0.38361
      H   35    0.10173      0.00000     0.39712    0.00115     0.39827
      H   36    0.10081      0.00000     0.39816    0.00103     0.39919
      H   37    0.09730      0.00000     0.40188    0.00082     0.40270
      H   38    0.09957      0.00000     0.39964    0.00079     0.40043
      H   39    0.08765      0.00000     0.41138    0.00098     0.41235
 =======================================================================
   * Total *   -0.00000     21.99325    50.70293    0.30382    73.00000

 Normal termination of Gaussian 16 at Fri Dec 11 21:55:42 2020.
