 Gaussian 16, Revision A.03,

 -----------------------------------------------------------
 # opt freq B3LYP/6-31G(d) empiricaldispersion=gd3bj scf=xqc
 -----------------------------------------------------------

 -------------------------------
 CID_51325227_JID_10406_neutraal
 -------------------------------
 Symbolic Z-matrix:
 Charge =  0 Multiplicity = 1

 SCF Done:  E(RB3LYP) =  -1271.36544394     A.U. after   16 cycles
 SCF Done:  E(RB3LYP) =  -1271.37102640     A.U. after   14 cycles
 SCF Done:  E(RB3LYP) =  -1271.36367700     A.U. after   17 cycles
 SCF Done:  E(RB3LYP) =  -1271.37242283     A.U. after   14 cycles
 SCF Done:  E(RB3LYP) =  -1271.37340008     A.U. after   14 cycles
 SCF Done:  E(RB3LYP) =  -1271.37359790     A.U. after   17 cycles
 SCF Done:  E(RB3LYP) =  -1271.37408609     A.U. after   15 cycles
 SCF Done:  E(RB3LYP) =  -1271.37428075     A.U. after   14 cycles
 SCF Done:  E(RB3LYP) =  -1271.37481077     A.U. after   13 cycles
 SCF Done:  E(RB3LYP) =  -1271.37489885     A.U. after   13 cycles
 SCF Done:  E(RB3LYP) =  -1271.38460507     A.U. after   13 cycles
 SCF Done:  E(RB3LYP) =  -1271.38461437     A.U. after   11 cycles
 SCF Done:  E(RB3LYP) =  -1271.38462297     A.U. after   12 cycles
 SCF Done:  E(RB3LYP) =  -1271.38462412     A.U. after    9 cycles
 SCF Done:  E(RB3LYP) =  -1271.38462502     A.U. after   10 cycles
 SCF Done:  E(RB3LYP) =  -1271.38462496     A.U. after    9 cycles
 Optimization completed.
    -- Stationary point found.
 Normal termination of Gaussian 16 at Sun Dec 13 13:55:36 2020.

 --------------------------------------------------------------------
 #N Geom=AllCheck Guess=TCheck SCRF=Check GenChk RB3LYP/6-31G(d) Freq
 --------------------------------------------------------------------

 Structure from the checkpoint file:  "JID_10406.chk"
 -------------------------------
 CID_51325227_JID_10406_neutraal
 -------------------------------
 Charge =  0 Multiplicity = 1

 SCF Done:  E(RB3LYP) =  -1271.38462496     A.U. after    1 cycles

  Exact polarizability: 188.295 -23.001 158.580  -9.553 -17.232 169.975
 Approx polarizability: 295.978 -51.404 243.925 -23.452 -44.763 327.985

                      1                      2                      3
                      A                      A                      A
 Frequencies --     24.0086                31.4400                44.4271
 Red. masses --      7.5705                 5.0116                10.0561
 Frc consts  --      0.0026                 0.0029                 0.0117
 IR Inten    --      1.6516                 4.7413                 0.0434

                      4                      5                      6
                      A                      A                      A
 Frequencies --     57.2518                64.7370                84.1032
 Red. masses --      3.5989                 5.0441                 5.1911
 Frc consts  --      0.0070                 0.0125                 0.0216
 IR Inten    --      0.6057                 0.5341                 2.9817

                      7                      8                      9
                      A                      A                      A
 Frequencies --    114.3828               141.7889               153.5537
 Red. masses --      4.8111                 4.8547                 4.3564
 Frc consts  --      0.0371                 0.0575                 0.0605
 IR Inten    --      1.0736                 2.1352                 1.2928

                     10                     11                     12
                      A                      A                      A
 Frequencies --    162.1697               181.0026               244.4752
 Red. masses --      4.8386                 5.2727                 2.9145
 Frc consts  --      0.0750                 0.1018                 0.1026
 IR Inten    --      3.2842                 0.8805                 0.6057

                     13                     14                     15
                      A                      A                      A
 Frequencies --    261.0436               273.5386               288.9418
 Red. masses --      3.7050                 1.5438                 2.3023
 Frc consts  --      0.1488                 0.0681                 0.1132
 IR Inten    --      1.6456                 0.9280                 0.2978

                     16                     17                     18
                      A                      A                      A
 Frequencies --    302.3521               342.6246               382.9532
 Red. masses --      4.9381                 5.0253                 5.4397
 Frc consts  --      0.2660                 0.3476                 0.4700
 IR Inten    --      2.7586                 0.2680                 6.0386

                     19                     20                     21
                      A                      A                      A
 Frequencies --    400.6414               436.9888               442.2701
 Red. masses --      6.4062                 4.1625                 4.3710
 Frc consts  --      0.6058                 0.4683                 0.5037
 IR Inten    --      1.8613                 0.1757                 0.5095

                     22                     23                     24
                      A                      A                      A
 Frequencies --    468.0324               525.9678               536.8187
 Red. masses --      6.7852                 5.3999                 5.5031
 Frc consts  --      0.8757                 0.8802                 0.9344
 IR Inten    --      5.1883                 2.4263                 2.5851

                     25                     26                     27
                      A                      A                      A
 Frequencies --    553.8967               610.8884               636.0296
 Red. masses --      5.9871                 4.4138                 3.6099
 Frc consts  --      1.0822                 0.9705                 0.8604
 IR Inten    --      1.4108                 2.2815                13.9456

                     28                     29                     30
                      A                      A                      A
 Frequencies --    637.1781               679.2051               692.0653
 Red. masses --      3.6564                 3.6059                 6.9232
 Frc consts  --      0.8746                 0.9801                 1.9537
 IR Inten    --      4.8703                12.3885                 6.7509

                     31                     32                     33
                      A                      A                      A
 Frequencies --    704.8850               717.6118               756.0699
 Red. masses --      2.6447                 4.6157                 5.8821
 Frc consts  --      0.7742                 1.4005                 1.9811
 IR Inten    --     24.9926                 9.3838                15.2200

                     34                     35                     36
                      A                      A                      A
 Frequencies --    793.3550               808.1865               829.2391
 Red. masses --      1.1099                 5.9562                 1.5327
 Frc consts  --      0.4116                 2.2922                 0.6210
 IR Inten    --      0.1600                21.5080                14.5242

                     37                     38                     39
                      A                      A                      A
 Frequencies --    834.6814               844.8278               907.1624
 Red. masses --      1.3660                 1.3084                 5.2565
 Frc consts  --      0.5607                 0.5502                 2.5487
 IR Inten    --      4.5059                 4.4704                15.9254

                     40                     41                     42
                      A                      A                      A
 Frequencies --    913.0970               931.6029               960.2288
 Red. masses --      3.4076                 1.5045                 1.3904
 Frc consts  --      1.6739                 0.7693                 0.7553
 IR Inten    --      7.2905                 7.7654                 1.8084

                     43                     44                     45
                      A                      A                      A
 Frequencies --    971.1845               980.2290              1000.6086
 Red. masses --      7.2798                 3.7332                 1.3226
 Frc consts  --      4.0455                 2.1134                 0.7802
 IR Inten    --      6.5938                 1.7538                 2.3696

                     46                     47                     48
                      A                      A                      A
 Frequencies --   1011.0854              1025.3447              1053.2855
 Red. masses --      1.7316                 5.3435                 7.6007
 Frc consts  --      1.0430                 3.3099                 4.9682
 IR Inten    --      6.4270                 0.2237                 4.6611

                     49                     50                     51
                      A                      A                      A
 Frequencies --   1075.1107              1077.4472              1093.2060
 Red. masses --      1.4581                 1.3010                 1.3385
 Frc consts  --      0.9930                 0.8898                 0.9425
 IR Inten    --     15.5870                10.0785                 0.3723

                     52                     53                     54
                      A                      A                      A
 Frequencies --   1098.8554              1104.2493              1127.8062
 Red. masses --      1.9748                 2.1410                 1.8509
 Frc consts  --      1.4049                 1.5382                 1.3871
 IR Inten    --      3.1546                 3.0562                39.3943

                     55                     56                     57
                      A                      A                      A
 Frequencies --   1133.0883              1135.9804              1183.1253
 Red. masses --      1.2472                 1.5520                 2.1756
 Frc consts  --      0.9434                 1.1800                 1.7943
 IR Inten    --      0.3312                 4.4958                40.3762

                     58                     59                     60
                      A                      A                      A
 Frequencies --   1207.0220              1208.0509              1223.7702
 Red. masses --      1.1854                 1.3674                 2.2042
 Frc consts  --      1.0176                 1.1758                 1.9449
 IR Inten    --      3.5432                 0.6532                 4.3387

                     61                     62                     63
                      A                      A                      A
 Frequencies --   1238.7272              1254.7409              1259.7141
 Red. masses --      1.8543                 1.7911                 1.6239
 Frc consts  --      1.6764                 1.6614                 1.5182
 IR Inten    --      4.8434                 5.5433                 6.9143

                     64                     65                     66
                      A                      A                      A
 Frequencies --   1318.7100              1327.7485              1353.0889
 Red. masses --      9.8786                 1.5704                 1.6611
 Frc consts  --     10.1215                 1.6312                 1.7918
 IR Inten    --     17.5376                 6.7835                 6.3288

                     67                     68                     69
                      A                      A                      A
 Frequencies --   1387.1626              1388.2194              1400.1525
 Red. masses --      2.8312                 2.7791                13.8181
 Frc consts  --      3.2098                 3.1556                15.9606
 IR Inten    --      7.9602                 3.0146               306.0735

                     70                     71                     72
                      A                      A                      A
 Frequencies --   1431.8677              1444.1073              1452.3526
 Red. masses --      2.4194                 1.2959                 7.2565
 Frc consts  --      2.9226                 1.5923                 9.0182
 IR Inten    --     15.6273                14.6701                20.9816

                     73                     74                     75
                      A                      A                      A
 Frequencies --   1488.9647              1489.7688              1515.8414
 Red. masses --      1.1032                 2.6093                 1.0775
 Frc consts  --      1.4410                 3.4120                 1.4587
 IR Inten    --      3.1624                 4.4225                 6.9887

                     76                     77                     78
                      A                      A                      A
 Frequencies --   1525.3244              1531.2613              1534.0051
 Red. masses --      2.5791                 2.0333                 1.8018
 Frc consts  --      3.5355                 2.8090                 2.4981
 IR Inten    --     40.4643                10.0333                 6.7266

                     79                     80                     81
                      A                      A                      A
 Frequencies --   1539.3422              1627.6013              1642.5247
 Red. masses --      1.1129                 7.8812                 6.6747
 Frc consts  --      1.5537                12.3009                10.6097
 IR Inten    --      3.1980               140.0278                31.1876

                     82                     83                     84
                      A                      A                      A
 Frequencies --   1680.2977              3057.6244              3083.7951
 Red. masses --      7.8868                 1.0392                 1.0857
 Frc consts  --     13.1196                 5.7244                 6.0829
 IR Inten    --     31.7020                24.9637                 7.2588

                     85                     86                     87
                      A                      A                      A
 Frequencies --   3133.4147              3154.1978              3162.1954
 Red. masses --      1.0983                 1.1033                 1.0533
 Frc consts  --      6.3537                 6.4675                 6.2058
 IR Inten    --     11.1211                 8.5841                 6.4457

                     88                     89                     90
                      A                      A                      A
 Frequencies --   3169.6385              3198.3578              3210.5991
 Red. masses --      1.0566                 1.0897                 1.0895
 Frc consts  --      6.2541                 6.5679                 6.6166
 IR Inten    --      2.2672                 3.5114                 5.6068

                     91                     92                     93
                      A                      A                      A
 Frequencies --   3235.4930              3240.3438              3242.4029
 Red. masses --      1.0925                 1.0909                 1.1204
 Frc consts  --      6.7383                 6.7484                 6.9398
 IR Inten    --      1.1686                 2.1580                 1.3488

                     94                     95                     96
                      A                      A                      A
 Frequencies --   3256.5215              3256.9292              3283.5186
 Red. masses --      1.0930                 1.1168                 1.0983
 Frc consts  --      6.8291                 6.9800                 6.9770
 IR Inten    --      2.3552                 6.4213                 0.1297

 - Thermochemistry -
 -------------------
 Temperature   298.150 Kelvin.  Pressure   1.00000 Atm.
 Atom     1 has atomic number  6 and mass  12.00000

 Molecular mass:   290.08375 amu.
 Principal axes and moments of inertia in atomic units:
                           1         2         3
     Eigenvalues --  3921.233407093.280458139.15165
           X            0.99999  -0.00207   0.00428
           Y            0.00201   0.99992   0.01281
           Z           -0.00430  -0.01280   0.99991
 This molecule is an asymmetric top.
 Rotational symmetry number  1.
 Warning -- assumption of classical behavior for rotation
           may cause significant error
 Rotational temperatures (Kelvin)      0.02209     0.01221     0.01064
 Rotational constants (GHZ):           0.46025     0.25443     0.22174
 Zero-point vibrational energy     693844.4 (Joules/Mol)
                                  165.83280 (Kcal/Mol)
 Warning -- explicit consideration of  26 degrees of freedom as
           vibrations may cause significant error
 Vibrational temperatures:     34.54    45.24    63.92    82.37    93.14
          (Kelvin)            121.01   164.57   204.00   220.93   233.33
                              260.42   351.75   375.58   393.56   415.72
                              435.02   492.96   550.98   576.43   628.73
                              636.33   673.39   756.75   772.36   796.93
                              878.93   915.10   916.76   977.22   995.73
                             1014.17  1032.48  1087.82  1141.46  1162.80
                             1193.09  1200.92  1215.52  1305.20  1313.74
                             1340.37  1381.56  1397.32  1410.33  1439.65
                             1454.73  1475.24  1515.44  1546.84  1550.21
                             1572.88  1581.01  1588.77  1622.66  1630.26
                             1634.42  1702.25  1736.64  1738.12  1760.73
                             1782.25  1805.29  1812.45  1897.33  1910.33
                             1946.79  1995.82  1997.34  2014.51  2060.14
                             2077.75  2089.61  2142.29  2143.45  2180.96
                             2194.60  2203.14  2207.09  2214.77  2341.76
                             2363.23  2417.57  4399.24  4436.89  4508.28
                             4538.19  4549.69  4560.40  4601.72  4619.34
                             4655.15  4662.13  4665.09  4685.41  4685.99
                             4724.25

 Zero-point correction=                           0.264271 (Hartree/Particle)
 Thermal correction to Energy=                    0.282150
 Thermal correction to Enthalpy=                  0.283095
 Thermal correction to Gibbs Free Energy=         0.216237
 Sum of electronic and zero-point Energies=          -1271.120354
 Sum of electronic and thermal Energies=             -1271.102474
 Sum of electronic and thermal Enthalpies=           -1271.101530
 Sum of electronic and thermal Free Energies=        -1271.168388

                     E (Thermal)             CV                S
                      KCal/Mol        Cal/Mol-Kelvin    Cal/Mol-Kelvin
 Total                  177.052             67.355            140.714
 Electronic               0.000              0.000              0.000
 Translational            0.889              2.981             42.893
 Rotational               0.889              2.981             33.781
 Vibrational            175.275             61.393             64.040
 Vibration     1          0.593              1.985              6.272
 Vibration     2          0.594              1.983              5.736
 Vibration     3          0.595              1.980              5.051
 Vibration     4          0.596              1.975              4.550
 Vibration     5          0.597              1.971              4.307
 Vibration     6          0.601              1.960              3.793
 Vibration     7          0.607              1.938              3.193
 Vibration     8          0.615              1.911              2.780
 Vibration     9          0.619              1.899              2.628
 Vibration    10          0.622              1.889              2.524
 Vibration    11          0.630              1.866              2.318
 Vibration    12          0.660              1.772              1.770
 Vibration    13          0.669              1.744              1.655
 Vibration    14          0.676              1.722              1.574
 Vibration    15          0.686              1.694              1.480
 Vibration    16          0.694              1.669              1.404
 Vibration    17          0.722              1.590              1.200
 Vibration    18          0.752              1.507              1.027
 Vibration    19          0.766              1.469              0.960
 Vibration    20          0.797              1.390              0.836
 Vibration    21          0.802              1.378              0.820
 Vibration    22          0.825              1.321              0.743
 Vibration    23          0.881              1.193              0.596
 Vibration    24          0.892              1.169              0.572
 Vibration    25          0.909              1.131              0.536
 Vibration    26          0.970              1.009              0.431

 Optimization completed.
    -- Stationary point found.
 Normal termination of Gaussian 16 at Sun Dec 13 14:14:03 2020.

 ----------------------------------------------------------------------
 # B3LYP/6-311++G(d,p) empiricaldispersion=gd3bj scf=xqc pop=npa geom=c
 heck
 ----------------------------------------------------------------------

 ---------------------------------------
 CID_51325227_JID_10406_Energie_neutraal
 ---------------------------------------
 Structure from the checkpoint file:  "JID_10406.chk"
 Charge =  0 Multiplicity = 1

 SCF Done:  E(RB3LYP) =  -1271.64568002     A.U. after   16 cycles
 Normal termination of Gaussian 16 at Sun Dec 13 14:20:58 2020.

 ----------------------------------------------------------------------
 # B3LYP/6-311++G(d,p) empiricaldispersion=gd3bj scf=xqc pop=npa geom=c
 heck
 ----------------------------------------------------------------------

 -------------------------------------
 CID_51325227_JID_10406_Energie_kation
 -------------------------------------
 Structure from the checkpoint file:  "JID_10406.chk"
 Charge =  1 Multiplicity = 2

 SCF Done:  E(UB3LYP) =  -1271.32535239     A.U. after   28 cycles
 Normal termination of Gaussian 16 at Sun Dec 13 14:37:21 2020.
 Gaussian 16:  ES64L-G16RevA.03 25-Dec-2016

 ----------------------------------------------------------------------
 # B3LYP/6-311++G(d,p) empiricaldispersion=gd3bj scf=xqc pop=npa geom=c
 heck
 ----------------------------------------------------------------------

 ------------------------------------
 CID_51325227_JID_10406_Energie_anion
 ------------------------------------
 Structure from the checkpoint file:  "JID_10406.chk"
 Charge = -1 Multiplicity = 2

                         Standard orientation:
 ---------------------------------------------------------------------
 Center     Atomic      Atomic             Coordinates (Angstroms)
 Number     Number       Type             X           Y           Z
 ---------------------------------------------------------------------
      1          6           0       -1.410122    3.248507   -0.209596
      2          6           0       -0.575558    2.148522   -0.860926
      3          6           0        0.415134    1.462489    0.047608
      4          6           0        1.625977    1.000382   -0.476004
      5          6           0        2.502398    0.297143    0.343018
      6          6           0        2.218069    0.025364    1.680324
      7          6           0        1.013447    0.491609    2.199371
      8          6           0        0.123487    1.207353    1.395720
      9          7           0        3.767404   -0.190665   -0.228388
     10          8           0        3.998933    0.067171   -1.409172
     11          8           0        4.515419   -0.833018    0.507891
     12         16           0       -1.679515    0.853141   -1.669331
     13          6           0       -2.232020    0.023320   -0.223148
     14          7           0       -3.126199    0.473881    0.637857
     15          7           0       -3.209554   -0.435136    1.672761
     16          6           0       -2.369519   -1.408353    1.399936
     17          7           0       -1.725003   -1.185655    0.217395
     18          6           0       -0.643739   -1.955411   -0.337556
     19          6           0       -0.813522   -3.448251   -0.455264
     20          6           0       -0.815183   -2.584861   -1.690234
     21          1           0       -2.112093    2.836156    0.519707
     22          1           0       -1.995013    3.772192   -0.970014
     23          1           0       -0.754596    3.971111    0.290876
     24          1           0       -0.039826    2.548932   -1.727764
     25          1           0        1.888114    1.164218   -1.514351
     26          1           0        2.929261   -0.529708    2.278317
     27          1           0        0.762717    0.297698    3.237390
     28          1           0       -0.815905    1.545892    1.817245
     29          1           0       -2.196882   -2.286924    2.004884
     30          1           0        0.334733   -1.567984   -0.072336
     31          1           0        0.053274   -4.066006   -0.243099
     32          1           0       -1.761747   -3.873049   -0.140416
     33          1           0       -1.763837   -2.426454   -2.192375
     34          1           0        0.049602   -2.593408   -2.345380
 ---------------------------------------------------------------------

 SCF Done:  E(UB3LYP) =  -1271.69368727     A.U. after   24 cycles

 The electronic state is 2-A.
 Alpha  occ. eigenvalues --  -88.75776 -18.95089 -18.95065 -14.32815 -14.29776
 Alpha  occ. eigenvalues --  -14.23822 -14.23624 -10.16371 -10.14733 -10.14372
 Alpha  occ. eigenvalues --  -10.11893 -10.11042 -10.10565 -10.07030 -10.06915
 Alpha  occ. eigenvalues --  -10.06644 -10.05492 -10.04741 -10.04449 -10.04290
 Alpha  occ. eigenvalues --   -7.84421  -5.80841  -5.80446  -5.79756  -1.03166
 Alpha  occ. eigenvalues --   -0.97774  -0.86050  -0.85411  -0.77575  -0.75720
 Alpha  occ. eigenvalues --   -0.73696  -0.70226  -0.64526  -0.62985  -0.61873
 Alpha  occ. eigenvalues --   -0.57998  -0.55181  -0.54340  -0.52780  -0.52309
 Alpha  occ. eigenvalues --   -0.48737  -0.47499  -0.45516  -0.42892  -0.42428
 Alpha  occ. eigenvalues --   -0.39913  -0.38809  -0.37160  -0.36365  -0.35572
 Alpha  occ. eigenvalues --   -0.35013  -0.34440  -0.34071  -0.33473  -0.31714
 Alpha  occ. eigenvalues --   -0.31109  -0.30889  -0.30347  -0.28774  -0.27195
 Alpha  occ. eigenvalues --   -0.26358  -0.25518  -0.24242  -0.23936  -0.23448
 Alpha  occ. eigenvalues --   -0.22960  -0.22186  -0.20098  -0.17754  -0.17281
 Alpha  occ. eigenvalues --   -0.15548  -0.14422  -0.13904  -0.12956  -0.12834
 Alpha  occ. eigenvalues --   -0.10871   0.01745
 Alpha virt. eigenvalues --    0.06364   0.06712   0.07786   0.08261   0.09004
 Alpha virt. eigenvalues --    0.09612   0.09695   0.10393   0.10523   0.11178
 Alpha virt. eigenvalues --    0.11217   0.11900   0.12594   0.12638   0.13308

  Beta  occ. eigenvalues --  -88.75774 -18.94616 -18.94580 -14.32212 -14.29760
  Beta  occ. eigenvalues --  -14.23826 -14.23602 -10.16374 -10.14731 -10.14373
  Beta  occ. eigenvalues --  -10.11883 -10.11042 -10.10565 -10.07031 -10.06807
  Beta  occ. eigenvalues --  -10.06706 -10.05565 -10.04613 -10.04277 -10.03994
  Beta  occ. eigenvalues --   -7.84419  -5.80835  -5.80448  -5.79753  -1.02135
  Beta  occ. eigenvalues --   -0.97757  -0.85391  -0.85146  -0.77567  -0.75610
  Beta  occ. eigenvalues --   -0.73549  -0.70123  -0.63986  -0.62851  -0.61753
  Beta  occ. eigenvalues --   -0.57991  -0.55158  -0.53606  -0.52467  -0.52259
  Beta  occ. eigenvalues --   -0.48678  -0.47430  -0.45452  -0.42839  -0.42127
  Beta  occ. eigenvalues --   -0.39538  -0.38786  -0.37037  -0.36257  -0.34573
  Beta  occ. eigenvalues --   -0.34392  -0.34055  -0.33276  -0.32508  -0.31452
  Beta  occ. eigenvalues --   -0.31057  -0.30596  -0.30337  -0.28679  -0.27105
  Beta  occ. eigenvalues --   -0.26246  -0.25480  -0.24157  -0.23695  -0.22959
  Beta  occ. eigenvalues --   -0.22872  -0.22142  -0.20032  -0.17730  -0.17246
  Beta  occ. eigenvalues --   -0.15333  -0.12921  -0.12401  -0.12253  -0.10819
  Beta  occ. eigenvalues --   -0.10393
  Beta virt. eigenvalues --    0.06403   0.06711   0.07782   0.08202   0.08546
  Beta virt. eigenvalues --    0.09196   0.09598   0.09817   0.10532   0.10613
  Beta virt. eigenvalues --    0.11168   0.11222   0.11921   0.12620   0.12778

 Mulliken charges and spin densities:
               1          2
     1  C   -0.764948  -0.002362
     2  C   -0.200469   0.007616
     3  C    0.729344  -0.065224
     4  C   -0.648719   0.128710
     5  C   -0.172748   0.008338
     6  C    0.120624   0.174767
     7  C   -0.512695  -0.033434
     8  C   -0.401621   0.222669
     9  N   -0.296657   0.189195
    10  O   -0.158739   0.189951
    11  O   -0.188135   0.183597
    12  S    0.255151   0.008341
    13  C   -0.689709   0.005923
    14  N    0.061556   0.006041
    15  N   -0.059802  -0.005356
    16  C   -0.025595   0.004268
    17  N    0.383679  -0.004945
    18  C   -0.275067  -0.003166
    19  C   -0.217496  -0.014528
    20  C   -0.356292  -0.017755
    21  H    0.188154   0.000472
    22  H    0.130883  -0.000415
    23  H    0.132742   0.000416
    24  H    0.266162   0.002116
    25  H    0.217561  -0.006565
    26  H    0.220790  -0.010477
    27  H    0.142867   0.003907
    28  H    0.128571  -0.020152
    29  H    0.171257   0.000028
    30  H    0.192924   0.047454
    31  H    0.167023  -0.001589
    32  H    0.133825  -0.000639
    33  H    0.160723  -0.001042
    34  H    0.164856   0.003842
 Sum of Mulliken charges =  -1.00000   1.00000

 Dipole moment (field-independent basis, Debye):
    X=             -8.9293    Y=             -2.0601    Z=             -0.6990  Tot=              9.1905
 Quadrupole moment (field-independent basis, Debye-Ang):
   XX=           -221.7341   YY=           -125.9580   ZZ=           -139.6764
   XY=             11.8428   XZ=             11.4405   YZ=             -2.4692

 Summary of Natural Population Analysis:

                                       Natural Population
                Natural  -----------------------------------------------
    Atom  No    Charge         Core      Valence    Rydberg      Total
 -----------------------------------------------------------------------
      C    1   -0.29360      0.99964     2.28804    0.00592     3.29360
      C    2   -0.14205      0.99952     2.13185    0.01069     3.14205
      C    3   -0.05801      0.99948     2.04509    0.01343     3.05801
      C    4   -0.06940      0.99947     2.06063    0.00930     3.06940
      C    5    0.05095      0.99940     1.93347    0.01618     2.94905
      C    6   -0.06662      0.99953     2.05763    0.00947     3.06662
      C    7   -0.12454      0.99958     2.11597    0.00899     3.12454
      C    8   -0.05477      0.99952     2.04646    0.00878     3.05477
      N    9    0.30349      0.99972     2.17038    0.02642     3.19651
      O   10   -0.19299      0.99990     3.18538    0.00772     4.19299
      O   11   -0.19357      0.99990     3.18604    0.00763     4.19357
      S   12    0.10562      4.99953     2.87741    0.01745     7.89438
      C   13    0.09929      0.99956     1.87804    0.02311     2.90071
      N   14   -0.16116      0.99966     2.64732    0.01417     3.66116
      N   15   -0.16151      0.99973     2.64768    0.01410     3.66151
      C   16    0.10296      0.99965     1.88270    0.01469     2.89704
      N   17   -0.21712      0.99958     2.70108    0.01645     3.71712
      C   18   -0.02058      0.99956     2.00971    0.01131     3.02058
      C   19   -0.20060      0.99963     2.19494    0.00603     3.20060
      C   20   -0.19206      0.99963     2.18573    0.00671     3.19206
      H   21    0.11279      0.00000     0.38607    0.00114     0.38721
      H   22    0.09800      0.00000     0.40110    0.00090     0.40200
      H   23    0.10158      0.00000     0.39752    0.00090     0.39842
      H   24    0.10464      0.00000     0.39390    0.00145     0.39536
      H   25    0.11383      0.00000     0.38489    0.00127     0.38617
      H   26    0.11341      0.00000     0.38551    0.00107     0.38659
      H   27    0.09482      0.00000     0.40416    0.00102     0.40518
      H   28    0.09864      0.00000     0.39974    0.00163     0.40136
      H   29    0.09787      0.00000     0.40109    0.00104     0.40213
      H   30    0.12511      0.00000     0.37324    0.00164     0.37489
      H   31    0.10752      0.00000     0.39164    0.00085     0.39248
      H   32    0.10229      0.00000     0.39673    0.00098     0.39771
      H   33    0.10535      0.00000     0.39376    0.00089     0.39465
      H   34    0.11042      0.00000     0.38871    0.00088     0.38958
 =======================================================================
   * Total *    0.00000     23.99218    51.74360    0.26422    76.00000

 Normal termination of Gaussian 16 at Sun Dec 13 14:51:20 2020.
