 Gaussian 16, Revision A.03,

 -----------------------------------------------------------
 # opt freq B3LYP/6-31G(d) empiricaldispersion=gd3bj scf=xqc
 -----------------------------------------------------------

 -------------------------------
 CID_153989880_JID_5248_neutraal
 -------------------------------
 Symbolic Z-matrix:
 Charge =  0 Multiplicity = 1

 SCF Done:  E(RB3LYP) =  -1051.22438918     A.U. after   15 cycles
 SCF Done:  E(RB3LYP) =  -1051.22946609     A.U. after   13 cycles
 SCF Done:  E(RB3LYP) =  -1051.23048333     A.U. after   12 cycles
 SCF Done:  E(RB3LYP) =  -1051.23095050     A.U. after   12 cycles
 SCF Done:  E(RB3LYP) =  -1051.23120592     A.U. after   12 cycles
 SCF Done:  E(RB3LYP) =  -1051.23128697     A.U. after   11 cycles
 SCF Done:  E(RB3LYP) =  -1051.23136251     A.U. after   12 cycles
 SCF Done:  E(RB3LYP) =  -1051.23108494     A.U. after   15 cycles
 SCF Done:  E(RB3LYP) =  -1051.23206154     A.U. after   13 cycles
 SCF Done:  E(RB3LYP) =  -1051.23164991     A.U. after   15 cycles
 SCF Done:  E(RB3LYP) =  -1051.23488152     A.U. after   11 cycles
 SCF Done:  E(RB3LYP) =  -1051.23489003     A.U. after   10 cycles
 SCF Done:  E(RB3LYP) =  -1051.23489331     A.U. after    9 cycles
 SCF Done:  E(RB3LYP) =  -1051.23489456     A.U. after    8 cycles
 SCF Done:  E(RB3LYP) =  -1051.23489492     A.U. after    8 cycles
 Optimization completed.
    -- Stationary point found.
 Normal termination of Gaussian 16 at Thu Dec 10 15:06:33 2020.

 --------------------------------------------------------------------
 #N Geom=AllCheck Guess=TCheck SCRF=Check GenChk RB3LYP/6-31G(d) Freq
 --------------------------------------------------------------------

 Structure from the checkpoint file:  "JID_5248.chk"
 -------------------------------
 CID_153989880_JID_5248_neutraal
 -------------------------------
 Charge =  0 Multiplicity = 1

 SCF Done:  E(RB3LYP) =  -1051.23489492     A.U. after    1 cycles

  Exact polarizability: 154.676  -8.231 135.129  -1.541   0.181 111.360
 Approx polarizability: 202.838 -18.411 192.577  -1.537   1.990 184.364

                      1                      2                      3
                      A                      A                      A
 Frequencies --     30.9000                36.5038                54.5605
 Red. masses --      4.6656                 4.2566                 3.3611
 Frc consts  --      0.0026                 0.0033                 0.0059
 IR Inten    --      0.3167                 0.1727                 1.2752

                      4                      5                      6
                      A                      A                      A
 Frequencies --     58.0797                67.6570                75.4548
 Red. masses --      4.8115                 3.6596                 4.6077
 Frc consts  --      0.0096                 0.0099                 0.0155
 IR Inten    --      7.7105                 1.0741                 8.7700

                      7                      8                      9
                      A                      A                      A
 Frequencies --     98.1537               120.9596               160.4521
 Red. masses --      2.9128                 3.8367                 2.3383
 Frc consts  --      0.0165                 0.0331                 0.0355
 IR Inten    --      1.8291                 0.4664                 2.7857

                     10                     11                     12
                      A                      A                      A
 Frequencies --    187.4176               213.8584               234.0075
 Red. masses --      4.1643                 2.2407                 2.7826
 Frc consts  --      0.0862                 0.0604                 0.0898
 IR Inten    --      3.4653                 1.0006                 2.2132

                     13                     14                     15
                      A                      A                      A
 Frequencies --    257.9411               264.1668               293.5285
 Red. masses --      4.1843                 1.8163                 3.5061
 Frc consts  --      0.1640                 0.0747                 0.1780
 IR Inten    --      3.7439                 2.1869                 3.1213

                     16                     17                     18
                      A                      A                      A
 Frequencies --    313.1770               335.1673               361.4145
 Red. masses --      1.8132                 2.5628                 2.7203
 Frc consts  --      0.1048                 0.1696                 0.2094
 IR Inten    --      2.7210                 3.1393                 1.5782

                     19                     20                     21
                      A                      A                      A
 Frequencies --    370.5491               392.1227               417.8152
 Red. masses --      3.0741                 2.1502                 3.3384
 Frc consts  --      0.2487                 0.1948                 0.3434
 IR Inten    --      5.1535                 3.2536                 0.9983

                     22                     23                     24
                      A                      A                      A
 Frequencies --    441.2859               468.8866               518.9523
 Red. masses --      2.6553                 2.6264                 2.7123
 Frc consts  --      0.3046                 0.3402                 0.4304
 IR Inten    --     19.1734                17.6111                25.1517

                     25                     26                     27
                      A                      A                      A
 Frequencies --    525.9755               564.1598               636.4750
 Red. masses --      5.5753                 2.7994                 2.9288
 Frc consts  --      0.9088                 0.5250                 0.6990
 IR Inten    --     48.2733                 6.9786                55.0268

                     28                     29                     30
                      A                      A                      A
 Frequencies --    682.9159               719.5584               739.7514
 Red. masses --      2.3607                 1.4008                 1.7364
 Frc consts  --      0.6487                 0.4273                 0.5598
 IR Inten    --     31.3057                 8.1403                 2.2969

                     31                     32                     33
                      A                      A                      A
 Frequencies --    780.5548               804.8022               827.3789
 Red. masses --      1.6623                 2.9407                 2.3821
 Frc consts  --      0.5967                 1.1222                 0.9608
 IR Inten    --     19.5986                92.0345                18.1550

                     34                     35                     36
                      A                      A                      A
 Frequencies --    850.5125               893.5766               916.2184
 Red. masses --      1.6595                 1.7858                 1.7932
 Frc consts  --      0.7073                 0.8401                 0.8869
 IR Inten    --     14.7877                 6.2695                 2.0372

                     37                     38                     39
                      A                      A                      A
 Frequencies --    939.5269               960.5313               986.4914
 Red. masses --      4.8103                 1.6306                 1.6358
 Frc consts  --      2.5017                 0.8864                 0.9379
 IR Inten    --     10.3127                 9.4214                 0.5913

                     40                     41                     42
                      A                      A                      A
 Frequencies --    995.4686              1021.2937              1040.9974
 Red. masses --      1.8515                 1.8428                 1.5058
 Frc consts  --      1.0810                 1.1325                 0.9614
 IR Inten    --      0.1657                11.6982                 3.3262

                     43                     44                     45
                      A                      A                      A
 Frequencies --   1063.0589              1079.1191              1099.6401
 Red. masses --      1.5503                 2.0072                 4.3641
 Frc consts  --      1.0322                 1.3772                 3.1092
 IR Inten    --      3.7968                 2.8105                96.2559

                     46                     47                     48
                      A                      A                      A
 Frequencies --   1112.9974              1120.1546              1137.2036
 Red. masses --      3.9644                 1.9884                 1.8457
 Frc consts  --      2.8934                 1.4700                 1.4063
 IR Inten    --    125.4315                 3.4025                28.1097

                     49                     50                     51
                      A                      A                      A
 Frequencies --   1143.9253              1187.2369              1206.9476
 Red. masses --      1.9982                 1.4020                 1.4337
 Frc consts  --      1.5406                 1.1643                 1.2305
 IR Inten    --      8.6019                 5.7592                 2.7925

                     52                     53                     54
                      A                      A                      A
 Frequencies --   1239.4794              1271.6437              1272.8968
 Red. masses --      1.2468                 1.2419                 1.1843
 Frc consts  --      1.1286                 1.1832                 1.1305
 IR Inten    --      0.3856                 5.9635                11.1078

                     55                     56                     57
                      A                      A                      A
 Frequencies --   1305.1558              1317.0914              1329.8262
 Red. masses --      1.2967                 2.5680                 1.3700
 Frc consts  --      1.3014                 2.6247                 1.4274
 IR Inten    --      3.1256               110.5647                38.1254

                     58                     59                     60
                      A                      A                      A
 Frequencies --   1345.2897              1359.1583              1382.2079
 Red. masses --      1.2941                 1.2077                 1.3337
 Frc consts  --      1.3799                 1.3145                 1.5013
 IR Inten    --     11.6586                 3.6591                16.1000

                     61                     62                     63
                      A                      A                      A
 Frequencies --   1387.1810              1395.1652              1406.1767
 Red. masses --      1.5295                 1.3122                 1.3655
 Frc consts  --      1.7341                 1.5048                 1.5908
 IR Inten    --      0.4633                 1.7856                 1.0138

                     64                     65                     66
                      A                      A                      A
 Frequencies --   1410.0910              1423.8082              1429.3792
 Red. masses --      1.4487                 1.4241                 1.4267
 Frc consts  --      1.6972                 1.7009                 1.7175
 IR Inten    --      0.0201                 0.9662                 1.9836

                     67                     68                     69
                      A                      A                      A
 Frequencies --   1444.5218              1452.9197              1480.5130
 Red. masses --      1.2692                 1.3019                 1.0910
 Frc consts  --      1.5604                 1.6193                 1.4090
 IR Inten    --      5.6671                48.7644                 4.1536

                     70                     71                     72
                      A                      A                      A
 Frequencies --   1501.0046              1505.5977              1513.9914
 Red. masses --      1.0707                 1.0770                 1.0805
 Frc consts  --      1.4212                 1.4384                 1.4593
 IR Inten    --     11.6353                 2.6338                 4.7694

                     73                     74                     75
                      A                      A                      A
 Frequencies --   1519.9914              1526.1285              1533.2143
 Red. masses --      1.0757                 1.0661                 1.0716
 Frc consts  --      1.4643                 1.4629                 1.4842
 IR Inten    --      2.0244                10.6948                 6.1773

                     76                     77                     78
                      A                      A                      A
 Frequencies --   1535.1079              1539.1025              1546.1703
 Red. masses --      1.0748                 1.0626                 1.0863
 Frc consts  --      1.4923                 1.4831                 1.5301
 IR Inten    --     10.4560                 1.3397                 2.0980

                     79                     80                     81
                      A                      A                      A
 Frequencies --   2375.9429              3023.0140              3032.2358
 Red. masses --     12.5799                 1.0640                 1.0630
 Frc consts  --     41.8407                 5.7288                 5.7584
 IR Inten    --      1.4255                13.0840                49.2527

                     82                     83                     84
                      A                      A                      A
 Frequencies --   3040.1807              3045.6997              3052.6324
 Red. masses --      1.0640                 1.0393                 1.0839
 Frc consts  --      5.7940                 5.6805                 5.9509
 IR Inten    --     18.5575                19.8236                 6.8824

                     85                     86                     87
                      A                      A                      A
 Frequencies --   3057.4339              3060.2931              3061.2535
 Red. masses --      1.0776                 1.0684                 1.0658
 Frc consts  --      5.9353                 5.8954                 5.8844
 IR Inten    --     18.2727                 4.2252                17.4202

                     88                     89                     90
                      A                      A                      A
 Frequencies --   3063.5004              3069.9946              3077.6029
 Red. masses --      1.0690                 1.0954                 1.0954
 Frc consts  --      5.9109                 6.0828                 6.1129
 IR Inten    --      9.7104                42.3380               101.6408

                     91                     92                     93
                      A                      A                      A
 Frequencies --   3090.8111              3094.9834              3100.8568
 Red. masses --      1.0614                 1.0968                 1.0969
 Frc consts  --      5.9744                 6.1899                 6.2141
 IR Inten    --      1.6277                35.3799                38.0911

                     94                     95                     96
                      A                      A                      A
 Frequencies --   3110.5700              3110.7406              3119.5655
 Red. masses --      1.1009                 1.0985                 1.1019
 Frc consts  --      6.2762                 6.2627                 6.3181
 IR Inten    --     57.3566                32.8844                46.5701

                     97                     98                     99
                      A                      A                      A
 Frequencies --   3120.5664              3149.6551              3561.7423
 Red. masses --      1.0968                 1.1043                 1.0760
 Frc consts  --      6.2928                 6.4547                 8.0423
 IR Inten    --      7.3854                 3.6702                44.0011

 - Thermochemistry -
 -------------------
 Temperature   298.150 Kelvin.  Pressure   1.00000 Atm.
 Atom     1 has atomic number  6 and mass  12.00000

 Molecular mass:   232.12455 amu.
 Principal axes and moments of inertia in atomic units:
                           1         2         3
     Eigenvalues --  2254.152706342.409887740.22989
           X            0.99994   0.01104   0.00231
           Y           -0.01103   0.99993  -0.00390
           Z           -0.00235   0.00388   0.99999
 This molecule is an asymmetric top.
 Rotational symmetry number  1.
 Warning -- assumption of classical behavior for rotation
           may cause significant error
 Rotational temperatures (Kelvin)      0.03842     0.01366     0.01119
 Rotational constants (GHZ):           0.80063     0.28455     0.23316
 Zero-point vibrational energy     799114.9 (Joules/Mol)
                                  190.99304 (Kcal/Mol)
 Warning -- explicit consideration of  26 degrees of freedom as
           vibrations may cause significant error
 Vibrational temperatures:     44.46    52.52    78.50    83.56    97.34
          (Kelvin)            108.56   141.22   174.03   230.85   269.65
                              307.69   336.68   371.12   380.08   422.32
                              450.59   482.23   519.99   533.14   564.18
                              601.14   634.91   674.62   746.66   756.76
                              811.70   915.75   982.56  1035.28  1064.34
                             1123.04  1157.93  1190.41  1223.70  1285.66
                             1318.23  1351.77  1381.99  1419.34  1432.26
                             1469.41  1497.76  1529.50  1552.61  1582.14
                             1601.36  1611.65  1636.18  1645.85  1708.17
                             1736.53  1783.33  1829.61  1831.41  1877.83
                             1895.00  1913.32  1935.57  1955.53  1988.69
                             1995.84  2007.33  2023.17  2028.81  2048.54
                             2056.56  2078.34  2090.43  2130.13  2159.61
                             2166.22  2178.30  2186.93  2195.76  2205.95
                             2208.68  2214.43  2224.59  3418.45  4349.44
                             4362.71  4374.14  4382.08  4392.06  4398.97
                             4403.08  4404.46  4407.69  4417.04  4427.98
                             4446.99  4452.99  4461.44  4475.42  4475.66
                             4488.36  4489.80  4531.65  5124.55

 Zero-point correction=                           0.304367 (Hartree/Particle)
 Thermal correction to Energy=                    0.321917
 Thermal correction to Enthalpy=                  0.322861
 Thermal correction to Gibbs Free Energy=         0.257413
 Sum of electronic and zero-point Energies=          -1050.930528
 Sum of electronic and thermal Energies=             -1050.912978
 Sum of electronic and thermal Enthalpies=           -1050.912034
 Sum of electronic and thermal Free Energies=        -1050.977482

                     E (Thermal)             CV                S
                      KCal/Mol        Cal/Mol-Kelvin    Cal/Mol-Kelvin
 Total                  202.006             63.999            137.746
 Electronic               0.000              0.000              0.000
 Translational            0.889              2.981             42.228
 Rotational               0.889              2.981             33.070
 Vibrational            200.228             58.038             62.448
 Vibration     1          0.594              1.984              5.771
 Vibration     2          0.594              1.982              5.440
 Vibration     3          0.596              1.976              4.645
 Vibration     4          0.596              1.974              4.521
 Vibration     5          0.598              1.970              4.220
 Vibration     6          0.599              1.965              4.006
 Vibration     7          0.604              1.950              3.491
 Vibration     8          0.609              1.932              3.085
 Vibration     9          0.622              1.891              2.544
 Vibration    10          0.632              1.857              2.253
 Vibration    11          0.644              1.820              2.010
 Vibration    12          0.654              1.789              1.848
 Vibration    13          0.667              1.749              1.676
 Vibration    14          0.671              1.739              1.634
 Vibration    15          0.688              1.686              1.454
 Vibration    16          0.701              1.649              1.345
 Vibration    17          0.716              1.605              1.235
 Vibration    18          0.736              1.552              1.116
 Vibration    19          0.743              1.533              1.078
 Vibration    20          0.760              1.487              0.992
 Vibration    21          0.781              1.432              0.899
 Vibration    22          0.801              1.380              0.823
 Vibration    23          0.826              1.319              0.741
 Vibration    24          0.874              1.208              0.612
 Vibration    25          0.881              1.192              0.596
 Vibration    26          0.920              1.109              0.516

 Optimization completed.
    -- Stationary point found.
 Normal termination of Gaussian 16 at Thu Dec 10 15:18:58 2020.

 ----------------------------------------------------------------------
 # B3LYP/6-311++G(d,p) empiricaldispersion=gd3bj scf=xqc pop=npa geom=c
 heck
 ----------------------------------------------------------------------

 ---------------------------------------
 CID_153989880_JID_5248_Energie_neutraal
 ---------------------------------------
 Structure from the checkpoint file:  "JID_5248.chk"
 Charge =  0 Multiplicity = 1

 SCF Done:  E(RB3LYP) =  -1051.45342370     A.U. after   15 cycles
 Normal termination of Gaussian 16 at Thu Dec 10 15:25:57 2020.

 ----------------------------------------------------------------------
 # B3LYP/6-311++G(d,p) empiricaldispersion=gd3bj scf=xqc pop=npa geom=c
 heck
 ----------------------------------------------------------------------

 -------------------------------------
 CID_153989880_JID_5248_Energie_kation
 -------------------------------------
 Structure from the checkpoint file:  "JID_5248.chk"
 Charge =  1 Multiplicity = 2

 SCF Done:  E(UB3LYP) =  -1051.08741885     A.U. after   33 cycles
 SCF Done:  E(UB3LYP) =  -1051.08741885     a.u. after    1 cycles
 Normal termination of Gaussian 16 at Thu Dec 10 15:47:26 2020.
 Gaussian 16:  ES64L-G16RevA.03 25-Dec-2016

 ----------------------------------------------------------------------
 # B3LYP/6-311++G(d,p) empiricaldispersion=gd3bj scf=xqc pop=npa geom=c
 heck
 ----------------------------------------------------------------------

 ------------------------------------
 CID_153989880_JID_5248_Energie_anion
 ------------------------------------
 Structure from the checkpoint file:  "JID_5248.chk"
 Charge = -1 Multiplicity = 2

                         Standard orientation:
 ---------------------------------------------------------------------
 Center     Atomic      Atomic             Coordinates (Angstroms)
 Number     Number       Type             X           Y           Z
 ---------------------------------------------------------------------
      1          6           0       -5.032220    0.707000   -0.476677
      2          6           0       -4.323985   -0.103429    0.612762
      3          6           0       -3.495204   -1.279511    0.073830
      4          6           0       -2.378211   -0.890852   -0.908500
      5          6           0       -1.367006    0.131972   -0.368506
      6          6           0       -0.651019   -0.286689    0.922729
      7          6           0        0.119019   -1.612646    0.850267
      8          6           0        1.149195   -1.741025   -0.271742
      9         16           0        2.599136   -0.664135   -0.114227
     10          8           0        2.922893   -0.511822    1.309241
     11          8           0        3.587827   -1.128189   -1.092135
     12          7           0        2.060993    0.851743   -0.677190
     13          6           0        2.124449    1.997300    0.229177
     14          6           0        0.911402    2.822599    0.118321
     15          7           0       -0.046950    3.468967    0.021991
     16          1           0       -4.317076    1.205486   -1.140080
     17          1           0       -5.669486    1.483170   -0.039128
     18          1           0       -5.667421    0.062280   -1.096967
     19          1           0       -3.682398    0.564211    1.202561
     20          1           0       -5.071451   -0.498663    1.312993
     21          1           0       -3.063548   -1.826104    0.923303
     22          1           0       -4.168377   -1.988029   -0.428551
     23          1           0       -1.853889   -1.806076   -1.217491
     24          1           0       -2.823605   -0.485315   -1.825405
     25          1           0       -0.621433    0.344079   -1.144095
     26          1           0       -1.868017    1.089021   -0.184441
     27          1           0        0.028526    0.515062    1.229224
     28          1           0       -1.380026   -0.375267    1.737205
     29          1           0        0.624904   -1.795007    1.803986
     30          1           0       -0.586819   -2.440404    0.708496
     31          1           0        1.592299   -2.741949   -0.284912
     32          1           0        0.738548   -1.538937   -1.264107
     33          1           0        2.458394    1.019954   -1.596874
     34          1           0        2.218234    1.620918    1.252441
     35          1           0        3.003892    2.624550    0.039066
 ---------------------------------------------------------------------

 SCF Done:  E(UB3LYP) =  -1051.44736503     A.U. after   31 cycles

 The electronic state is 2-A.
 Alpha  occ. eigenvalues --  -88.97389 -19.03357 -19.02853 -14.25886 -14.22744
 Alpha  occ. eigenvalues --  -10.16376 -10.12555 -10.12120 -10.09114 -10.07860
 Alpha  occ. eigenvalues --  -10.07732 -10.07391 -10.07362 -10.07044 -10.06696
 Alpha  occ. eigenvalues --   -8.03610  -5.99928  -5.99853  -5.99637  -1.03204
 Alpha  occ. eigenvalues --   -0.92430  -0.85063  -0.81815  -0.73658  -0.71270
 Alpha  occ. eigenvalues --   -0.67889  -0.66099  -0.62727  -0.58891  -0.55527
 Alpha  occ. eigenvalues --   -0.52524  -0.49229  -0.46145  -0.44904  -0.43750
 Alpha  occ. eigenvalues --   -0.43069  -0.40674  -0.39425  -0.38374  -0.37355
 Alpha  occ. eigenvalues --   -0.36529  -0.35461  -0.34558  -0.32762  -0.32180
 Alpha  occ. eigenvalues --   -0.31644  -0.29643  -0.29190  -0.28394  -0.28043
 Alpha  occ. eigenvalues --   -0.27175  -0.25897  -0.25702  -0.25309  -0.25071
 Alpha  occ. eigenvalues --   -0.24937  -0.23619  -0.22817  -0.22502  -0.22292
 Alpha  occ. eigenvalues --   -0.21971  -0.21530  -0.19381   0.03834
 Alpha virt. eigenvalues --    0.05560   0.06563   0.07092   0.08029   0.08284
 Alpha virt. eigenvalues --    0.09014   0.09283   0.09688   0.10237   0.10767
 Alpha virt. eigenvalues --    0.11196   0.11498   0.11946   0.12094   0.12391

  Beta  occ. eigenvalues --  -88.97384 -19.03327 -19.02838 -14.25821 -14.22716
  Beta  occ. eigenvalues --  -10.16330 -10.12549 -10.12084 -10.09095 -10.07852
  Beta  occ. eigenvalues --  -10.07723 -10.07378 -10.07346 -10.07026 -10.06689
  Beta  occ. eigenvalues --   -8.03602  -5.99923  -5.99846  -5.99631  -1.03148
  Beta  occ. eigenvalues --   -0.92373  -0.84973  -0.81757  -0.73624  -0.71235
  Beta  occ. eigenvalues --   -0.67830  -0.66014  -0.62676  -0.58843  -0.55470
  Beta  occ. eigenvalues --   -0.52455  -0.49168  -0.46079  -0.44850  -0.43697
  Beta  occ. eigenvalues --   -0.42961  -0.40625  -0.39385  -0.38347  -0.37313
  Beta  occ. eigenvalues --   -0.36491  -0.35425  -0.34510  -0.32723  -0.32152
  Beta  occ. eigenvalues --   -0.31621  -0.29609  -0.29160  -0.28349  -0.28017
  Beta  occ. eigenvalues --   -0.27112  -0.25865  -0.25669  -0.25229  -0.25046
  Beta  occ. eigenvalues --   -0.24902  -0.23590  -0.22792  -0.22469  -0.22255
  Beta  occ. eigenvalues --   -0.21942  -0.21479  -0.19315
  Beta virt. eigenvalues --    0.05861   0.06834   0.07258   0.07367   0.08394
  Beta virt. eigenvalues --    0.08585   0.09334   0.09505   0.10006   0.10559
  Beta virt. eigenvalues --    0.11043   0.11322   0.11715   0.12049   0.12237

 Mulliken charges and spin densities:
               1          2
     1  C    0.020023  -0.648693
     2  C   -0.247317   0.087407
     3  C    0.170562  -0.476852
     4  C   -0.214755  -0.159369
     5  C   -0.057950  -0.264555
     6  C    0.710229  -0.385664
     7  C   -0.895061   0.266974
     8  C   -0.549448  -0.134327
     9  S    1.651520  -1.320940
    10  O   -0.290735   0.041382
    11  O   -0.203273   0.026667
    12  N   -0.345380   0.067084
    13  C    0.017859  -0.288633
    14  C    0.527247  -0.475056
    15  N   -0.253737   0.005848
    16  H    0.079196   0.070718
    17  H    0.091406   0.034194
    18  H   -0.015224   0.149727
    19  H    0.106901   0.028641
    20  H   -0.098788   0.251705
    21  H   -0.015701   0.147737
    22  H   -0.200756   0.360082
    23  H   -0.223061   0.393843
    24  H   -0.017923   0.176863
    25  H    0.187134   0.001407
    26  H    0.160906  -0.028455
    27  H    0.155053  -0.072593
    28  H    0.107245   0.075520
    29  H    0.044156   0.176537
    30  H   -0.215475   0.368586
    31  H   -0.308910   0.549996
    32  H   -0.035808   0.307999
    33  H   -0.288994   0.649181
    34  H    0.109360   0.112833
    35  H   -0.660502   0.904204
 Sum of Mulliken charges =  -1.00000   1.00000

 Dipole moment (field-independent basis, Debye):
    X=             -2.8997    Y=             -0.8235    Z=              2.8603  Tot=              4.1554
 Quadrupole moment (field-independent basis, Debye-Ang):
   XX=           -183.0886   YY=           -156.2922   ZZ=           -132.5881
   XY=             -6.1808   XZ=              4.9770   YZ=              2.5655

 Summary of Natural Population Analysis:

                                       Natural Population
                Natural  -----------------------------------------------
    Atom  No    Charge         Core      Valence    Rydberg      Total
 -----------------------------------------------------------------------
      C    1   -0.28689      0.99967     2.28298    0.00424     3.28689
      C    2   -0.19364      0.99964     2.18580    0.00819     3.19364
      C    3   -0.19049      0.99963     2.18210    0.00877     3.19049
      C    4   -0.19344      0.99963     2.18478    0.00904     3.19344
      C    5   -0.19940      0.99962     2.19113    0.00865     3.19940
      C    6   -0.19129      0.99962     2.18340    0.00827     3.19129
      C    7   -0.20295      0.99961     2.19324    0.01011     3.20295
      C    8   -0.28151      0.99957     2.27039    0.01156     3.28151
      S    9    1.09263      4.99928     1.80914    0.09895     6.90737
      O   10   -0.46486      0.99991     3.45986    0.00509     4.46486
      O   11   -0.45894      0.99991     3.45391    0.00513     4.45894
      N   12   -0.43817      0.99975     2.92391    0.01452     3.93817
      C   13   -0.15156      0.99952     2.13850    0.01354     3.15156
      C   14    0.15661      0.99964     1.82728    0.01647     2.84339
      N   15   -0.17515      0.99979     2.66445    0.01090     3.67515
      H   16    0.09859      0.00000     0.40053    0.00088     0.40141
      H   17    0.09684      0.00000     0.40239    0.00077     0.40316
      H   18    0.09481      0.00000     0.40421    0.00098     0.40519
      H   19    0.09443      0.00000     0.40441    0.00116     0.40557
      H   20    0.09441      0.00000     0.40467    0.00093     0.40559
      H   21    0.09518      0.00000     0.40360    0.00122     0.40482
      H   22    0.09602      0.00000     0.40286    0.00112     0.40398
      H   23    0.09685      0.00000     0.40178    0.00137     0.40315
      H   24    0.09733      0.00000     0.40164    0.00102     0.40267
      H   25    0.10282      0.00000     0.39536    0.00183     0.39718
      H   26    0.10231      0.00000     0.39608    0.00160     0.39769
      H   27    0.09718      0.00000     0.40067    0.00215     0.40282
      H   28    0.09763      0.00000     0.40122    0.00115     0.40237
      H   29    0.10866      0.00000     0.39028    0.00106     0.39134
      H   30    0.10546      0.00000     0.39327    0.00127     0.39454
      H   31    0.11957      0.00000     0.37911    0.00132     0.38043
      H   32    0.11886      0.00000     0.37954    0.00160     0.38114
      H   33    0.20921      0.00000     0.28094    0.00985     0.29079
      H   34    0.13232      0.00000     0.36597    0.00170     0.36768
      H   35    0.12058      0.00000     0.37539    0.00403     0.37942
 =======================================================================
   * Total *    0.00000     18.99477    43.73480    0.27043    63.00000

 Normal termination of Gaussian 16 at Thu Dec 10 16:07:24 2020.
