 Gaussian 16, Revision A.03,

 -----------------------------------------------------------
 # opt freq B3LYP/6-31G(d) empiricaldispersion=gd3bj scf=xqc
 -----------------------------------------------------------

 -------------------------------
 CID_154313349_JID_5559_neutraal
 -------------------------------
 Symbolic Z-matrix:
 Charge =  0 Multiplicity = 1

 SCF Done:  E(RB3LYP) =  -688.805546212     A.U. after   15 cycles
 SCF Done:  E(RB3LYP) =  -688.810625425     A.U. after   12 cycles
 SCF Done:  E(RB3LYP) =  -688.811326433     A.U. after   12 cycles
 SCF Done:  E(RB3LYP) =  -688.811608725     A.U. after   12 cycles
 SCF Done:  E(RB3LYP) =  -688.812017055     A.U. after   12 cycles
 SCF Done:  E(RB3LYP) =  -688.812549970     A.U. after   12 cycles
 SCF Done:  E(RB3LYP) =  -688.812907557     A.U. after   13 cycles
 SCF Done:  E(RB3LYP) =  -688.813175709     A.U. after   11 cycles
 SCF Done:  E(RB3LYP) =  -688.813324339     A.U. after   11 cycles
 SCF Done:  E(RB3LYP) =  -688.813387979     A.U. after   10 cycles
 SCF Done:  E(RB3LYP) =  -688.814343457     A.U. after   11 cycles
 SCF Done:  E(RB3LYP) =  -688.814353239     A.U. after   10 cycles
 SCF Done:  E(RB3LYP) =  -688.814358092     A.U. after    9 cycles
 SCF Done:  E(RB3LYP) =  -688.814359495     A.U. after    8 cycles
 SCF Done:  E(RB3LYP) =  -688.814359727     A.U. after    7 cycles
 SCF Done:  E(RB3LYP) =  -688.814359877     A.U. after    7 cycles
 Optimization completed.
    -- Stationary point found.
 Normal termination of Gaussian 16 at Thu Dec 10 16:10:10 2020.

 --------------------------------------------------------------------
 #N Geom=AllCheck Guess=TCheck SCRF=Check GenChk RB3LYP/6-31G(d) Freq
 --------------------------------------------------------------------

 Structure from the checkpoint file:  "JID_5559.chk"
 -------------------------------
 CID_154313349_JID_5559_neutraal
 -------------------------------
 Charge =  0 Multiplicity = 1

 SCF Done:  E(RB3LYP) =  -688.814359877     A.U. after    1 cycles

  Exact polarizability: 213.593  -2.182 131.062  -2.806  -7.821  79.380
 Approx polarizability: 270.429  -5.481 216.516  -9.993 -15.449 120.916

                      1                      2                      3
                      A                      A                      A
 Frequencies --     37.1789                50.1855                69.2643
 Red. masses --      3.4040                 4.0720                 4.0395
 Frc consts  --      0.0028                 0.0060                 0.0114
 IR Inten    --      0.4944                 4.1194                 1.3731

                      4                      5                      6
                      A                      A                      A
 Frequencies --     75.0830               115.1382               120.4135
 Red. masses --      3.0490                 2.2245                 1.8824
 Frc consts  --      0.0101                 0.0174                 0.0161
 IR Inten    --      0.7629                 5.6419                 5.7678

                      7                      8                      9
                      A                      A                      A
 Frequencies --    143.9206               152.9082               157.7302
 Red. masses --      2.2819                 1.6726                 1.3483
 Frc consts  --      0.0278                 0.0230                 0.0198
 IR Inten    --      1.8620                 3.4248                 1.0493

                     10                     11                     12
                      A                      A                      A
 Frequencies --    177.0549               202.4702               244.5820
 Red. masses --      1.8696                 1.5539                 2.1253
 Frc consts  --      0.0345                 0.0375                 0.0749
 IR Inten    --      0.4783                 0.1660                 4.8264

                     13                     14                     15
                      A                      A                      A
 Frequencies --    264.6213               278.1908               310.1015
 Red. masses --      2.4670                 3.4903                 2.7130
 Frc consts  --      0.1018                 0.1591                 0.1537
 IR Inten    --      2.0662                 3.2684                 4.4835

                     16                     17                     18
                      A                      A                      A
 Frequencies --    385.0113               402.4001               419.0273
 Red. masses --      4.0607                 4.3271                 4.2205
 Frc consts  --      0.3546                 0.4128                 0.4366
 IR Inten    --     20.6305                 1.4508                 8.2951

                     19                     20                     21
                      A                      A                      A
 Frequencies --    426.8109               462.0984               493.0638
 Red. masses --      3.2463                 2.8600                 3.6065
 Frc consts  --      0.3484                 0.3598                 0.5166
 IR Inten    --      0.2308                 1.5985                 3.7094

                     22                     23                     24
                      A                      A                      A
 Frequencies --    538.1505               574.0052               631.9028
 Red. masses --      2.4760                 4.2017                 4.2952
 Frc consts  --      0.4225                 0.8157                 1.0105
 IR Inten    --      6.0068                11.2774                 8.3159

                     25                     26                     27
                      A                      A                      A
 Frequencies --    660.2423               729.7585               742.5406
 Red. masses --      6.8819                 4.2831                 4.5419
 Frc consts  --      1.7675                 1.3439                 1.4754
 IR Inten    --      0.9681                 3.5549                 5.2805

                     28                     29                     30
                      A                      A                      A
 Frequencies --    758.3408               804.7393               815.8939
 Red. masses --     10.6869                 1.2635                 5.3513
 Frc consts  --      3.6210                 0.4821                 2.0988
 IR Inten    --     18.7188                 1.4155                 9.1413

                     31                     32                     33
                      A                      A                      A
 Frequencies --    828.7995               913.5692               926.7136
 Red. masses --      1.8351                 4.3914                 1.2988
 Frc consts  --      0.7427                 2.1594                 0.6572
 IR Inten    --     47.9893                 2.0107                 1.0079

                     34                     35                     36
                      A                      A                      A
 Frequencies --    943.0843               976.3421              1031.4679
 Red. masses --      1.3361                 3.1139                 2.9689
 Frc consts  --      0.7001                 1.7489                 1.8610
 IR Inten    --      2.1266                30.6521                 3.1082

                     37                     38                     39
                      A                      A                      A
 Frequencies --   1084.9515              1092.7887              1147.6591
 Red. masses --      3.9298                 1.5198                 1.7599
 Frc consts  --      2.7255                 1.0693                 1.3658
 IR Inten    --     17.5761                25.9084                48.9429

                     40                     41                     42
                      A                      A                      A
 Frequencies --   1151.4984              1159.6628              1163.9898
 Red. masses --      1.2349                 1.3737                 1.4355
 Frc consts  --      0.9647                 1.0884                 1.1459
 IR Inten    --      1.7342                65.5208                25.6950

                     43                     44                     45
                      A                      A                      A
 Frequencies --   1168.8983              1190.0191              1196.1024
 Red. masses --      1.6230                 1.2807                 2.2329
 Frc consts  --      1.3065                 1.0686                 1.8822
 IR Inten    --     34.1682                 3.3391               273.1614

                     46                     47                     48
                      A                      A                      A
 Frequencies --   1211.0324              1223.0987              1241.0559
 Red. masses --      1.7166                 1.6847                 1.2121
 Frc consts  --      1.4833                 1.4849                 1.1000
 IR Inten    --     21.1584               167.0904                 1.3974

                     49                     50                     51
                      A                      A                      A
 Frequencies --   1285.4056              1305.5770              1360.8219
 Red. masses --      3.2171                 4.1477                 2.5783
 Frc consts  --      3.1318                 4.1654                 2.8131
 IR Inten    --     66.7779                89.6113                84.0100

                     52                     53                     54
                      A                      A                      A
 Frequencies --   1374.9624              1385.5484              1412.4488
 Red. masses --      2.6346                 2.9111                 3.6946
 Frc consts  --      2.9345                 3.2926                 4.3428
 IR Inten    --     19.1083               361.1921               142.3879

                     55                     56                     57
                      A                      A                      A
 Frequencies --   1468.5006              1478.7992              1487.8917
 Red. masses --      1.3405                 1.1675                 2.1026
 Frc consts  --      1.7032                 1.5043                 2.7425
 IR Inten    --      1.8070                13.4069                 2.8982

                     58                     59                     60
                      A                      A                      A
 Frequencies --   1505.4453              1511.3272              1512.6496
 Red. masses --      1.2774                 1.0490                 1.0496
 Frc consts  --      1.7057                 1.4117                 1.4149
 IR Inten    --    110.7790                 4.6528                 4.8376

                     61                     62                     63
                      A                      A                      A
 Frequencies --   1513.2019              1519.8171              1522.7914
 Red. masses --      1.2095                 1.0641                 1.0638
 Frc consts  --      1.6317                 1.4482                 1.4534
 IR Inten    --     21.2770                19.3883                15.2996

                     64                     65                     66
                      A                      A                      A
 Frequencies --   1530.1105              1543.5041              1548.4430
 Red. masses --      1.0541                 1.0679                 1.1032
 Frc consts  --      1.4540                 1.4990                 1.5585
 IR Inten    --     11.8888                 5.6292                54.4700

                     67                     68                     69
                      A                      A                      A
 Frequencies --   1560.0146              1579.2402              1624.1406
 Red. masses --      1.0625                 2.4256                 6.5059
 Frc consts  --      1.5235                 3.5642                10.1113
 IR Inten    --     42.3694               284.8496                 3.9598

                     70                     71                     72
                      A                      A                      A
 Frequencies --   1684.7827              1804.9847              2984.8682
 Red. masses --      5.6513                11.4201                 1.0542
 Frc consts  --      9.4512                21.9213                 5.5336
 IR Inten    --     40.3586               294.6728                74.2315

                     73                     74                     75
                      A                      A                      A
 Frequencies --   2994.0089              3044.4418              3073.4844
 Red. masses --      1.0579                 1.0497                 1.0292
 Frc consts  --      5.5872                 5.7322                 5.7283
 IR Inten    --    106.8478                47.4995                49.5584

                     76                     77                     78
                      A                      A                      A
 Frequencies --   3076.7820              3080.2195              3131.5812
 Red. masses --      1.0834                 1.0843                 1.0879
 Frc consts  --      6.0426                 6.0613                 6.2862
 IR Inten    --     30.7110                42.8497                20.5997

                     79                     80                     81
                      A                      A                      A
 Frequencies --   3138.0139              3147.6856              3149.1546
 Red. masses --      1.0992                 1.1075                 1.0964
 Frc consts  --      6.3773                 6.4648                 6.4062
 IR Inten    --      3.0113                23.8456                50.0839

                     82                     83                     84
                      A                      A                      A
 Frequencies --   3174.4632              3183.2356              3201.6302
 Red. masses --      1.1072                 1.1028                 1.0885
 Frc consts  --      6.5738                 6.5840                 6.5740
 IR Inten    --     23.0210                13.3054                15.0350

                     85                     86                     87
                      A                      A                      A
 Frequencies --   3229.1251              3233.4262              3253.8150
 Red. masses --      1.0876                 1.0910                 1.0932
 Frc consts  --      6.6815                 6.7205                 6.8190
 IR Inten    --     13.0107                15.6930                 2.7247

 - Thermochemistry -
 -------------------
 Temperature   298.150 Kelvin.  Pressure   1.00000 Atm.
 Atom     1 has atomic number  6 and mass  12.00000

 Molecular mass:   208.12118 amu.
 Principal axes and moments of inertia in atomic units:
                           1         2         3
     Eigenvalues --  1011.741456995.582537732.22266
           X            1.00000  -0.00298   0.00027
           Y            0.00299   0.99990  -0.01390
           Z           -0.00022   0.01390   0.99990
 This molecule is an asymmetric top.
 Rotational symmetry number  1.
 Warning -- assumption of classical behavior for rotation
           may cause significant error
 Rotational temperatures (Kelvin)      0.08561     0.01238     0.01120
 Rotational constants (GHZ):           1.78380     0.25798     0.23341
 Zero-point vibrational energy     690902.7 (Joules/Mol)
                                  165.12970 (Kcal/Mol)
 Warning -- explicit consideration of  23 degrees of freedom as
           vibrations may cause significant error
 Vibrational temperatures:     53.49    72.21    99.66   108.03   165.66
          (Kelvin)            173.25   207.07   220.00   226.94   254.74
                              291.31   351.90   380.73   400.25   446.17
                              553.95   578.96   602.89   614.09   664.86
                              709.41   774.28   825.87   909.17   949.94
                             1049.96  1068.35  1091.08  1157.84  1173.89
                             1192.46  1314.42  1333.33  1356.89  1404.74
                             1484.05  1561.00  1572.28  1651.23  1656.75
                             1668.50  1674.72  1681.78  1712.17  1720.92
                             1742.41  1759.77  1785.60  1849.41  1878.43
                             1957.92  1978.26  1993.50  2032.20  2112.84
                             2127.66  2140.74  2166.00  2174.46  2176.37
                             2177.16  2186.68  2190.96  2201.49  2220.76
                             2227.86  2244.51  2272.17  2336.78  2424.03
                             2596.97  4294.56  4307.71  4380.27  4422.06
                             4426.80  4431.75  4505.65  4514.90  4528.82
                             4530.93  4567.34  4579.97  4606.43  4645.99
                             4652.18  4681.51

 Zero-point correction=                           0.263151 (Hartree/Particle)
 Thermal correction to Energy=                    0.278974
 Thermal correction to Enthalpy=                  0.279919
 Thermal correction to Gibbs Free Energy=         0.219349
 Sum of electronic and zero-point Energies=           -688.551209
 Sum of electronic and thermal Energies=              -688.535385
 Sum of electronic and thermal Enthalpies=            -688.534441
 Sum of electronic and thermal Free Energies=         -688.595011

                     E (Thermal)             CV                S
                      KCal/Mol        Cal/Mol-Kelvin    Cal/Mol-Kelvin
 Total                  175.059             57.380            127.480
 Electronic               0.000              0.000              0.000
 Translational            0.889              2.981             41.903
 Rotational               0.889              2.981             32.370
 Vibrational            173.282             51.419             53.207
 Vibration     1          0.594              1.982              5.404
 Vibration     2          0.595              1.978              4.810
 Vibration     3          0.598              1.969              4.174
 Vibration     4          0.599              1.966              4.015
 Vibration     5          0.608              1.937              3.180
 Vibration     6          0.609              1.932              3.094
 Vibration     7          0.616              1.909              2.751
 Vibration     8          0.619              1.899              2.636
 Vibration     9          0.621              1.894              2.577
 Vibration    10          0.628              1.871              2.359
 Vibration    11          0.639              1.836              2.111
 Vibration    12          0.660              1.772              1.769
 Vibration    13          0.671              1.738              1.631
 Vibration    14          0.679              1.714              1.545
 Vibration    15          0.699              1.654              1.362
 Vibration    16          0.754              1.502              1.019
 Vibration    17          0.768              1.465              0.954
 Vibration    18          0.782              1.429              0.895
 Vibration    19          0.788              1.412              0.869
 Vibration    20          0.820              1.334              0.760
 Vibration    21          0.849              1.265              0.676
 Vibration    22          0.893              1.166              0.569
 Vibration    23          0.930              1.087              0.497

 Optimization completed.
    -- Stationary point found.
 Normal termination of Gaussian 16 at Thu Dec 10 16:18:57 2020.

 ----------------------------------------------------------------------
 # B3LYP/6-311++G(d,p) empiricaldispersion=gd3bj scf=xqc pop=npa geom=c
 heck
 ----------------------------------------------------------------------

 ---------------------------------------
 CID_154313349_JID_5559_Energie_neutraal
 ---------------------------------------
 Structure from the checkpoint file:  "JID_5559.chk"
 Charge =  0 Multiplicity = 1

 SCF Done:  E(RB3LYP) =  -689.006593123     A.U. after   15 cycles
 Normal termination of Gaussian 16 at Thu Dec 10 16:24:16 2020.

 ----------------------------------------------------------------------
 # B3LYP/6-311++G(d,p) empiricaldispersion=gd3bj scf=xqc pop=npa geom=c
 heck
 ----------------------------------------------------------------------

 -------------------------------------
 CID_154313349_JID_5559_Energie_kation
 -------------------------------------
 Structure from the checkpoint file:  "JID_5559.chk"
 Charge =  1 Multiplicity = 2

 SCF Done:  E(UB3LYP) =  -688.756827048     A.U. after   20 cycles
 Normal termination of Gaussian 16 at Thu Dec 10 16:33:26 2020.
 Gaussian 16:  ES64L-G16RevA.03 25-Dec-2016

 ----------------------------------------------------------------------
 # B3LYP/6-311++G(d,p) empiricaldispersion=gd3bj scf=xqc pop=npa geom=c
 heck
 ----------------------------------------------------------------------

 ------------------------------------
 CID_154313349_JID_5559_Energie_anion
 ------------------------------------
 Structure from the checkpoint file:  "JID_5559.chk"
 Charge = -1 Multiplicity = 2

                         Standard orientation:
 ---------------------------------------------------------------------
 Center     Atomic      Atomic             Coordinates (Angstroms)
 Number     Number       Type             X           Y           Z
 ---------------------------------------------------------------------
      1          6           0        4.346393   -1.452729    0.381208
      2          7           0        3.758572   -0.274510   -0.229662
      3          6           0        4.621499    0.873975   -0.432397
      4          6           0        2.388828   -0.061148   -0.086064
      5          6           0        1.799212    1.180447   -0.396416
      6          6           0        0.424271    1.370186   -0.291343
      7          6           0       -0.417834    0.347172    0.151125
      8          6           0        0.158454   -0.883222    0.485488
      9          6           0        1.527257   -1.083874    0.367084
     10          7           0       -1.817994    0.586824    0.300587
     11          6           0       -2.256957    1.916680    0.723057
     12          6           0       -2.728197   -0.355147   -0.116419
     13          8           0       -2.470297   -1.473750   -0.523729
     14          8           0       -4.001704    0.120355   -0.007615
     15          6           0       -5.011720   -0.820428   -0.387503
     16          1           0        5.417869   -1.464934    0.171528
     17          1           0        3.917679   -2.366436   -0.044900
     18          1           0        4.205220   -1.487895    1.474239
     19          1           0        4.359818    1.397461   -1.358783
     20          1           0        4.573138    1.601838    0.394922
     21          1           0        5.653637    0.531500   -0.529965
     22          1           0        2.406941    2.010511   -0.733993
     23          1           0        0.010331    2.336216   -0.562517
     24          1           0       -0.471773   -1.692248    0.829889
     25          1           0        1.924883   -2.053157    0.640675
     26          1           0       -2.413407    2.593747   -0.126633
     27          1           0       -3.193071    1.835717    1.273679
     28          1           0       -1.490237    2.338977    1.375492
     29          1           0       -4.887640   -1.121406   -1.430873
     30          1           0       -4.969173   -1.712089    0.243776
     31          1           0       -5.959484   -0.298305   -0.249183
 ---------------------------------------------------------------------

 SCF Done:  E(UB3LYP) =  -688.993884308     A.U. after   32 cycles

 The electronic state is 2-A.
 Alpha  occ. eigenvalues --  -19.07548 -19.00380 -14.26166 -14.23522 -10.22673
 Alpha  occ. eigenvalues --  -10.13625 -10.11635 -10.11192 -10.11174 -10.10319
 Alpha  occ. eigenvalues --  -10.10059 -10.07925 -10.07594 -10.07301 -10.07268
 Alpha  occ. eigenvalues --   -1.02046  -0.92547  -0.86119  -0.85334  -0.74902
 Alpha  occ. eigenvalues --   -0.66390  -0.65841  -0.63876  -0.62614  -0.61054
 Alpha  occ. eigenvalues --   -0.56667  -0.51552  -0.50600  -0.47084  -0.44863
 Alpha  occ. eigenvalues --   -0.42902  -0.40631  -0.40560  -0.38692  -0.37089
 Alpha  occ. eigenvalues --   -0.36897  -0.36032  -0.35622  -0.34537  -0.33116
 Alpha  occ. eigenvalues --   -0.32432  -0.31985  -0.30990  -0.30674  -0.30389
 Alpha  occ. eigenvalues --   -0.28755  -0.28600  -0.27701  -0.27280  -0.24808
 Alpha  occ. eigenvalues --   -0.21961  -0.20743  -0.19168  -0.16210  -0.15792
 Alpha  occ. eigenvalues --   -0.09558   0.03963
 Alpha virt. eigenvalues --    0.05201   0.06480   0.07289   0.07995   0.08285
 Alpha virt. eigenvalues --    0.08604   0.09069   0.09265   0.09429   0.10264
 Alpha virt. eigenvalues --    0.10527   0.11041   0.11225   0.11449   0.12164

  Beta  occ. eigenvalues --  -19.07543 -19.00374 -14.26164 -14.23519 -10.22671
  Beta  occ. eigenvalues --  -10.13598 -10.11632 -10.11171 -10.11165 -10.10279
  Beta  occ. eigenvalues --  -10.10013 -10.07914 -10.07593 -10.07292 -10.07258
  Beta  occ. eigenvalues --   -1.02037  -0.92537  -0.86109  -0.85319  -0.74886
  Beta  occ. eigenvalues --   -0.66365  -0.65816  -0.63837  -0.62559  -0.61012
  Beta  occ. eigenvalues --   -0.56619  -0.51521  -0.50559  -0.47058  -0.44845
  Beta  occ. eigenvalues --   -0.42864  -0.40611  -0.40534  -0.38661  -0.37057
  Beta  occ. eigenvalues --   -0.36865  -0.36005  -0.35593  -0.34505  -0.33092
  Beta  occ. eigenvalues --   -0.32408  -0.31951  -0.30948  -0.30650  -0.30356
  Beta  occ. eigenvalues --   -0.28727  -0.28556  -0.27678  -0.27255  -0.24789
  Beta  occ. eigenvalues --   -0.21946  -0.20724  -0.19153  -0.16190  -0.15774
  Beta  occ. eigenvalues --   -0.09536
  Beta virt. eigenvalues --    0.05899   0.06364   0.07139   0.07835   0.08207
  Beta virt. eigenvalues --    0.08742   0.08944   0.09372   0.09660   0.09884
  Beta virt. eigenvalues --    0.10473   0.10730   0.11313   0.11540   0.11797

 Mulliken charges and spin densities:
               1          2
     1  C    0.481903  -0.871455
     2  N   -0.166059   0.261772
     3  C    0.704321  -1.094477
     4  C   -0.091387  -0.285169
     5  C   -0.152679   0.216696
     6  C    0.125049  -0.053651
     7  C    0.020563  -0.772108
     8  C    0.096974  -0.035733
     9  C   -0.096010   0.054146
    10  N   -0.091661   0.072659
    11  C    0.554024  -0.955757
    12  C   -0.028867   0.080165
    13  O   -0.316252   0.014032
    14  O   -0.178877   0.059617
    15  C    0.501395  -0.672885
    16  H   -0.431537   0.572851
    17  H   -0.160469   0.306095
    18  H   -0.068839   0.223494
    19  H   -0.227594   0.373715
    20  H   -0.159528   0.316640
    21  H   -0.521485   0.665119
    22  H   -0.104096   0.276439
    23  H   -0.217780   0.386058
    24  H    0.045261   0.174477
    25  H    0.136939   0.016354
    26  H   -0.174434   0.362819
    27  H   -0.109574   0.288398
    28  H   -0.014462   0.175307
    29  H    0.000841   0.173462
    30  H   -0.004207   0.173331
    31  H   -0.351472   0.497588
 Sum of Mulliken charges =  -1.00000   1.00000

 Dipole moment (field-independent basis, Debye):
    X=             -4.0441    Y=             -0.9193    Z=              1.0317  Tot=              4.2737
 Quadrupole moment (field-independent basis, Debye-Ang):
   XX=           -212.4092   YY=           -129.2038   ZZ=           -118.3149
   XY=              2.5839   XZ=              1.9906   YZ=             -1.3918

 Summary of Natural Population Analysis:

                                       Natural Population
                Natural  -----------------------------------------------
    Atom  No    Charge         Core      Valence    Rydberg      Total
 -----------------------------------------------------------------------
      C    1   -0.17474      0.99964     2.16641    0.00869     3.17474
      N    2   -0.25181      0.99967     2.74064    0.01151     3.75181
      C    3   -0.17493      0.99964     2.16665    0.00865     3.17493
      C    4    0.09228      0.99949     1.89690    0.01134     2.90772
      C    5   -0.12478      0.99954     2.11654    0.00870     3.12478
      C    6   -0.10387      0.99953     2.09553    0.00881     3.10387
      C    7    0.06088      0.99946     1.92830    0.01137     2.93912
      C    8   -0.08998      0.99953     2.08182    0.00863     3.08998
      C    9   -0.12284      0.99954     2.11580    0.00750     3.12284
      N   10   -0.25441      0.99961     2.74422    0.01058     3.75441
      C   11   -0.17722      0.99964     2.16943    0.00815     3.17722
      C   12    0.46561      0.99966     1.50930    0.02543     2.53439
      O   13   -0.32873      0.99987     3.32368    0.00518     4.32873
      O   14   -0.28723      0.99987     3.27875    0.00862     4.28723
      C   15   -0.09845      0.99960     2.09060    0.00825     3.09845
      H   16    0.10148      0.00000     0.39718    0.00134     0.39852
      H   17    0.09521      0.00000     0.40328    0.00150     0.40479
      H   18    0.08838      0.00000     0.41015    0.00147     0.41162
      H   19    0.09627      0.00000     0.40201    0.00172     0.40373
      H   20    0.08945      0.00000     0.40883    0.00172     0.41055
      H   21    0.10132      0.00000     0.39705    0.00163     0.39868
      H   22    0.10524      0.00000     0.39349    0.00127     0.39476
      H   23    0.10356      0.00000     0.39521    0.00123     0.39644
      H   24    0.11149      0.00000     0.38749    0.00102     0.38851
      H   25    0.10327      0.00000     0.39565    0.00108     0.39673
      H   26    0.09410      0.00000     0.40444    0.00146     0.40590
      H   27    0.10895      0.00000     0.38961    0.00144     0.39105
      H   28    0.10056      0.00000     0.39834    0.00110     0.39944
      H   29    0.09051      0.00000     0.40809    0.00140     0.40949
      H   30    0.08927      0.00000     0.40931    0.00142     0.41073
      H   31    0.09118      0.00000     0.40726    0.00156     0.40882
 =======================================================================
   * Total *   -0.00000     14.99427    40.83196    0.17377    56.00000

 Normal termination of Gaussian 16 at Thu Dec 10 16:47:21 2020.
