 Gaussian 16, Revision A.03,

 -----------------------------------------------------------
 # opt freq B3LYP/6-31G(d) empiricaldispersion=gd3bj scf=xqc
 -----------------------------------------------------------

 ------------------------------
 CID_71397996_JID_4438_neutraal
 ------------------------------
 Symbolic Z-matrix:
 Charge =  0 Multiplicity = 1

 SCF Done:  E(RB3LYP) =  -1281.73899454     A.U. after   15 cycles
 SCF Done:  E(RB3LYP) =  -1281.76268146     A.U. after   13 cycles
 SCF Done:  E(RB3LYP) =  -1281.76370737     A.U. after   13 cycles
 SCF Done:  E(RB3LYP) =  -1281.74810494     A.U. after   15 cycles
 SCF Done:  E(RB3LYP) =  -1281.75831214     A.U. after   14 cycles
 SCF Done:  E(RB3LYP) =  -1281.76437188     A.U. after   12 cycles
 SCF Done:  E(RB3LYP) =  -1281.76450575     A.U. after   12 cycles
 SCF Done:  E(RB3LYP) =  -1281.76448591     A.U. after   12 cycles
 SCF Done:  E(RB3LYP) =  -1281.76457454     A.U. after   12 cycles
 SCF Done:  E(RB3LYP) =  -1281.76472500     A.U. after   11 cycles
 SCF Done:  E(RB3LYP) =  -1281.77015766     A.U. after    9 cycles
 SCF Done:  E(RB3LYP) =  -1281.77015860     A.U. after    8 cycles
 SCF Done:  E(RB3LYP) =  -1281.77015872     A.U. after    7 cycles
 SCF Done:  E(RB3LYP) =  -1281.77015881     A.U. after    7 cycles
 SCF Done:  E(RB3LYP) =  -1281.77015889     A.U. after    7 cycles
 Optimization completed.
    -- Stationary point found.
 Normal termination of Gaussian 16 at Thu Dec 10 10:13:55 2020.

 --------------------------------------------------------------------
 #N Geom=AllCheck Guess=TCheck SCRF=Check GenChk RB3LYP/6-31G(d) Freq
 --------------------------------------------------------------------

 Structure from the checkpoint file:  "JID_4438.chk"
 ------------------------------
 CID_71397996_JID_4438_neutraal
 ------------------------------
 Charge =  0 Multiplicity = 1

 SCF Done:  E(RB3LYP) =  -1281.77015889     A.U. after    1 cycles

  Exact polarizability: 169.383   4.289 169.447  -7.335   3.053 128.869
 Approx polarizability: 225.572   7.633 254.494 -14.216   8.837 204.893

                      1                      2                      3
                      A                      A                      A
 Frequencies --     32.1792                48.6248                58.6545
 Red. masses --      5.4266                 3.0151                 3.7204
 Frc consts  --      0.0033                 0.0042                 0.0075
 IR Inten    --      0.7656                 0.1117                 0.2122

                      4                      5                      6
                      A                      A                      A
 Frequencies --     67.3616                75.9542                84.5573
 Red. masses --      4.4429                 3.8157                 2.3697
 Frc consts  --      0.0119                 0.0130                 0.0100
 IR Inten    --      2.2310                 1.2797                 0.5404

                      7                      8                      9
                      A                      A                      A
 Frequencies --    102.4635               128.9582               140.0892
 Red. masses --      3.1654                 3.1930                 2.9478
 Frc consts  --      0.0196                 0.0313                 0.0341
 IR Inten    --      0.3800                 1.7113                 2.9068

                     10                     11                     12
                      A                      A                      A
 Frequencies --    152.4254               162.2161               174.9048
 Red. masses --      5.2927                 3.0418                 1.2120
 Frc consts  --      0.0725                 0.0472                 0.0218
 IR Inten    --      3.4376                 1.0071                 0.9839

                     13                     14                     15
                      A                      A                      A
 Frequencies --    188.6028               210.9942               248.8680
 Red. masses --      2.0028                 3.0018                 1.9427
 Frc consts  --      0.0420                 0.0787                 0.0709
 IR Inten    --      0.5073                 0.6294                 3.4511

                     16                     17                     18
                      A                      A                      A
 Frequencies --    256.5341               267.6065               289.4455
 Red. masses --      2.3679                 1.7303                 2.2343
 Frc consts  --      0.0918                 0.0730                 0.1103
 IR Inten    --      3.5982                 0.2984                 1.6322

                     19                     20                     21
                      A                      A                      A
 Frequencies --    315.1249               347.6276               390.1729
 Red. masses --      3.4230                 2.0579                 5.2502
 Frc consts  --      0.2003                 0.1465                 0.4709
 IR Inten    --      1.5952                 1.7648                 0.8855

                     22                     23                     24
                      A                      A                      A
 Frequencies --    432.4054               458.9589               497.9974
 Red. masses --      2.8300                 3.8226                 5.2524
 Frc consts  --      0.3118                 0.4744                 0.7675
 IR Inten    --      0.1855                 1.3702                 0.9589

                     25                     26                     27
                      A                      A                      A
 Frequencies --    509.1016               523.9977               690.6109
 Red. masses --      2.9693                 8.2128                 2.9930
 Frc consts  --      0.4534                 1.3286                 0.8411
 IR Inten    --      1.4559                 0.1869                19.0941

                     28                     29                     30
                      A                      A                      A
 Frequencies --    703.5853               708.3554               765.6360
 Red. masses --      5.2416                 6.1649                 1.4736
 Frc consts  --      1.5288                 1.8225                 0.5090
 IR Inten    --      1.5221                 1.2951                10.1085

                     31                     32                     33
                      A                      A                      A
 Frequencies --    770.7379               801.5466               872.1388
 Red. masses --      4.3955                 1.2486                 1.8175
 Frc consts  --      1.5384                 0.4726                 0.8145
 IR Inten    --     20.0087                 7.6853                 7.9198

                     34                     35                     36
                      A                      A                      A
 Frequencies --    878.8390               886.3651               923.0330
 Red. masses --      2.0728                 1.6678                 1.8486
 Frc consts  --      0.9433                 0.7720                 0.9280
 IR Inten    --      2.6541                 0.1193                 1.8867

                     37                     38                     39
                      A                      A                      A
 Frequencies --    966.2032               989.7862               999.8356
 Red. masses --      3.1153                 1.7154                 1.2062
 Frc consts  --      1.7135                 0.9901                 0.7105
 IR Inten    --      9.7335                 1.5152                 5.6727

                     40                     41                     42
                      A                      A                      A
 Frequencies --   1014.1394              1016.2406              1029.4795
 Red. masses --      1.5641                 1.5164                 1.4164
 Frc consts  --      0.9478                 0.9227                 0.8844
 IR Inten    --      4.4472                12.9455                24.8552

                     43                     44                     45
                      A                      A                      A
 Frequencies --   1058.9212              1097.4391              1108.7310
 Red. masses --      1.9992                 2.2462                 1.6510
 Frc consts  --      1.3208                 1.5939                 1.1958
 IR Inten    --      1.3861                 2.7116                 0.6447

                     46                     47                     48
                      A                      A                      A
 Frequencies --   1114.8630              1154.3448              1174.9027
 Red. masses --      1.7845                 2.0400                 1.2382
 Frc consts  --      1.3068                 1.6016                 1.0071
 IR Inten    --      5.2528                 0.9714                 9.1457

                     49                     50                     51
                      A                      A                      A
 Frequencies --   1198.2356              1247.4589              1256.3296
 Red. masses --      1.8556                 1.3814                 1.1835
 Frc consts  --      1.5697                 1.2665                 1.1006
 IR Inten    --      1.2400                 1.6758                 2.5842

                     52                     53                     54
                      A                      A                      A
 Frequencies --   1290.8103              1297.1351              1310.7109
 Red. masses --      1.2231                 1.1914                 1.2264
 Frc consts  --      1.2007                 1.1810                 1.2414
 IR Inten    --      2.8337                 0.5404                 1.6913

                     55                     56                     57
                      A                      A                      A
 Frequencies --   1335.1372              1347.3528              1360.4481
 Red. masses --      1.2212                 1.2529                 1.3531
 Frc consts  --      1.2826                 1.3401                 1.4755
 IR Inten    --      6.0989                 2.3398                 1.6597

                     58                     59                     60
                      A                      A                      A
 Frequencies --   1390.1314              1392.7573              1396.8470
 Red. masses --      1.2181                 1.2656                 1.3860
 Frc consts  --      1.3869                 1.4464                 1.5933
 IR Inten    --      5.5523                 1.1897                 3.0400

                     61                     62                     63
                      A                      A                      A
 Frequencies --   1409.7043              1439.1388              1443.0562
 Red. masses --      1.3833                 1.2158                 1.2660
 Frc consts  --      1.6197                 1.4836                 1.5533
 IR Inten    --      5.0215                 2.2140                 7.0163

                     64                     65                     66
                      A                      A                      A
 Frequencies --   1495.6970              1511.1963              1512.2432
 Red. masses --      1.0496                 1.0784                 1.0793
 Frc consts  --      1.3834                 1.4510                 1.4542
 IR Inten    --      8.7834                 3.4182                 1.7314

                     67                     68                     69
                      A                      A                      A
 Frequencies --   1514.0432              1517.9394              1528.7724
 Red. masses --      1.0541                 1.0746                 1.0447
 Frc consts  --      1.4236                 1.4589                 1.4385
 IR Inten    --     13.6372                 1.2457                 2.9083

                     70                     71                     72
                      A                      A                      A
 Frequencies --   1531.1169              1540.8606              1543.2570
 Red. masses --      1.0566                 1.0506                 1.0582
 Frc consts  --      1.4595                 1.4697                 1.4848
 IR Inten    --      4.4956                 4.3030                 3.9546

                     73                     74                     75
                      A                      A                      A
 Frequencies --   1746.0949              2349.8368              3021.1054
 Red. masses --      6.0360                12.6581                 1.0665
 Frc consts  --     10.8426                41.1806                 5.7354
 IR Inten    --     12.9429                 6.9980                36.1533

                     76                     77                     78
                      A                      A                      A
 Frequencies --   3044.4355              3046.3603              3049.5947
 Red. masses --      1.0481                 1.0501                 1.0379
 Frc consts  --      5.7236                 5.7419                 5.6873
 IR Inten    --     15.1904                32.8880                41.7198

                     79                     80                     81
                      A                      A                      A
 Frequencies --   3056.0910              3064.8319              3073.3999
 Red. masses --      1.0659                 1.0312                 1.0826
 Frc consts  --      5.8655                 5.7072                 6.0250
 IR Inten    --     10.6249                20.4781                 3.6503

                     82                     83                     84
                      A                      A                      A
 Frequencies --   3075.7774              3077.9415              3079.9917
 Red. masses --      1.0852                 1.0939                 1.0978
 Frc consts  --      6.0489                 6.1058                 6.1356
 IR Inten    --      3.5623                10.5437                18.9950

                     85                     86                     87
                      A                      A                      A
 Frequencies --   3107.4937              3112.3786              3112.5287
 Red. masses --      1.1003                 1.1011                 1.1018
 Frc consts  --      6.2602                 6.2846                 6.2892
 IR Inten    --     20.1837                46.9544                37.0091

                     88                     89                     90
                      A                      A                      A
 Frequencies --   3118.5013              3128.1449              3146.2629
 Red. masses --      1.1017                 1.0895                 1.1017
 Frc consts  --      6.3126                 6.2812                 6.4256
 IR Inten    --     51.6660                29.4316                13.9903

                     91                     92                     93
                      A                      A                      A
 Frequencies --   3151.2775              3163.0458              3163.4058
 Red. masses --      1.1066                 1.0891                 1.1046
 Frc consts  --      6.4744                 6.4202                 6.5127
 IR Inten    --      7.7078                 9.0102                 2.7900

 - Thermochemistry -
 -------------------
 Temperature   298.150 Kelvin.  Pressure   1.00000 Atm.
 Atom     1 has atomic number  6 and mass  12.00000

 Molecular mass:   229.09589 amu.
 Principal axes and moments of inertia in atomic units:
                           1         2         3
     Eigenvalues --  3415.438424272.891346232.73332
           X            0.99982  -0.01834  -0.00479
           Y            0.01833   0.99983  -0.00252
           Z            0.00483   0.00244   0.99999
 This molecule is an asymmetric top.
 Rotational symmetry number  1.
 Warning -- assumption of classical behavior for rotation
           may cause significant error
 Rotational temperatures (Kelvin)      0.02536     0.02027     0.01390
 Rotational constants (GHZ):           0.52841     0.42237     0.28956
 Zero-point vibrational energy     739235.0 (Joules/Mol)
                                  176.68140 (Kcal/Mol)
 Warning -- explicit consideration of  26 degrees of freedom as
           vibrations may cause significant error
 Vibrational temperatures:     46.30    69.96    84.39    96.92   109.28
          (Kelvin)            121.66   147.42   185.54   201.56   219.31
                              233.39   251.65   271.36   303.57   358.07
                              369.10   385.03   416.45   453.39   500.16
                              561.37   622.13   660.34   716.51   732.48
                              753.92   993.63  1012.30  1019.17  1101.58
                             1108.92  1153.25  1254.81  1264.45  1275.28
                             1328.04  1390.15  1424.08  1438.54  1459.12
                             1462.14  1481.19  1523.55  1578.97  1595.22
                             1604.04  1660.84  1690.42  1723.99  1794.82
                             1807.58  1857.19  1866.29  1885.82  1920.96
                             1938.54  1957.38  2000.09  2003.87  2009.75
                             2028.25  2070.60  2076.24  2151.97  2174.27
                             2175.78  2178.37  2183.98  2199.56  2202.94
                             2216.95  2220.40  2512.24  3380.89  4346.70
                             4380.26  4383.03  4387.69  4397.03  4409.61
                             4421.94  4425.36  4428.47  4431.42  4470.99
                             4478.02  4478.23  4486.83  4500.70  4526.77
                             4533.99  4550.92  4551.44

 Zero-point correction=                           0.281560 (Hartree/Particle)
 Thermal correction to Energy=                    0.299819
 Thermal correction to Enthalpy=                  0.300763
 Thermal correction to Gibbs Free Energy=         0.234142
 Sum of electronic and zero-point Energies=          -1281.488599
 Sum of electronic and thermal Energies=             -1281.470340
 Sum of electronic and thermal Enthalpies=           -1281.469395
 Sum of electronic and thermal Free Energies=        -1281.536017

                     E (Thermal)             CV                S
                      KCal/Mol        Cal/Mol-Kelvin    Cal/Mol-Kelvin
 Total                  188.139             64.093            140.217
 Electronic               0.000              0.000              0.000
 Translational            0.889              2.981             42.189
 Rotational               0.889              2.981             32.875
 Vibrational            186.362             58.132             65.153
 Vibration     1          0.594              1.983              5.690
 Vibration     2          0.595              1.978              4.873
 Vibration     3          0.596              1.974              4.502
 Vibration     4          0.598              1.970              4.229
 Vibration     5          0.599              1.965              3.993
 Vibration     6          0.601              1.960              3.782
 Vibration     7          0.605              1.947              3.407
 Vibration     8          0.611              1.924              2.962
 Vibration     9          0.615              1.913              2.803
 Vibration    10          0.619              1.900              2.642
 Vibration    11          0.622              1.889              2.524
 Vibration    12          0.627              1.873              2.382
 Vibration    13          0.633              1.856              2.242
 Vibration    14          0.643              1.824              2.035
 Vibration    15          0.662              1.765              1.739
 Vibration    16          0.666              1.752              1.685
 Vibration    17          0.673              1.733              1.612
 Vibration    18          0.686              1.693              1.477
 Vibration    19          0.702              1.645              1.335
 Vibration    20          0.725              1.580              1.177
 Vibration    21          0.758              1.491              0.999
 Vibration    22          0.793              1.400              0.851
 Vibration    23          0.817              1.341              0.769
 Vibration    24          0.853              1.254              0.663
 Vibration    25          0.864              1.230              0.636
 Vibration    26          0.879              1.197              0.601

 Optimization completed.
    -- Stationary point found.
 Normal termination of Gaussian 16 at Thu Dec 10 10:23:18 2020.

 ----------------------------------------------------------------------
 # B3LYP/6-311++G(d,p) empiricaldispersion=gd3bj scf=xqc pop=npa geom=c
 heck
 ----------------------------------------------------------------------

 --------------------------------------
 CID_71397996_JID_4438_Energie_neutraal
 --------------------------------------
 Structure from the checkpoint file:  "JID_4438.chk"
 Charge =  0 Multiplicity = 1

 SCF Done:  E(RB3LYP) =  -1281.95994883     A.U. after   15 cycles
 Normal termination of Gaussian 16 at Thu Dec 10 10:27:30 2020.

 ----------------------------------------------------------------------
 # B3LYP/6-311++G(d,p) empiricaldispersion=gd3bj scf=xqc pop=npa geom=c
 heck
 ----------------------------------------------------------------------

 ------------------------------------
 CID_71397996_JID_4438_Energie_kation
 ------------------------------------
 Structure from the checkpoint file:  "JID_4438.chk"
 Charge =  1 Multiplicity = 2

 SCF Done:  E(UB3LYP) =  -1281.65073106     A.U. after   26 cycles
 Normal termination of Gaussian 16 at Thu Dec 10 10:38:15 2020.
 Gaussian 16:  ES64L-G16RevA.03 25-Dec-2016

 ----------------------------------------------------------------------
 # B3LYP/6-311++G(d,p) empiricaldispersion=gd3bj scf=xqc pop=npa geom=c
 heck
 ----------------------------------------------------------------------

 -----------------------------------
 CID_71397996_JID_4438_Energie_anion
 -----------------------------------
 Structure from the checkpoint file:  "JID_4438.chk"
 Charge = -1 Multiplicity = 2

                         Standard orientation:
 ---------------------------------------------------------------------
 Center     Atomic      Atomic             Coordinates (Angstroms)
 Number     Number       Type             X           Y           Z
 ---------------------------------------------------------------------
      1          6           0       -3.895131    1.709175   -0.186777
      2          6           0       -2.633393    1.932288   -1.025425
      3          6           0       -1.338186    2.011526   -0.201491
      4          6           0       -1.062749    0.734547    0.608739
      5          6           0       -0.963776   -0.493554   -0.238510
      6          6           0       -1.637131   -1.622680   -0.003793
      7          6           0       -1.537361   -2.873676   -0.826286
      8          6           0       -1.020777   -4.064979   -0.002481
      9         16           0        0.410833    0.969523    1.750859
     10          6           0        1.874576    0.385115    0.816559
     11          6           0        1.898118   -1.055504    0.569229
     12          7           0        2.001965   -2.190213    0.343373
     13         16           0        2.166661    1.333144   -0.746997
     14          6           0        3.708524    0.528086   -1.309754
     15          1           0       -3.894496    0.720830    0.286045
     16          1           0       -4.795080    1.772233   -0.808021
     17          1           0       -3.983108    2.461918    0.606600
     18          1           0       -2.543036    1.128990   -1.767018
     19          1           0       -2.731811    2.867560   -1.591082
     20          1           0       -0.492924    2.197690   -0.872579
     21          1           0       -1.387570    2.862827    0.488319
     22          1           0       -1.856650    0.592176    1.349477
     23          1           0       -0.303376   -0.427406   -1.102318
     24          1           0       -2.290263   -1.674356    0.870431
     25          1           0       -2.528077   -3.120539   -1.235929
     26          1           0       -0.874352   -2.698156   -1.681828
     27          1           0       -1.668528   -4.255667    0.861768
     28          1           0       -0.996968   -4.975905   -0.610822
     29          1           0       -0.009561   -3.866179    0.363253
     30          1           0        2.696784    0.611564    1.504677
     31          1           0        4.520312    0.683372   -0.593272
     32          1           0        3.554411   -0.540652   -1.477222
     33          1           0        3.974350    1.006449   -2.255932
 ---------------------------------------------------------------------

 SCF Done:  E(UB3LYP) =  -1281.94719996     A.U. after   33 cycles
 SCF Done:  E(UB3LYP) =  -1281.94719996     a.u. after    1 cycles

 The electronic state is 2-A.
 Alpha  occ. eigenvalues --  -88.75931 -88.75831 -14.21718 -10.17128 -10.11895
 Alpha  occ. eigenvalues --  -10.11673 -10.09804 -10.07865 -10.07704 -10.07621
 Alpha  occ. eigenvalues --  -10.07314 -10.07171 -10.06923 -10.06551  -7.84492
 Alpha  occ. eigenvalues --   -7.84396  -5.80933  -5.80837  -5.80540  -5.80416
 Alpha  occ. eigenvalues --   -5.79793  -5.79726  -0.81716  -0.75364  -0.72762
 Alpha  occ. eigenvalues --   -0.70092  -0.67556  -0.65316  -0.62060  -0.58592
 Alpha  occ. eigenvalues --   -0.54871  -0.53463  -0.51374  -0.47716  -0.46292
 Alpha  occ. eigenvalues --   -0.42445  -0.38938  -0.36461  -0.36365  -0.35563
 Alpha  occ. eigenvalues --   -0.34888  -0.34353  -0.33074  -0.32580  -0.30805
 Alpha  occ. eigenvalues --   -0.30005  -0.29698  -0.28528  -0.27925  -0.27416
 Alpha  occ. eigenvalues --   -0.26918  -0.25737  -0.25456  -0.24899  -0.24735
 Alpha  occ. eigenvalues --   -0.24250  -0.23527  -0.22012  -0.21553  -0.15656
 Alpha  occ. eigenvalues --   -0.14488  -0.14207   0.04357
 Alpha virt. eigenvalues --    0.05517   0.06358   0.06909   0.07735   0.07947
 Alpha virt. eigenvalues --    0.08320   0.08680   0.09105   0.09447   0.09594
 Alpha virt. eigenvalues --    0.10394   0.10682   0.11591   0.11921   0.12097

  Beta  occ. eigenvalues --  -88.75926 -88.75817 -14.21683 -10.17092 -10.11877
  Beta  occ. eigenvalues --  -10.11645 -10.09728 -10.07870 -10.07698 -10.07609
  Beta  occ. eigenvalues --  -10.07232 -10.07143 -10.06897 -10.06534  -7.84487
  Beta  occ. eigenvalues --   -7.84382  -5.80926  -5.80806  -5.80528  -5.80399
  Beta  occ. eigenvalues --   -5.79791  -5.79716  -0.81645  -0.75292  -0.72688
  Beta  occ. eigenvalues --   -0.70013  -0.67496  -0.65243  -0.61987  -0.58517
  Beta  occ. eigenvalues --   -0.54788  -0.53364  -0.51319  -0.47642  -0.46211
  Beta  occ. eigenvalues --   -0.42326  -0.38891  -0.36423  -0.36307  -0.35490
  Beta  occ. eigenvalues --   -0.34852  -0.34300  -0.32990  -0.32520  -0.30759
  Beta  occ. eigenvalues --   -0.29956  -0.29639  -0.28465  -0.27878  -0.27355
  Beta  occ. eigenvalues --   -0.26843  -0.25650  -0.25394  -0.24870  -0.24670
  Beta  occ. eigenvalues --   -0.24184  -0.23489  -0.21912  -0.21477  -0.15403
  Beta  occ. eigenvalues --   -0.14379  -0.14148
  Beta virt. eigenvalues --    0.06162   0.06739   0.06903   0.07248   0.07954
  Beta virt. eigenvalues --    0.08169   0.08787   0.08860   0.09589   0.09689
  Beta virt. eigenvalues --    0.09946   0.10544   0.11001   0.11686   0.11920

 Mulliken charges and spin densities:
               1          2
     1  C    0.411791  -1.077600
     2  C   -0.817833   0.646552
     3  C    0.031619  -0.477907
     4  C    0.479830  -0.101588
     5  C   -0.306226  -0.010146
     6  C   -0.009606   0.043435
     7  C   -0.380808  -0.009686
     8  C   -0.393491  -0.251497
     9  S   -0.019381   0.095297
    10  C    0.921220  -0.571353
    11  C   -0.388286  -0.256113
    12  N   -0.287070   0.063803
    13  S   -0.219782   0.211348
    14  C    0.674180  -1.232627
    15  H    0.005083   0.128363
    16  H   -0.442376   0.583658
    17  H   -0.038417   0.173456
    18  H    0.153416  -0.028779
    19  H   -0.094655   0.256624
    20  H    0.133930  -0.005784
    21  H    0.081365   0.063166
    22  H    0.248644   0.040267
    23  H    0.193148   0.000809
    24  H    0.044540   0.103524
    25  H    0.001962   0.144433
    26  H    0.123041   0.000987
    27  H    0.049014   0.072142
    28  H    0.028473   0.093459
    29  H    0.198877  -0.014103
    30  H   -0.481957   0.863314
    31  H   -0.452097   0.639011
    32  H   -0.031593   0.229675
    33  H   -0.416557   0.583860
 Sum of Mulliken charges =  -1.00000   1.00000

 Dipole moment (field-independent basis, Debye):
    X=             -3.9245    Y=             -0.8878    Z=              0.0108  Tot=              4.0236
 Quadrupole moment (field-independent basis, Debye-Ang):
   XX=           -196.5838   YY=           -150.4899   ZZ=           -131.7603
   XY=              3.4049   XZ=             -4.1951   YZ=              0.9393

 Summary of Natural Population Analysis:

                                       Natural Population
                Natural  -----------------------------------------------
    Atom  No    Charge         Core      Valence    Rydberg      Total
 -----------------------------------------------------------------------
      C    1   -0.28848      0.99967     2.28379    0.00502     3.28848
      C    2   -0.19217      0.99964     2.18387    0.00867     3.19217
      C    3   -0.19447      0.99960     2.18447    0.01040     3.19447
      C    4   -0.16518      0.99952     2.15253    0.01313     3.16518
      C    5   -0.11667      0.99948     2.10438    0.01281     3.11667
      C    6   -0.05444      0.99951     2.04519    0.00974     3.05444
      C    7   -0.20651      0.99963     2.19783    0.00905     3.20651
      C    8   -0.28474      0.99966     2.27981    0.00527     3.28474
      S    9    0.13019      4.99959     2.85385    0.01636     7.86981
      C   10   -0.29901      0.99946     2.28167    0.01789     3.29901
      C   11    0.15097      0.99960     1.83084    0.01859     2.84903
      N   12   -0.17868      0.99978     2.66783    0.01107     3.67868
      S   13    0.11158      4.99960     2.86989    0.01893     7.88842
      C   14   -0.35139      0.99962     2.34512    0.00665     3.35139
      H   15    0.09673      0.00000     0.40216    0.00112     0.40327
      H   16    0.10035      0.00000     0.39855    0.00109     0.39965
      H   17    0.09499      0.00000     0.40398    0.00102     0.40501
      H   18    0.09833      0.00000     0.40067    0.00100     0.40167
      H   19    0.09633      0.00000     0.40269    0.00098     0.40367
      H   20    0.10579      0.00000     0.39325    0.00096     0.39421
      H   21    0.09909      0.00000     0.39983    0.00109     0.40091
      H   22    0.10518      0.00000     0.39304    0.00177     0.39482
      H   23    0.10139      0.00000     0.39730    0.00131     0.39861
      H   24    0.08633      0.00000     0.41255    0.00111     0.41367
      H   25    0.09756      0.00000     0.40126    0.00118     0.40244
      H   26    0.09840      0.00000     0.40072    0.00088     0.40160
      H   27    0.09223      0.00000     0.40698    0.00079     0.40777
      H   28    0.09447      0.00000     0.40476    0.00077     0.40553
      H   29    0.11136      0.00000     0.38780    0.00084     0.38864
      H   30    0.13457      0.00000     0.36202    0.00341     0.36543
      H   31    0.10747      0.00000     0.38783    0.00470     0.39253
      H   32    0.10753      0.00000     0.39080    0.00167     0.39247
      H   33    0.11089      0.00000     0.38782    0.00129     0.38911
 =======================================================================
   * Total *   -0.00000     21.99434    39.81510    0.19056    62.00000

 Normal termination of Gaussian 16 at Thu Dec 10 10:52:36 2020.
