 Gaussian 16, Revision A.03,

 -----------------------------------------------------------
 # opt freq B3LYP/6-31G(d) empiricaldispersion=gd3bj scf=xqc
 -----------------------------------------------------------

 -------------------------------
 CID_142021906_JID_1393_neutraal
 -------------------------------
 Symbolic Z-matrix:
 Charge =  0 Multiplicity = 1

 SCF Done:  E(RB3LYP) =  -1181.07893215     A.U. after   14 cycles
 SCF Done:  E(RB3LYP) =  -1181.07839963     A.U. after   14 cycles
 SCF Done:  E(RB3LYP) =  -1181.08282587     A.U. after   12 cycles
 SCF Done:  E(RB3LYP) =  -1181.08380487     A.U. after   13 cycles
 SCF Done:  E(RB3LYP) =  -1181.08416879     A.U. after   14 cycles
 SCF Done:  E(RB3LYP) =  -1181.08440193     A.U. after   12 cycles
 SCF Done:  E(RB3LYP) =  -1181.08470989     A.U. after   13 cycles
 SCF Done:  E(RB3LYP) =  -1181.08499926     A.U. after   12 cycles
 SCF Done:  E(RB3LYP) =  -1181.08513673     A.U. after   11 cycles
 SCF Done:  E(RB3LYP) =  -1181.08529435     A.U. after   12 cycles
 SCF Done:  E(RB3LYP) =  -1181.08760912     A.U. after    8 cycles
 SCF Done:  E(RB3LYP) =  -1181.08761727     A.U. after   10 cycles
 SCF Done:  E(RB3LYP) =  -1181.08762264     A.U. after   10 cycles
 SCF Done:  E(RB3LYP) =  -1181.08762651     A.U. after   10 cycles
 SCF Done:  E(RB3LYP) =  -1181.08762668     A.U. after    7 cycles
 SCF Done:  E(RB3LYP) =  -1181.08762670     A.U. after    7 cycles
 Optimization completed.
    -- Stationary point found.
 Normal termination of Gaussian 16 at Tue Dec  8 20:40:20 2020.

 --------------------------------------------------------------------
 #N Geom=AllCheck Guess=TCheck SCRF=Check GenChk RB3LYP/6-31G(d) Freq
 --------------------------------------------------------------------

 Structure from the checkpoint file:  "JID_1393.chk"
 -------------------------------
 CID_142021906_JID_1393_neutraal
 -------------------------------
 Charge =  0 Multiplicity = 1

 SCF Done:  E(RB3LYP) =  -1181.08762670     A.U. after    1 cycles

  Exact polarizability: 139.535  -6.621 108.478  -3.929 -11.431 106.339
 Approx polarizability: 202.020 -15.937 163.913  -4.546 -29.927 179.972

                      1                      2                      3
                      A                      A                      A
 Frequencies --     30.4321                32.7530                59.7120
 Red. masses --      4.3039                 4.5483                 4.4851
 Frc consts  --      0.0023                 0.0029                 0.0094
 IR Inten    --      0.1169                 1.0134                 1.4496

                      4                      5                      6
                      A                      A                      A
 Frequencies --     62.6662                68.1117                89.2321
 Red. masses --      1.9086                 3.5224                 3.5945
 Frc consts  --      0.0044                 0.0096                 0.0169
 IR Inten    --      0.4948                 1.2066                 0.7531

                      7                      8                      9
                      A                      A                      A
 Frequencies --    106.7836               116.0031               125.1460
 Red. masses --      2.8223                 1.3817                 2.8454
 Frc consts  --      0.0190                 0.0110                 0.0263
 IR Inten    --      0.5851                 0.5647                 1.7931

                     10                     11                     12
                      A                      A                      A
 Frequencies --    153.0674               229.2597               263.8847
 Red. masses --      4.1375                 1.6738                 1.1702
 Frc consts  --      0.0571                 0.0518                 0.0480
 IR Inten    --      0.6838                10.0384                68.3894

                     13                     14                     15
                      A                      A                      A
 Frequencies --    294.3661               307.6368               330.5454
 Red. masses --      2.0473                 2.2516                 1.0140
 Frc consts  --      0.1045                 0.1256                 0.0653
 IR Inten    --     14.2128                10.4040                 0.0881

                     16                     17                     18
                      A                      A                      A
 Frequencies --    365.6419               391.5363               533.6677
 Red. masses --      3.0535                 4.2847                 5.9729
 Frc consts  --      0.2405                 0.3870                 1.0023
 IR Inten    --     12.2975                 0.0854                 2.7871

                     19                     20                     21
                      A                      A                      A
 Frequencies --    574.0858               646.3130               653.3234
 Red. masses --      6.4152                 4.6313                 4.9233
 Frc consts  --      1.2457                 1.1398                 1.2381
 IR Inten    --      2.9716                 8.8582                 2.8352

                     22                     23                     24
                      A                      A                      A
 Frequencies --    695.7496               724.5394               759.8833
 Red. masses --      3.4262                 3.9882                 1.3993
 Frc consts  --      0.9772                 1.2335                 0.4761
 IR Inten    --     13.1936                 3.4845                43.6921

                     25                     26                     27
                      A                      A                      A
 Frequencies --    811.4172               835.9357               841.7468
 Red. masses --      1.4957                 1.0559                 1.0578
 Frc consts  --      0.5802                 0.4347                 0.4416
 IR Inten    --      8.3452                 4.3390                13.0724

                     28                     29                     30
                      A                      A                      A
 Frequencies --    855.5543               889.9069               967.8284
 Red. masses --      4.0341                 1.2743                 3.4592
 Frc consts  --      1.7398                 0.5946                 1.9091
 IR Inten    --      8.0503               125.1802                 8.3650

                     31                     32                     33
                      A                      A                      A
 Frequencies --   1012.2636              1018.7106              1041.4651
 Red. masses --      3.2806                 2.2191                 1.9212
 Frc consts  --      1.9806                 1.3568                 1.2278
 IR Inten    --      0.7413                23.8175                12.6045

                     34                     35                     36
                      A                      A                      A
 Frequencies --   1087.4963              1138.8062              1175.3244
 Red. masses --      1.7860                 2.1885                 1.1744
 Frc consts  --      1.2445                 1.6722                 0.9559
 IR Inten    --      2.5139                53.4681                 2.8191

                     37                     38                     39
                      A                      A                      A
 Frequencies --   1191.3950              1236.9743              1240.4729
 Red. masses --      1.6779                 1.4601                 1.4560
 Frc consts  --      1.4032                 1.3163                 1.3201
 IR Inten    --     17.0103                 0.4585                 0.3114

                     40                     41                     42
                      A                      A                      A
 Frequencies --   1259.3632              1305.9777              1312.6393
 Red. masses --      1.3531                 1.3733                 1.2085
 Frc consts  --      1.2644                 1.3800                 1.2268
 IR Inten    --     20.6606                 5.8138                 3.3176

                     43                     44                     45
                      A                      A                      A
 Frequencies --   1363.7535              1431.4688              1440.0876
 Red. masses --      3.4962                 1.2013                 1.4724
 Frc consts  --      3.8311                 1.4504                 1.7991
 IR Inten    --      6.1445                 2.5088                24.2136

                     46                     47                     48
                      A                      A                      A
 Frequencies --   1455.6929              1489.0314              1531.4154
 Red. masses --      1.2512                 1.1098                 1.0329
 Frc consts  --      1.5621                 1.4498                 1.4272
 IR Inten    --      3.8149                 5.8872                 3.7919

                     49                     50                     51
                      A                      A                      A
 Frequencies --   1533.0204              1535.8765              1538.5752
 Red. masses --      1.0975                 1.0734                 1.0574
 Frc consts  --      1.5197                 1.4919                 1.4748
 IR Inten    --      3.8966                 5.0210                 9.5650

                     52                     53                     54
                      A                      A                      A
 Frequencies --   1546.0113              1549.2164              1591.3352
 Red. masses --      3.8113                 1.1376                 7.4767
 Frc consts  --      5.3672                 1.6086                11.1554
 IR Inten    --     21.5545                 7.4919                20.6409

                     55                     56                     57
                      A                      A                      A
 Frequencies --   1690.0370              2697.3805              2951.4040
 Red. masses --      1.0860                 1.0383                 1.0736
 Frc consts  --      1.8276                 4.4510                 5.5098
 IR Inten    --     37.7043                 3.1130                72.8691

                     58                     59                     60
                      A                      A                      A
 Frequencies --   3040.7468              3053.2757              3083.7011
 Red. masses --      1.0368                 1.0360                 1.0878
 Frc consts  --      5.6482                 5.6901                 6.0944
 IR Inten    --     23.9334                24.0721                30.5667

                     61                     62                     63
                      A                      A                      A
 Frequencies --   3093.1439              3103.4435              3104.8208
 Red. masses --      1.1007                 1.0587                 1.1007
 Frc consts  --      6.2048                 6.0075                 6.2514
 IR Inten    --     14.6416                 7.8195                 1.4971

                     64                     65                     66
                      A                      A                      A
 Frequencies --   3126.2614              3126.9627              3161.0497
 Red. masses --      1.1026                 1.1026                 1.1082
 Frc consts  --      6.3494                 6.3518                 6.5245
 IR Inten    --     59.8757                46.6515                 1.1452

                     67                     68                     69
                      A                      A                      A
 Frequencies --   3278.5793              3463.5528              3551.1765
 Red. masses --      1.0949                 1.0496                 1.0924
 Frc consts  --      6.9339                 7.4185                 8.1163
 IR Inten    --      1.1431                 3.4444                 0.6568

 - Thermochemistry -
 -------------------
 Temperature   298.150 Kelvin.  Pressure   1.00000 Atm.
 Atom     1 has atomic number  6 and mass  12.00000

 Molecular mass:   190.05984 amu.
 Principal axes and moments of inertia in atomic units:
                           1         2         3
     Eigenvalues --  2015.953623216.669553890.68795
           X            0.99992  -0.01284   0.00218
           Y            0.01272   0.99863   0.05083
           Z           -0.00283  -0.05080   0.99870
 This molecule is an asymmetric top.
 Rotational symmetry number  1.
 Warning -- assumption of classical behavior for rotation
           may cause significant error
 Rotational temperatures (Kelvin)      0.04296     0.02693     0.02226
 Rotational constants (GHZ):           0.89523     0.56106     0.46386
 Zero-point vibrational energy     540524.5 (Joules/Mol)
                                  129.18845 (Kcal/Mol)
 Warning -- explicit consideration of  19 degrees of freedom as
           vibrations may cause significant error
 Vibrational temperatures:     43.78    47.12    85.91    90.16    98.00
          (Kelvin)            128.39   153.64   166.90   180.06   220.23
                              329.85   379.67   423.53   442.62   475.58
                              526.08   563.33   767.83   825.98   929.90
                              939.99  1001.03  1042.45  1093.30  1167.45
                             1202.72  1211.09  1230.95  1280.38  1392.49
                             1456.42  1465.70  1498.44  1564.66  1638.49
                             1691.03  1714.15  1779.73  1784.76  1811.94
                             1879.01  1888.60  1962.14  2059.56  2071.96
                             2094.42  2142.38  2203.37  2205.67  2209.78
                             2213.67  2224.37  2228.98  2289.58  2431.59
                             3880.93  4246.41  4374.96  4392.98  4436.76
                             4450.34  4465.16  4467.14  4497.99  4499.00
                             4548.05  4717.14  4983.28  5109.35

 Zero-point correction=                           0.205875 (Hartree/Particle)
 Thermal correction to Energy=                    0.220886
 Thermal correction to Enthalpy=                  0.221831
 Thermal correction to Gibbs Free Energy=         0.161183
 Sum of electronic and zero-point Energies=          -1180.881752
 Sum of electronic and thermal Energies=             -1180.866740
 Sum of electronic and thermal Enthalpies=           -1180.865796
 Sum of electronic and thermal Free Energies=        -1180.926444

                     E (Thermal)             CV                S
                      KCal/Mol        Cal/Mol-Kelvin    Cal/Mol-Kelvin
 Total                  138.608             50.595            127.643
 Electronic               0.000              0.000              0.000
 Translational            0.889              2.981             41.632
 Rotational               0.889              2.981             31.601
 Vibrational            136.831             44.633             54.410
 Vibration     1          0.594              1.984              5.801
 Vibration     2          0.594              1.983              5.655
 Vibration     3          0.597              1.974              4.467
 Vibration     4          0.597              1.972              4.371
 Vibration     5          0.598              1.969              4.207
 Vibration     6          0.602              1.957              3.677
 Vibration     7          0.606              1.944              3.327
 Vibration     8          0.608              1.936              3.166
 Vibration     9          0.610              1.928              3.019
 Vibration    10          0.619              1.899              2.634
 Vibration    11          0.652              1.796              1.885
 Vibration    12          0.670              1.739              1.636
 Vibration    13          0.689              1.684              1.449
 Vibration    14          0.698              1.659              1.375
 Vibration    15          0.713              1.614              1.257
 Vibration    16          0.739              1.543              1.098
 Vibration    17          0.759              1.488              0.994
 Vibration    18          0.889              1.176              0.579
 Vibration    19          0.930              1.087              0.496

 Optimization completed.
    -- Stationary point found.
 Normal termination of Gaussian 16 at Tue Dec  8 20:46:08 2020.

 ----------------------------------------------------------------------
 # B3LYP/6-311++G(d,p) empiricaldispersion=gd3bj scf=xqc pop=npa geom=c
 heck
 ----------------------------------------------------------------------

 ---------------------------------------
 CID_142021906_JID_1393_Energie_neutraal
 ---------------------------------------
 Structure from the checkpoint file:  "JID_1393.chk"
 Charge =  0 Multiplicity = 1

 SCF Done:  E(RB3LYP) =  -1181.26133641     A.U. after   15 cycles
 Normal termination of Gaussian 16 at Tue Dec  8 20:48:24 2020.

 ----------------------------------------------------------------------
 # B3LYP/6-311++G(d,p) empiricaldispersion=gd3bj scf=xqc pop=npa geom=c
 heck
 ----------------------------------------------------------------------

 -------------------------------------
 CID_142021906_JID_1393_Energie_kation
 -------------------------------------
 Structure from the checkpoint file:  "JID_1393.chk"
 Charge =  1 Multiplicity = 2

 SCF Done:  E(UB3LYP) =  -1180.95563503     A.U. after   25 cycles
 Normal termination of Gaussian 16 at Tue Dec  8 20:54:58 2020.
 Gaussian 16:  ES64L-G16RevA.03 25-Dec-2016

 ----------------------------------------------------------------------
 # B3LYP/6-311++G(d,p) empiricaldispersion=gd3bj scf=xqc pop=npa geom=c
 heck
 ----------------------------------------------------------------------

 ------------------------------------
 CID_142021906_JID_1393_Energie_anion
 ------------------------------------
 Structure from the checkpoint file:  "JID_1393.chk"
 Charge = -1 Multiplicity = 2

                         Standard orientation:
 ---------------------------------------------------------------------
 Center     Atomic      Atomic             Coordinates (Angstroms)
 Number     Number       Type             X           Y           Z
 ---------------------------------------------------------------------
      1          6           0        0.231477    2.976048    0.117050
      2          6           0        0.268551    2.321647    1.499138
      3          6           0       -1.353496   -1.127916    1.213378
      4          6           0       -1.585520   -0.368772    0.102037
      5          7           0       -0.528868   -0.304068   -0.786572
      6          6           0        0.496465   -0.994441   -0.373285
      7         16           0        0.250637   -1.786970    1.174519
      8          6           0        1.787909   -1.067449   -1.117852
      9         16           0        3.028808    0.191812   -0.567265
     10          6           0       -2.836400    0.393317   -0.227719
     11          7           0       -3.360178   -0.043895   -1.528068
     12          1           0        1.197432    3.431711   -0.134672
     13          1           0       -0.522917    3.770320    0.068704
     14          1           0       -0.009441    2.239648   -0.657506
     15          1           0        1.024192    1.529790    1.542554
     16          1           0        0.504633    3.051949    2.281491
     17          1           0       -0.695796    1.865511    1.746461
     18          1           0       -2.027359   -1.337651    2.031915
     19          1           0        2.284024   -2.029794   -0.971704
     20          1           0        1.585993   -0.936903   -2.182537
     21          1           0        2.259358    1.265318   -0.840833
     22          1           0       -3.590650    0.200983    0.543246
     23          1           0       -2.597132    1.471769   -0.182268
     24          1           0       -4.102516    0.589399   -1.821403
     25          1           0       -2.611545    0.051614   -2.213500
 ---------------------------------------------------------------------

 SCF Done:  E(UB3LYP) =  -1181.25506474     A.U. after   31 cycles

 The electronic state is 2-A.
 Alpha  occ. eigenvalues --  -88.73691 -88.72224 -14.17404 -14.17010 -10.09139
 Alpha  occ. eigenvalues --  -10.08800 -10.07800 -10.06956 -10.05362 -10.04425
 Alpha  occ. eigenvalues --  -10.04109  -7.82375  -7.80944  -5.78654  -5.78314
 Alpha  occ. eigenvalues --   -5.77992  -5.77316  -5.76976  -5.76325  -0.82843
 Alpha  occ. eigenvalues --   -0.76247  -0.67986  -0.65901  -0.63874  -0.61595
 Alpha  occ. eigenvalues --   -0.55314  -0.51289  -0.50184  -0.45439  -0.40394
 Alpha  occ. eigenvalues --   -0.38097  -0.34560  -0.33767  -0.32838  -0.32061
 Alpha  occ. eigenvalues --   -0.31816  -0.30184  -0.29818  -0.26289  -0.26023
 Alpha  occ. eigenvalues --   -0.25582  -0.25042  -0.23233  -0.23043  -0.22507
 Alpha  occ. eigenvalues --   -0.22012  -0.15165  -0.14750  -0.13076  -0.12552
 Alpha  occ. eigenvalues --   -0.10702   0.05061
 Alpha virt. eigenvalues --    0.07355   0.08310   0.08723   0.09029   0.10199
 Alpha virt. eigenvalues --    0.10602   0.10915   0.11632   0.12249   0.13403
 Alpha virt. eigenvalues --    0.13735   0.13947   0.14256   0.14911   0.15395

  Beta  occ. eigenvalues --  -88.73640 -88.72175 -14.17374 -14.16894 -10.09114
  Beta  occ. eigenvalues --  -10.08468 -10.07790 -10.06992 -10.05092 -10.04414
  Beta  occ. eigenvalues --  -10.04102  -7.82328  -7.80891  -5.78635  -5.78295
  Beta  occ. eigenvalues --   -5.77812  -5.77246  -5.76906  -5.76288  -0.82525
  Beta  occ. eigenvalues --   -0.76172  -0.67680  -0.65545  -0.63856  -0.61385
  Beta  occ. eigenvalues --   -0.55062  -0.51028  -0.50152  -0.45126  -0.40122
  Beta  occ. eigenvalues --   -0.37973  -0.34411  -0.33649  -0.32741  -0.32014
  Beta  occ. eigenvalues --   -0.31779  -0.30010  -0.29256  -0.26129  -0.25766
  Beta  occ. eigenvalues --   -0.25500  -0.24702  -0.23190  -0.23021  -0.22278
  Beta  occ. eigenvalues --   -0.21717  -0.14588  -0.14149  -0.12808  -0.12445
  Beta  occ. eigenvalues --   -0.09579
  Beta virt. eigenvalues --    0.07636   0.08639   0.08666   0.09105   0.09733
  Beta virt. eigenvalues --    0.10386   0.10772   0.11262   0.11625   0.12381
  Beta virt. eigenvalues --    0.13557   0.13882   0.14149   0.14367   0.15112

 Mulliken charges and spin densities:
               1          2
     1  C   -0.078059  -0.446376
     2  C   -0.341913   0.028961
     3  C   -0.031702   0.240292
     4  C   -0.846508   0.363801
     5  N    0.072346   0.056894
     6  C    0.312454   0.366189
     7  S   -0.405090   0.031098
     8  C   -0.498214  -0.095366
     9  S    0.247699  -0.100889
    10  C    0.541937  -1.168216
    11  N   -0.384291   0.032014
    12  H    0.017762   0.102508
    13  H   -0.062971   0.178170
    14  H    0.110602   0.069159
    15  H    0.053963   0.038658
    16  H   -0.015292   0.134616
    17  H    0.138741   0.000265
    18  H    0.143365   0.058662
    19  H    0.121607   0.070856
    20  H    0.133536   0.078181
    21  H   -0.098969   0.075457
    22  H   -0.089977   0.241325
    23  H   -0.106220   0.242795
    24  H   -0.115969   0.339628
    25  H    0.181165   0.061319
 Sum of Mulliken charges =  -1.00000   1.00000

 Dipole moment (field-independent basis, Debye):
    X=              1.9666    Y=             -1.3904    Z=              1.4944  Tot=              2.8344
 Quadrupole moment (field-independent basis, Debye-Ang):
   XX=           -138.6130   YY=           -111.6237   ZZ=           -103.6466
   XY=             -1.0045   XZ=             -7.0271   YZ=              0.1624

 Summary of Natural Population Analysis:

                                       Natural Population
                Natural  -----------------------------------------------
    Atom  No    Charge         Core      Valence    Rydberg      Total
 -----------------------------------------------------------------------
      C    1   -0.29487      0.99968     2.28972    0.00547     3.29487
      C    2   -0.29234      0.99968     2.28660    0.00606     3.29234
      C    3   -0.15912      0.99945     2.15067    0.00900     3.15912
      C    4    0.04435      0.99949     1.93990    0.01625     2.95565
      N    5   -0.25072      0.99962     2.73907    0.01202     3.75072
      C    6    0.07634      0.99959     1.90644    0.01764     2.92366
      S    7    0.18488      4.99942     2.79513    0.02056     7.81512
      C    8   -0.25228      0.99950     2.24243    0.01035     3.25228
      S    9   -0.02256      4.99967     3.00700    0.01590     8.02256
      C   10   -0.09744      0.99958     2.08514    0.01272     3.09744
      N   11   -0.42109      0.99977     2.91097    0.01034     3.92109
      H   12    0.08983      0.00000     0.40923    0.00095     0.41017
      H   13    0.09225      0.00000     0.40673    0.00102     0.40775
      H   14    0.10816      0.00000     0.39025    0.00159     0.39184
      H   15    0.10407      0.00000     0.39478    0.00115     0.39593
      H   16    0.08737      0.00000     0.41180    0.00083     0.41263
      H   17    0.10030      0.00000     0.39835    0.00135     0.39970
      H   18    0.10277      0.00000     0.39618    0.00105     0.39723
      H   19    0.10506      0.00000     0.39328    0.00167     0.39494
      H   20    0.11025      0.00000     0.38800    0.00175     0.38975
      H   21    0.06131      0.00000     0.43484    0.00386     0.43869
      H   22    0.08958      0.00000     0.40911    0.00131     0.41042
      H   23    0.08471      0.00000     0.41306    0.00222     0.41529
      H   24    0.17093      0.00000     0.32621    0.00285     0.32907
      H   25    0.17827      0.00000     0.31939    0.00234     0.32173
 =======================================================================
   * Total *   -0.00000     18.99546    31.84430    0.16025    51.00000

 Normal termination of Gaussian 16 at Tue Dec  8 21:01:51 2020.
