 Gaussian 16, Revision A.03,

 -----------------------------------------------------------
 # opt freq B3LYP/6-31G(d) empiricaldispersion=gd3bj scf=xqc
 -----------------------------------------------------------

 -----------------------------
 CID_65128185_JID_462_neutraal
 -----------------------------
 Symbolic Z-matrix:
 Charge =  0 Multiplicity = 1

 SCF Done:  E(RB3LYP) =  -833.617325464     A.U. after   14 cycles
 SCF Done:  E(RB3LYP) =  -833.620288971     A.U. after   12 cycles
 SCF Done:  E(RB3LYP) =  -833.620532279     A.U. after   11 cycles
 SCF Done:  E(RB3LYP) =  -833.620519288     A.U. after   12 cycles
 SCF Done:  E(RB3LYP) =  -833.620709855     A.U. after   11 cycles
 SCF Done:  E(RB3LYP) =  -833.620722088     A.U. after   10 cycles
 SCF Done:  E(RB3LYP) =  -833.620727428     A.U. after   10 cycles
 SCF Done:  E(RB3LYP) =  -833.620728865     A.U. after    9 cycles
 SCF Done:  E(RB3LYP) =  -833.620729305     A.U. after    8 cycles
 SCF Done:  E(RB3LYP) =  -833.620729498     A.U. after    8 cycles
 SCF Done:  E(RB3LYP) =  -833.620729594     A.U. after    8 cycles
 SCF Done:  E(RB3LYP) =  -833.620729617     A.U. after    7 cycles
 Optimization completed.
    -- Stationary point found.
 Normal termination of Gaussian 16 at Tue Dec  8 10:38:55 2020.

 --------------------------------------------------------------------
 #N Geom=AllCheck Guess=TCheck SCRF=Check GenChk RB3LYP/6-31G(d) Freq
 --------------------------------------------------------------------

 Structure from the checkpoint file:  "JID_462.chk"
 -----------------------------
 CID_65128185_JID_462_neutraal
 -----------------------------
 Charge =  0 Multiplicity = 1

 SCF Done:  E(RB3LYP) =  -833.620729617     A.U. after    1 cycles

  Exact polarizability: 113.830  -0.411  84.985  -5.153  -0.705  66.645
 Approx polarizability: 149.762   4.243 146.286  -7.918   1.047 103.886

                      1                      2                      3
                      A                      A                      A
 Frequencies --     25.1793                53.4070                95.4917
 Red. masses --      4.2195                 3.4934                 4.0093
 Frc consts  --      0.0016                 0.0059                 0.0215
 IR Inten    --      1.3872                 2.1336                 0.2883

                      4                      5                      6
                      A                      A                      A
 Frequencies --    116.1725               193.3308               244.7930
 Red. masses --      3.2840                 2.8237                 1.9454
 Frc consts  --      0.0261                 0.0622                 0.0687
 IR Inten    --      4.9998                 4.4885                 5.1306

                      7                      8                      9
                      A                      A                      A
 Frequencies --    288.6102               302.4467               355.0298
 Red. masses --      2.2840                 2.0990                 3.2729
 Frc consts  --      0.1121                 0.1131                 0.2431
 IR Inten    --      1.0592                 9.1563                 2.5332

                     10                     11                     12
                      A                      A                      A
 Frequencies --    377.1585               393.6996               451.0827
 Red. masses --      1.1790                 5.6276                 2.6371
 Frc consts  --      0.0988                 0.5139                 0.3162
 IR Inten    --     29.0833                 6.3108                31.5796

                     13                     14                     15
                      A                      A                      A
 Frequencies --    481.2022               619.4219               652.7857
 Red. masses --      1.3527                 5.9823                 4.3085
 Frc consts  --      0.1845                 1.3524                 1.0817
 IR Inten    --    319.7067                 5.7245                 4.3903

                     16                     17                     18
                      A                      A                      A
 Frequencies --    704.9148               735.3937               767.5207
 Red. masses --      6.0203                 8.6211                 1.1982
 Frc consts  --      1.7625                 2.7470                 0.4159
 IR Inten    --      5.2918                15.4885                13.3405

                     19                     20                     21
                      A                      A                      A
 Frequencies --    780.1658               806.2650               879.1000
 Red. masses --      6.1834                 7.9788                 3.5073
 Frc consts  --      2.2174                 3.0559                 1.5970
 IR Inten    --      4.8432                22.1158                 8.6504

                     22                     23                     24
                      A                      A                      A
 Frequencies --    915.4013               994.7937              1017.9183
 Red. masses --      2.4695                 1.9214                 5.9190
 Frc consts  --      1.2192                 1.1203                 3.6135
 IR Inten    --     11.9844                 5.1800                 2.4895

                     25                     26                     27
                      A                      A                      A
 Frequencies --   1052.0502              1077.4513              1088.0836
 Red. masses --      3.6701                 1.4793                 1.7490
 Frc consts  --      2.3933                 1.0118                 1.2200
 IR Inten    --     10.2216                 0.9325                 2.9935

                     28                     29                     30
                      A                      A                      A
 Frequencies --   1133.8980              1188.9969              1284.6617
 Red. masses --      2.3898                 1.1907                 1.2492
 Frc consts  --      1.8103                 0.9918                 1.2147
 IR Inten    --      3.0459                19.8858                11.0824

                     31                     32                     33
                      A                      A                      A
 Frequencies --   1300.0821              1332.0771              1387.8686
 Red. masses --      1.1842                 1.2838                 4.6232
 Frc consts  --      1.1793                 1.3422                 5.2468
 IR Inten    --      1.3186                16.9024                52.9128

                     34                     35                     36
                      A                      A                      A
 Frequencies --   1437.0016              1448.8114              1487.8767
 Red. masses --      1.2585                 3.5334                 1.2163
 Frc consts  --      1.5312                 4.3699                 1.5865
 IR Inten    --     18.5965               125.9966                44.6173

                     37                     38                     39
                      A                      A                      A
 Frequencies --   1496.3969              1521.3206              1536.1004
 Red. masses --      1.1148                 1.0451                 1.0445
 Frc consts  --      1.4707                 1.4251                 1.4522
 IR Inten    --     10.5841                 5.4226                 2.9386

                     40                     41                     42
                      A                      A                      A
 Frequencies --   1578.2665              1625.3117              1707.7744
 Red. masses --      4.9369                 1.7234                 3.0544
 Frc consts  --      7.2454                 2.6823                 5.2485
 IR Inten    --     52.5345                44.6694               442.2114

                     43                     44                     45
                      A                      A                      A
 Frequencies --   3053.9300              3073.6753              3105.8191
 Red. masses --      1.0375                 1.0597                 1.0585
 Frc consts  --      5.7013                 5.8985                 6.0159
 IR Inten    --     25.9969                12.6122                 5.9175

                     46                     47                     48
                      A                      A                      A
 Frequencies --   3117.3449              3119.9050              3144.4111
 Red. masses --      1.1041                 1.0991                 1.1045
 Frc consts  --      6.3214                 6.3034                 6.4343
 IR Inten    --      6.6561                20.8359                27.1323

                     49                     50                     51
                      A                      A                      A
 Frequencies --   3162.3578              3594.1753              3705.9457
 Red. masses --      1.1077                 1.0464                 1.1026
 Frc consts  --      6.5265                 7.9639                 8.9218
 IR Inten    --      2.2810                76.1981                53.5059

 - Thermochemistry -
 -------------------
 Temperature   298.150 Kelvin.  Pressure   1.00000 Atm.
 Atom     1 has atomic number  6 and mass  12.00000

 Molecular mass:   159.04663 amu.
 Principal axes and moments of inertia in atomic units:
                           1         2         3
     Eigenvalues --   760.014092785.767523108.33813
           X            0.99947  -0.03117  -0.00974
           Y            0.03075   0.99870  -0.04061
           Z            0.01099   0.04028   0.99913
 This molecule is an asymmetric top.
 Rotational symmetry number  1.
 Warning -- assumption of classical behavior for rotation
           may cause significant error
 Rotational temperatures (Kelvin)      0.11396     0.03109     0.02787
 Rotational constants (GHZ):           2.37462     0.64784     0.58061
 Zero-point vibrational energy     394844.7 (Joules/Mol)
                                   94.37015 (Kcal/Mol)
 Warning -- explicit consideration of  14 degrees of freedom as
           vibrations may cause significant error
 Vibrational temperatures:     36.23    76.84   137.39   167.15   278.16
          (Kelvin)            352.20   415.25   435.15   510.81   542.65
                              566.45   649.01   692.34   891.21   939.21
                             1014.22  1058.07  1104.29  1122.48  1160.04
                             1264.83  1317.06  1431.29  1464.56  1513.67
                             1550.21  1565.51  1631.43  1710.70  1848.34
                             1870.53  1916.56  1996.83  2067.52  2084.52
                             2140.72  2152.98  2188.84  2210.11  2270.77
                             2338.46  2457.11  4393.92  4422.33  4468.58
                             4485.16  4488.85  4524.11  4549.93  5171.22
                             5332.03

 Zero-point correction=                           0.150388 (Hartree/Particle)
 Thermal correction to Energy=                    0.160932
 Thermal correction to Enthalpy=                  0.161876
 Thermal correction to Gibbs Free Energy=         0.112725
 Sum of electronic and zero-point Energies=           -833.470341
 Sum of electronic and thermal Energies=              -833.459797
 Sum of electronic and thermal Enthalpies=            -833.458853
 Sum of electronic and thermal Free Energies=         -833.508005

                     E (Thermal)             CV                S
                      KCal/Mol        Cal/Mol-Kelvin    Cal/Mol-Kelvin
 Total                  100.987             37.828            103.448
 Electronic               0.000              0.000              0.000
 Translational            0.889              2.981             41.101
 Rotational               0.889              2.981             30.266
 Vibrational             99.209             31.866             32.081
 Vibration     1          0.593              1.985              6.177
 Vibration     2          0.596              1.976              4.687
 Vibration     3          0.603              1.952              3.544
 Vibration     4          0.608              1.936              3.163
 Vibration     5          0.635              1.849              2.196
 Vibration     6          0.660              1.771              1.768
 Vibration     7          0.685              1.695              1.482
 Vibration     8          0.694              1.669              1.403
 Vibration     9          0.731              1.565              1.144
 Vibration    10          0.748              1.519              1.051
 Vibration    11          0.761              1.484              0.986
 Vibration    12          0.810              1.358              0.793
 Vibration    13          0.838              1.292              0.707
 Vibration    14          0.979              0.991              0.417

 Optimization completed.
    -- Stationary point found.
 Normal termination of Gaussian 16 at Tue Dec  8 10:44:24 2020.

 ----------------------------------------------------------------------
 # B3LYP/6-311++G(d,p) empiricaldispersion=gd3bj scf=xqc pop=npa geom=c
 heck
 ----------------------------------------------------------------------

 -------------------------------------
 CID_65128185_JID_462_Energie_neutraal
 -------------------------------------
 Structure from the checkpoint file:  "JID_462.chk"
 Charge =  0 Multiplicity = 1

 SCF Done:  E(RB3LYP) =  -833.776146149     A.U. after   14 cycles
 Normal termination of Gaussian 16 at Tue Dec  8 10:47:19 2020.

 ----------------------------------------------------------------------
 # B3LYP/6-311++G(d,p) empiricaldispersion=gd3bj scf=xqc pop=npa geom=c
 heck
 ----------------------------------------------------------------------

 -----------------------------------
 CID_65128185_JID_462_Energie_kation
 -----------------------------------
 Structure from the checkpoint file:  "JID_462.chk"
 Charge =  1 Multiplicity = 2

 SCF Done:  E(UB3LYP) =  -833.467046843     A.U. after   21 cycles
 Normal termination of Gaussian 16 at Tue Dec  8 10:54:55 2020.
 Gaussian 16:  ES64L-G16RevA.03 25-Dec-2016

 ----------------------------------------------------------------------
 # B3LYP/6-311++G(d,p) empiricaldispersion=gd3bj scf=xqc pop=npa geom=c
 heck
 ----------------------------------------------------------------------

 ----------------------------------
 CID_65128185_JID_462_Energie_anion
 ----------------------------------
 Structure from the checkpoint file:  "JID_462.chk"
 Charge = -1 Multiplicity = 2

                         Standard orientation:
 ---------------------------------------------------------------------
 Center     Atomic      Atomic             Coordinates (Angstroms)
 Number     Number       Type             X           Y           Z
 ---------------------------------------------------------------------
      1          6           0       -2.895804    1.469895    0.037886
      2          6           0       -2.209697    0.531887   -0.950239
      3         16           0       -1.942680   -1.177908   -0.333863
      4          6           0       -0.802328   -0.859743    1.077571
      5          6           0        0.481867   -0.240036    0.645267
      6          7           0        0.658342    1.058906    0.710030
      7          8           0        1.970254    1.224522    0.160937
      8          6           0        2.389302   -0.012117   -0.153030
      9          7           0        1.526788   -0.959724    0.113448
     10          7           0        3.645201   -0.148215   -0.649822
     11          1           0       -3.840040    1.047510    0.395651
     12          1           0       -3.105691    2.431922   -0.445082
     13          1           0       -2.252949    1.673567    0.899289
     14          1           0       -2.822170    0.389315   -1.846881
     15          1           0       -1.247501    0.944068   -1.268643
     16          1           0       -1.292303   -0.230484    1.822864
     17          1           0       -0.607561   -1.841251    1.515287
     18          1           0        4.062507    0.669076   -1.072340
     19          1           0        3.834182   -1.029453   -1.106157
 ---------------------------------------------------------------------

 SCF Done:  E(UB3LYP) =  -833.765725012     A.U. after   31 cycles

 The electronic state is 2-A.
 Alpha  occ. eigenvalues --  -88.74820 -19.10367 -14.25492 -14.23051 -14.20321
 Alpha  occ. eigenvalues --  -10.20011 -10.14157 -10.11973 -10.10438 -10.07387
 Alpha  occ. eigenvalues --   -7.83410  -5.79821  -5.79448  -5.78752  -1.05280
 Alpha  occ. eigenvalues --   -0.84373  -0.83216  -0.74500  -0.71338  -0.65969
 Alpha  occ. eigenvalues --   -0.58336  -0.52839  -0.51703  -0.48522  -0.43084
 Alpha  occ. eigenvalues --   -0.40711  -0.39412  -0.37610  -0.36564  -0.34306
 Alpha  occ. eigenvalues --   -0.31873  -0.31277  -0.30764  -0.28307  -0.26064
 Alpha  occ. eigenvalues --   -0.24525  -0.24142  -0.22672  -0.20861  -0.19352
 Alpha  occ. eigenvalues --   -0.14313  -0.13513   0.04718
 Alpha virt. eigenvalues --    0.06255   0.07763   0.08114   0.09047   0.09885
 Alpha virt. eigenvalues --    0.10296   0.10829   0.12011   0.12768   0.12917
 Alpha virt. eigenvalues --    0.13648   0.14421   0.15397   0.15844   0.16344

  Beta  occ. eigenvalues --  -88.74818 -19.10342 -14.25453 -14.22912 -14.20311
  Beta  occ. eigenvalues --  -10.19990 -10.14150 -10.11971 -10.10421 -10.07369
  Beta  occ. eigenvalues --   -7.83406  -5.79815  -5.79445  -5.78750  -1.05234
  Beta  occ. eigenvalues --   -0.84270  -0.83147  -0.74407  -0.71300  -0.65941
  Beta  occ. eigenvalues --   -0.58304  -0.52744  -0.51608  -0.48467  -0.42980
  Beta  occ. eigenvalues --   -0.40572  -0.39337  -0.37568  -0.36534  -0.34259
  Beta  occ. eigenvalues --   -0.31844  -0.31247  -0.30735  -0.28273  -0.26034
  Beta  occ. eigenvalues --   -0.24429  -0.24059  -0.22638  -0.20828  -0.19321
  Beta  occ. eigenvalues --   -0.14191  -0.13494
  Beta virt. eigenvalues --    0.06683   0.07880   0.08241   0.08695   0.09321
  Beta virt. eigenvalues --    0.10177   0.10665   0.12328   0.12519   0.12670
  Beta virt. eigenvalues --    0.12913   0.13867   0.14528   0.15343   0.15857

 Mulliken charges and spin densities:
               1          2
     1  C    0.131395  -0.803188
     2  C   -0.270049   0.109714
     3  S    0.161632  -0.041565
     4  C    0.419348  -0.910897
     5  C    0.949509  -0.953768
     6  N   -0.387507   0.074257
     7  O    0.171920  -0.061576
     8  C   -0.024452   0.049331
     9  N   -0.025269  -0.093088
    10  N   -0.522389   0.217663
    11  H    0.015175   0.110055
    12  H   -0.129802   0.256006
    13  H    0.051943   0.122923
    14  H   -0.380262   0.591434
    15  H    0.103075   0.082703
    16  H    0.138040   0.021925
    17  H    0.215677   0.018668
    18  H   -0.983531   1.281238
    19  H   -0.634455   0.928166
 Sum of Mulliken charges =  -1.00000   1.00000

 Dipole moment (field-independent basis, Debye):
    X=             -8.7804    Y=             -0.9154    Z=              5.6674  Tot=             10.4906
 Quadrupole moment (field-independent basis, Debye-Ang):
   XX=           -157.2655   YY=            -97.5931   ZZ=            -93.7318
   XY=              1.2379   XZ=             15.3400   YZ=             -2.2055

 Summary of Natural Population Analysis:

                                       Natural Population
                Natural  -----------------------------------------------
    Atom  No    Charge         Core      Valence    Rydberg      Total
 -----------------------------------------------------------------------
      C    1   -0.29373      0.99965     2.28722    0.00686     3.29373
      C    2   -0.25573      0.99961     2.24466    0.01146     3.25573
      S    3    0.09533      4.99965     2.88799    0.01703     7.90467
      C    4   -0.26741      0.99952     2.25788    0.01001     3.26741
      C    5    0.16844      0.99963     1.81155    0.02039     2.83156
      N    6   -0.10737      0.99966     2.59537    0.01234     3.60737
      O    7   -0.18098      0.99985     3.17305    0.00808     4.18098
      C    8    0.36528      0.99964     1.61401    0.02108     2.63472
      N    9   -0.29553      0.99966     2.78559    0.01027     3.79553
      N   10   -0.38691      0.99969     2.87738    0.00984     3.88691
      H   11    0.09730      0.00000     0.40118    0.00152     0.40270
      H   12    0.10129      0.00000     0.39757    0.00114     0.39871
      H   13    0.10199      0.00000     0.39667    0.00133     0.39801
      H   14    0.10502      0.00000     0.39358    0.00140     0.39498
      H   15    0.10833      0.00000     0.39013    0.00153     0.39167
      H   16    0.11088      0.00000     0.38786    0.00126     0.38912
      H   17    0.11750      0.00000     0.38146    0.00104     0.38250
      H   18    0.20868      0.00000     0.25559    0.03574     0.29132
      H   19    0.20763      0.00000     0.27435    0.01802     0.29237
 =======================================================================
   * Total *   -0.00000     13.99656    27.81309    0.19035    42.00000

 Normal termination of Gaussian 16 at Tue Dec  8 11:04:46 2020.
