 Gaussian 16, Revision A.03,

 -----------------------------------------------------------
 # opt freq B3LYP/6-31G(d) empiricaldispersion=gd3bj scf=xqc
 -----------------------------------------------------------

 ------------------------------
 CID_66414072_JID_9993_neutraal
 ------------------------------
 Symbolic Z-matrix:
 Charge =  0 Multiplicity = 1

 SCF Done:  E(RB3LYP) =  -807.772004894     A.U. after   15 cycles
 SCF Done:  E(RB3LYP) =  -807.775664213     A.U. after   12 cycles
 SCF Done:  E(RB3LYP) =  -807.776365099     A.U. after   12 cycles
 SCF Done:  E(RB3LYP) =  -807.776444564     A.U. after   12 cycles
 SCF Done:  E(RB3LYP) =  -807.776424124     A.U. after   11 cycles
 SCF Done:  E(RB3LYP) =  -807.776586941     A.U. after   12 cycles
 SCF Done:  E(RB3LYP) =  -807.776609552     A.U. after   10 cycles
 SCF Done:  E(RB3LYP) =  -807.776614063     A.U. after   10 cycles
 SCF Done:  E(RB3LYP) =  -807.776614531     A.U. after    8 cycles
 SCF Done:  E(RB3LYP) =  -807.776614633     A.U. after    7 cycles
 Optimization completed.
    -- Stationary point found.
 Normal termination of Gaussian 16 at Sat Dec 12 10:11:03 2020.

 --------------------------------------------------------------------
 #N Geom=AllCheck Guess=TCheck SCRF=Check GenChk RB3LYP/6-31G(d) Freq
 --------------------------------------------------------------------

 Structure from the checkpoint file:  "JID_9993.chk"
 ------------------------------
 CID_66414072_JID_9993_neutraal
 ------------------------------
 Charge =  0 Multiplicity = 1

 SCF Done:  E(RB3LYP) =  -807.776614633     A.U. after    1 cycles

  Exact polarizability: 200.303 -10.201 200.718 -29.382 -24.789 142.709
 Approx polarizability: 284.493 -21.111 327.187 -57.185 -57.781 226.778

                      1                      2                      3
                      A                      A                      A
 Frequencies --     19.9816                25.8118                37.3136
 Red. masses --      4.3334                 4.1229                 4.1647
 Frc consts  --      0.0010                 0.0016                 0.0034
 IR Inten    --      0.1633                 0.1926                 0.0679

                      4                      5                      6
                      A                      A                      A
 Frequencies --     67.0298                73.4058                88.5713
 Red. masses --      3.8297                 2.4149                 2.7242
 Frc consts  --      0.0101                 0.0077                 0.0126
 IR Inten    --      0.2303                 0.0088                 0.1443

                      7                      8                      9
                      A                      A                      A
 Frequencies --    108.5684               141.6237               162.5193
 Red. masses --      6.5651                 4.4438                 1.8570
 Frc consts  --      0.0456                 0.0525                 0.0289
 IR Inten    --      5.6766                 3.7549                 0.5102

                     10                     11                     12
                      A                      A                      A
 Frequencies --    173.5358               196.6578               202.8333
 Red. masses --      3.8032                 2.2034                 1.6327
 Frc consts  --      0.0675                 0.0502                 0.0396
 IR Inten    --      0.5855                 1.4639                 2.0746

                     13                     14                     15
                      A                      A                      A
 Frequencies --    228.7961               248.1655               255.6996
 Red. masses --      2.6480                 1.8304                 4.0048
 Frc consts  --      0.0817                 0.0664                 0.1543
 IR Inten    --      1.7231                 1.9012                 4.9289

                     16                     17                     18
                      A                      A                      A
 Frequencies --    267.0973               311.7602               323.4039
 Red. masses --      1.6908                 1.9234                 2.3786
 Frc consts  --      0.0711                 0.1101                 0.1466
 IR Inten    --      1.5899                 0.4180                 0.6678

                     19                     20                     21
                      A                      A                      A
 Frequencies --    350.3938               373.5082               389.2851
 Red. masses --      2.2209                 2.7465                 5.9014
 Frc consts  --      0.1607                 0.2257                 0.5269
 IR Inten    --      0.6678                 0.2463                 5.5159

                     22                     23                     24
                      A                      A                      A
 Frequencies --    433.7998               443.4317               515.0700
 Red. masses --      2.4708                 4.0807                 2.2236
 Frc consts  --      0.2740                 0.4728                 0.3476
 IR Inten    --      0.5088                 0.0903                 0.5132

                     25                     26                     27
                      A                      A                      A
 Frequencies --    543.3703               552.8079               582.1341
 Red. masses --      2.7764                 5.0023                 4.9894
 Frc consts  --      0.4830                 0.9007                 0.9962
 IR Inten    --      0.1513                36.3952                 0.7594

                     28                     29                     30
                      A                      A                      A
 Frequencies --    605.7029               624.6535               670.5040
 Red. masses --      4.4221                 3.6429                 4.9296
 Frc consts  --      0.9559                 0.8375                 1.3058
 IR Inten    --      0.3671                 8.5430                 3.1554

                     31                     32                     33
                      A                      A                      A
 Frequencies --    721.6313               725.4759               786.3624
 Red. masses --      4.5157                 1.5048                 1.2618
 Frc consts  --      1.3855                 0.4666                 0.4597
 IR Inten    --     12.4689                 8.8584                 2.7983

                     34                     35                     36
                      A                      A                      A
 Frequencies --    791.6984               803.4949               811.8681
 Red. masses --      2.1952                 1.7009                 3.0968
 Frc consts  --      0.8107                 0.6470                 1.2027
 IR Inten    --     32.8605                 1.4488                 8.6535

                     37                     38                     39
                      A                      A                      A
 Frequencies --    813.9525               820.6651               857.4992
 Red. masses --      2.7314                 2.2815                 2.3287
 Frc consts  --      1.0662                 0.9053                 1.0089
 IR Inten    --      5.7950                 0.9053                25.7323

                     40                     41                     42
                      A                      A                      A
 Frequencies --    859.9089               894.2459               909.1928
 Red. masses --      1.9054                 1.6027                 1.6985
 Frc consts  --      0.8301                 0.7551                 0.8272
 IR Inten    --     30.7710                 0.6006                 1.3775

                     43                     44                     45
                      A                      A                      A
 Frequencies --    946.4471               960.1515               975.6759
 Red. masses --      1.3775                 1.9590                 1.3075
 Frc consts  --      0.7270                 1.0641                 0.7333
 IR Inten    --      0.1544                 0.7472                 0.5798

                     46                     47                     48
                      A                      A                      A
 Frequencies --    988.0152              1001.3951              1020.3954
 Red. masses --      1.9039                 1.6554                 1.6098
 Frc consts  --      1.0950                 0.9780                 0.9876
 IR Inten    --      1.5142                 2.8958                 1.4583

                     49                     50                     51
                      A                      A                      A
 Frequencies --   1021.9611              1048.6200              1059.6654
 Red. masses --      1.7524                 4.4170                 1.7363
 Frc consts  --      1.0783                 2.8616                 1.1487
 IR Inten    --      0.9845                 9.0205                 0.0601

                     52                     53                     54
                      A                      A                      A
 Frequencies --   1072.3592              1082.3076              1106.8355
 Red. masses --      2.3819                 1.4353                 2.3719
 Frc consts  --      1.6138                 0.9906                 1.7120
 IR Inten    --      1.2956                 1.3847                 0.2773

                     55                     56                     57
                      A                      A                      A
 Frequencies --   1135.0865              1144.0905              1163.0748
 Red. masses --      2.1754                 2.1508                 1.4853
 Frc consts  --      1.6514                 1.6587                 1.1838
 IR Inten    --      1.3986                 7.5174                 4.2124

                     58                     59                     60
                      A                      A                      A
 Frequencies --   1178.0006              1190.1170              1203.8943
 Red. masses --      2.0438                 1.9890                 1.5875
 Frc consts  --      1.6710                 1.6599                 1.3556
 IR Inten    --     42.6141                 1.0586                88.1430

                     61                     62                     63
                      A                      A                      A
 Frequencies --   1238.7926              1251.5576              1279.6872
 Red. masses --      1.6749                 1.6332                 1.5721
 Frc consts  --      1.5144                 1.5072                 1.5168
 IR Inten    --     12.6665                16.1785                 5.8723

                     64                     65                     66
                      A                      A                      A
 Frequencies --   1297.5389              1320.2392              1329.6639
 Red. masses --      1.5311                 1.1634                 1.2427
 Frc consts  --      1.5188                 1.1948                 1.2945
 IR Inten    --      6.6950                 0.8745                 3.5272

                     67                     68                     69
                      A                      A                      A
 Frequencies --   1352.0906              1362.5044              1368.7277
 Red. masses --      1.2703                 2.3315                 2.5066
 Frc consts  --      1.3682                 2.5501                 2.7667
 IR Inten    --      4.0867                25.7914                39.0721

                     70                     71                     72
                      A                      A                      A
 Frequencies --   1378.1547              1390.3899              1400.2867
 Red. masses --      1.5395                 1.7247                 1.4445
 Frc consts  --      1.7227                 1.9645                 1.6688
 IR Inten    --      2.7925                11.1840                 1.1444

                     73                     74                     75
                      A                      A                      A
 Frequencies --   1400.5963              1404.2089              1419.0424
 Red. masses --      2.0267                 1.4268                 1.5566
 Frc consts  --      2.3425                 1.6576                 1.8467
 IR Inten    --      6.8576                 3.0060                12.9907

                     76                     77                     78
                      A                      A                      A
 Frequencies --   1432.1971              1437.8732              1446.0837
 Red. masses --      1.6077                 1.5218                 1.2643
 Frc consts  --      1.9429                 1.8537                 1.5578
 IR Inten    --     29.2500                39.1414                 1.9745

                     79                     80                     81
                      A                      A                      A
 Frequencies --   1448.8564              1466.2760              1479.8297
 Red. masses --      1.2817                 1.7516                 3.4170
 Frc consts  --      1.5852                 2.2188                 4.4088
 IR Inten    --      2.6616                 3.8687                76.0141

                     82                     83                     84
                      A                      A                      A
 Frequencies --   1509.7334              1518.6466              1522.3829
 Red. masses --      1.0738                 1.1202                 1.1444
 Frc consts  --      1.4420                 1.5221                 1.5628
 IR Inten    --      1.8041                 5.4436                 7.3514

                     85                     86                     87
                      A                      A                      A
 Frequencies --   1525.4343              1528.0950              1533.3074
 Red. masses --      1.0724                 1.0803                 1.9309
 Frc consts  --      1.4702                 1.4863                 2.6746
 IR Inten    --      7.0710                 1.6137                 1.5769

                     88                     89                     90
                      A                      A                      A
 Frequencies --   1534.7581              1537.8878              1540.3565
 Red. masses --      1.2233                 1.0713                 1.0713
 Frc consts  --      1.6977                 1.4928                 1.4977
 IR Inten    --      7.8071                 4.1038                 3.5958

                     91                     92                     93
                      A                      A                      A
 Frequencies --   1546.0742              1569.9302              1624.6721
 Red. masses --      1.0684                 4.9402                 6.3792
 Frc consts  --      1.5047                 7.1738                 9.9208
 IR Inten    --      0.6284               231.6055                 7.3231

                     94                     95                     96
                      A                      A                      A
 Frequencies --   1654.8836              1774.5796              2908.4320
 Red. masses --      6.8342                 8.9403                 1.0825
 Frc consts  --     11.0274                16.5879                 5.3953
 IR Inten    --     27.3761               312.0911               134.8477

                     97                     98                     99
                      A                      A                      A
 Frequencies --   3022.4232              3031.5949              3035.3552
 Red. masses --      1.0778                 1.0613                 1.0647
 Frc consts  --      5.8011                 5.7466                 5.7794
 IR Inten    --     18.0123                31.6016                 7.4067

                    100                    101                    102
                      A                      A                      A
 Frequencies --   3039.6675              3046.0849              3054.3916
 Red. masses --      1.0717                 1.0375                 1.0416
 Frc consts  --      5.8340                 5.6719                 5.7253
 IR Inten    --     34.3848                16.6267                 6.5469

                    103                    104                    105
                      A                      A                      A
 Frequencies --   3059.4033              3062.3669              3068.2680
 Red. masses --      1.0642                 1.0941                 1.0670
 Frc consts  --      5.8690                 6.0454                 5.9184
 IR Inten    --     17.5733                28.4779                38.1705

                    106                    107                    108
                      A                      A                      A
 Frequencies --   3070.4636              3077.7424              3096.9181
 Red. masses --      1.0982                 1.0961                 1.0997
 Frc consts  --      6.1000                 6.1172                 6.2140
 IR Inten    --     60.0133                19.9591                64.6007

                    109                    110                    111
                      A                      A                      A
 Frequencies --   3110.9130              3118.2509              3118.7341
 Red. masses --      1.1013                 1.1018                 1.1017
 Frc consts  --      6.2793                 6.3123                 6.3133
 IR Inten    --     38.7576                34.5488                55.9625

                    112                    113                    114
                      A                      A                      A
 Frequencies --   3125.4707              3148.1656              3183.5525
 Red. masses --      1.1020                 1.0977                 1.0888
 Frc consts  --      6.3426                 6.4096                 6.5016
 IR Inten    --     39.8037                 3.3204                16.5712

                    115                    116                    117
                      A                      A                      A
 Frequencies --   3200.5301              3218.8676              3281.1472
 Red. masses --      1.0896                 1.0962                 1.0965
 Frc consts  --      6.5759                 6.6919                 6.9552
 IR Inten    --     11.4093                22.2778                 2.5300

 - Thermochemistry -
 -------------------
 Temperature   298.150 Kelvin.  Pressure   1.00000 Atm.
 Atom     1 has atomic number  6 and mass  12.00000

 Molecular mass:   258.17321 amu.
 Principal axes and moments of inertia in atomic units:
                           1         2         3
     Eigenvalues --  3959.755706742.891048287.82297
           X            0.99993   0.00807  -0.00881
           Y           -0.00771   0.99915   0.04043
           Z            0.00913  -0.04036   0.99914
 This molecule is an asymmetric top.
 Rotational symmetry number  1.
 Warning -- assumption of classical behavior for rotation
           may cause significant error
 Rotational temperatures (Kelvin)      0.02187     0.01285     0.01045
 Rotational constants (GHZ):           0.45577     0.26765     0.21776
 Zero-point vibrational energy     939161.9 (Joules/Mol)
                                  224.46508 (Kcal/Mol)
 Warning -- explicit consideration of  28 degrees of freedom as
           vibrations may cause significant error
 Vibrational temperatures:     28.75    37.14    53.69    96.44   105.61
          (Kelvin)            127.43   156.21   203.76   233.83   249.68
                              282.95   291.83   329.19   357.05   367.89
                              384.29   448.55   465.31   504.14   537.39
                              560.09   624.14   638.00   741.07   781.79
                              795.37   837.56   871.47   898.74   964.71
                             1038.27  1043.80  1131.40  1139.08  1156.05
                             1168.10  1171.10  1180.75  1233.75  1237.22
                             1286.62  1308.13  1361.73  1381.44  1403.78
                             1421.53  1440.78  1468.12  1470.37  1508.73
                             1524.62  1542.89  1557.20  1592.49  1633.14
                             1646.09  1673.41  1694.88  1712.31  1732.14
                             1782.35  1800.71  1841.18  1866.87  1899.53
                             1913.09  1945.36  1960.34  1969.29  1982.86
                             2000.46  2014.70  2015.15  2020.34  2041.69
                             2060.61  2068.78  2080.59  2084.58  2109.64
                             2129.14  2172.17  2184.99  2190.37  2194.76
                             2198.59  2206.09  2208.17  2212.68  2216.23
                             2224.46  2258.78  2337.54  2381.01  2553.22
                             4184.58  4348.59  4361.79  4367.20  4373.40
                             4382.64  4394.59  4401.80  4406.06  4414.55
                             4417.71  4428.18  4455.77  4475.91  4486.47
                             4487.16  4496.86  4529.51  4580.42  4604.85
                             4631.23  4720.84

 Zero-point correction=                           0.357708 (Hartree/Particle)
 Thermal correction to Energy=                    0.376419
 Thermal correction to Enthalpy=                  0.377363
 Thermal correction to Gibbs Free Energy=         0.309009
 Sum of electronic and zero-point Energies=           -807.418907
 Sum of electronic and thermal Energies=              -807.400195
 Sum of electronic and thermal Enthalpies=            -807.399251
 Sum of electronic and thermal Free Energies=         -807.467605

                     E (Thermal)             CV                S
                      KCal/Mol        Cal/Mol-Kelvin    Cal/Mol-Kelvin
 Total                  236.207             70.747            143.863
 Electronic               0.000              0.000              0.000
 Translational            0.889              2.981             42.545
 Rotational               0.889              2.981             33.758
 Vibrational            234.429             64.785             67.559
 Vibration     1          0.593              1.986              6.636
 Vibration     2          0.593              1.985              6.128
 Vibration     3          0.594              1.982              5.397
 Vibration     4          0.598              1.970              4.239
 Vibration     5          0.599              1.967              4.060
 Vibration     6          0.601              1.957              3.691
 Vibration     7          0.606              1.942              3.294
 Vibration     8          0.615              1.912              2.782
 Vibration     9          0.623              1.888              2.520
 Vibration    10          0.627              1.875              2.397
 Vibration    11          0.636              1.845              2.164
 Vibration    12          0.639              1.836              2.107
 Vibration    13          0.651              1.797              1.888
 Vibration    14          0.662              1.766              1.744
 Vibration    15          0.666              1.753              1.691
 Vibration    16          0.672              1.734              1.615
 Vibration    17          0.700              1.651              1.353
 Vibration    18          0.708              1.629              1.293
 Vibration    19          0.727              1.574              1.164
 Vibration    20          0.745              1.526              1.065
 Vibration    21          0.757              1.493              1.003
 Vibration    22          0.795              1.397              0.846
 Vibration    23          0.803              1.375              0.816
 Vibration    24          0.870              1.217              0.621
 Vibration    25          0.898              1.154              0.558
 Vibration    26          0.908              1.134              0.538
 Vibration    27          0.939              1.070              0.481
 Vibration    28          0.964              1.020              0.440

 Optimization completed.
    -- Stationary point found.
 Normal termination of Gaussian 16 at Sat Dec 12 10:31:22 2020.

 ----------------------------------------------------------------------
 # B3LYP/6-311++G(d,p) empiricaldispersion=gd3bj scf=xqc pop=npa geom=c
 heck
 ----------------------------------------------------------------------

 --------------------------------------
 CID_66414072_JID_9993_Energie_neutraal
 --------------------------------------
 Structure from the checkpoint file:  "JID_9993.chk"
 Charge =  0 Multiplicity = 1

 SCF Done:  E(RB3LYP) =  -807.990982254     A.U. after   16 cycles
 Normal termination of Gaussian 16 at Sat Dec 12 10:40:06 2020.

 ----------------------------------------------------------------------
 # B3LYP/6-311++G(d,p) empiricaldispersion=gd3bj scf=xqc pop=npa geom=c
 heck
 ----------------------------------------------------------------------

 ------------------------------------
 CID_66414072_JID_9993_Energie_kation
 ------------------------------------
 Structure from the checkpoint file:  "JID_9993.chk"
 Charge =  1 Multiplicity = 2

 SCF Done:  E(UB3LYP) =  -807.691422729     A.U. after   28 cycles
 Normal termination of Gaussian 16 at Sat Dec 12 11:01:26 2020.
 Gaussian 16:  ES64L-G16RevA.03 25-Dec-2016

 ----------------------------------------------------------------------
 # B3LYP/6-311++G(d,p) empiricaldispersion=gd3bj scf=xqc pop=npa geom=c
 heck
 ----------------------------------------------------------------------

 -----------------------------------
 CID_66414072_JID_9993_Energie_anion
 -----------------------------------
 Structure from the checkpoint file:  "JID_9993.chk"
 Charge = -1 Multiplicity = 2

                         Standard orientation:
 ---------------------------------------------------------------------
 Center     Atomic      Atomic             Coordinates (Angstroms)
 Number     Number       Type             X           Y           Z
 ---------------------------------------------------------------------
      1          6           0        1.509892    2.631931    1.719859
      2          6           0        2.877985    1.999604    1.443721
      3          6           0        2.912503    0.476130    1.646259
      4          6           0        1.895334   -0.307777    0.804651
      5          6           0        2.014533   -0.095829   -0.713805
      6          6           0        3.384973   -0.496050   -1.295224
      7          6           0        3.803907   -1.950012   -1.050730
      8          6           0        0.880201   -0.821548   -1.459131
      9          7           0       -0.437989   -0.352527   -1.044594
     10          6           0       -0.963768    0.886926   -1.266016
     11          6           0       -2.180779    1.025724   -0.613336
     12          6           0       -2.419004   -0.223085    0.070025
     13          6           0       -1.305959   -1.059211   -0.218821
     14          7           0       -1.096359   -2.298279    0.213047
     15          6           0       -2.063151   -2.782877    1.000537
     16          6           0       -3.217629   -2.065243    1.361220
     17          6           0       -3.409415   -0.766990    0.895648
     18          6           0       -3.006849    2.220627   -0.649601
     19          8           0       -2.725379    3.240591   -1.261741
     20          1           0        0.747653    2.288664    1.011416
     21          1           0        1.557855    3.723688    1.645025
     22          1           0        1.157945    2.380953    2.728204
     23          1           0        3.194955    2.247906    0.421793
     24          1           0        3.626593    2.453667    2.105790
     25          1           0        3.927622    0.110548    1.442910
     26          1           0        2.718726    0.256717    2.705080
     27          1           0        1.982045   -1.377869    1.029365
     28          1           0        0.884629   -0.025100    1.118128
     29          1           0        1.885055    0.976175   -0.919159
     30          1           0        3.374499   -0.299521   -2.376278
     31          1           0        4.148619    0.171164   -0.878312
     32          1           0        3.082015   -2.661584   -1.466903
     33          1           0        4.772185   -2.153506   -1.520372
     34          1           0        3.903621   -2.167239    0.017788
     35          1           0        0.976895   -0.672655   -2.540462
     36          1           0        0.893709   -1.894443   -1.257757
     37          1           0       -0.451875    1.613663   -1.880556
     38          1           0       -1.915750   -3.796143    1.366927
     39          1           0       -3.954484   -2.533812    2.005564
     40          1           0       -4.295691   -0.201713    1.168444
     41          1           0       -3.950006    2.157436   -0.063402
 ---------------------------------------------------------------------

 SCF Done:  E(UB3LYP) =  -807.999786964     A.U. after   33 cycles
 SCF Done:  E(UB3LYP) =  -807.999798875     a.u. after    6 cycles

 The electronic state is 2-A.
 Alpha  occ. eigenvalues --  -18.93588 -14.22216 -14.16671 -10.09512 -10.09300
 Alpha  occ. eigenvalues --  -10.08015 -10.07792 -10.07725 -10.07442 -10.07437
 Alpha  occ. eigenvalues --  -10.07225 -10.06563 -10.06004 -10.05921 -10.04303
 Alpha  occ. eigenvalues --  -10.04153 -10.04102 -10.04014 -10.01497  -0.87008
 Alpha  occ. eigenvalues --   -0.86450  -0.79449  -0.73092  -0.69547  -0.68364
 Alpha  occ. eigenvalues --   -0.65092  -0.63111  -0.60198  -0.59907  -0.55772
 Alpha  occ. eigenvalues --   -0.54558  -0.50589  -0.49745  -0.48701  -0.46491
 Alpha  occ. eigenvalues --   -0.43842  -0.41564  -0.38983  -0.38658  -0.37173
 Alpha  occ. eigenvalues --   -0.36194  -0.35341  -0.34520  -0.34078  -0.33830
 Alpha  occ. eigenvalues --   -0.31931  -0.31150  -0.30313  -0.29772  -0.28850
 Alpha  occ. eigenvalues --   -0.28620  -0.28105  -0.27635  -0.26756  -0.26469
 Alpha  occ. eigenvalues --   -0.26038  -0.25175  -0.24802  -0.23997  -0.23798
 Alpha  occ. eigenvalues --   -0.23155  -0.22827  -0.21961  -0.21232  -0.20417
 Alpha  occ. eigenvalues --   -0.16979  -0.13665  -0.10749  -0.09342  -0.08510
 Alpha  occ. eigenvalues --    0.04542
 Alpha virt. eigenvalues --    0.06024   0.07236   0.07990   0.08577   0.09143
 Alpha virt. eigenvalues --    0.09679   0.09848   0.10109   0.10614   0.10765
 Alpha virt. eigenvalues --    0.11760   0.12062   0.12438   0.12655   0.13346

  Beta  occ. eigenvalues --  -18.93322 -14.22136 -14.16405 -10.09514 -10.09326
  Beta  occ. eigenvalues --  -10.08015 -10.07722 -10.07558 -10.07438 -10.07429
  Beta  occ. eigenvalues --  -10.07223 -10.06526 -10.06004 -10.05913 -10.04342
  Beta  occ. eigenvalues --  -10.04018 -10.03868 -10.03575 -10.01543  -0.86590
  Beta  occ. eigenvalues --   -0.86068  -0.79084  -0.73052  -0.69486  -0.68229
  Beta  occ. eigenvalues --   -0.64922  -0.63054  -0.60035  -0.59523  -0.55649
  Beta  occ. eigenvalues --   -0.54544  -0.49986  -0.49530  -0.48599  -0.46235
  Beta  occ. eigenvalues --   -0.43738  -0.41349  -0.38828  -0.38628  -0.37052
  Beta  occ. eigenvalues --   -0.36013  -0.35196  -0.34483  -0.33999  -0.33610
  Beta  occ. eigenvalues --   -0.31817  -0.31035  -0.30202  -0.29636  -0.28725
  Beta  occ. eigenvalues --   -0.28469  -0.27958  -0.27383  -0.26672  -0.26342
  Beta  occ. eigenvalues --   -0.25861  -0.25137  -0.24772  -0.23817  -0.23013
  Beta  occ. eigenvalues --   -0.22845  -0.22314  -0.21822  -0.21210  -0.19555
  Beta  occ. eigenvalues --   -0.15995  -0.13396  -0.09980  -0.09109  -0.06958
  Beta virt. eigenvalues --    0.05978   0.07155   0.07869   0.08517   0.09098
  Beta virt. eigenvalues --    0.09532   0.10009   0.10280   0.10697   0.10734
  Beta virt. eigenvalues --    0.11573   0.11714   0.12043   0.12392   0.12544

 Mulliken charges and spin densities:
               1          2
     1  C   -0.488157  -0.159011
     2  C   -0.179379  -0.013401
     3  C   -0.438037  -0.039220
     4  C   -0.162324  -0.031865
     5  C    0.863102  -0.009712
     6  C   -0.463938  -0.006736
     7  C   -0.566361  -0.008347
     8  C   -0.992630  -0.038318
     9  N    0.463327  -0.017603
    10  C   -0.015446   0.495473
    11  C    0.161146   0.003013
    12  C    0.401052  -0.084066
    13  C   -0.570312  -0.045140
    14  N   -0.063194   0.123255
    15  C   -0.124244   0.046339
    16  C   -0.500706   0.023136
    17  C   -0.333681   0.168879
    18  C   -0.432374   0.166143
    19  O   -0.360878   0.093064
    20  H    0.148181   0.066603
    21  H    0.079004   0.038839
    22  H    0.129158  -0.007331
    23  H    0.108003   0.019397
    24  H    0.060815   0.084598
    25  H    0.087453   0.038413
    26  H    0.134328   0.021541
    27  H    0.161589   0.008317
    28  H    0.186744  -0.014251
    29  H    0.192473   0.013158
    30  H    0.130993  -0.002033
    31  H    0.106209   0.039226
    32  H    0.140941   0.002611
    33  H    0.095830   0.033790
    34  H    0.137079   0.000450
    35  H    0.105853   0.061189
    36  H    0.220593  -0.001012
    37  H    0.137983  -0.037497
    38  H    0.133001  -0.003752
    39  H    0.123978  -0.001318
    40  H    0.130373  -0.012582
    41  H    0.052451  -0.014240
 Sum of Mulliken charges =  -1.00000   1.00000

 Dipole moment (field-independent basis, Debye):
    X=              7.5970    Y=             -3.5836    Z=              1.9575  Tot=              8.6248
 Quadrupole moment (field-independent basis, Debye-Ang):
   XX=           -156.5208   YY=           -161.7701   ZZ=           -132.5518
   XY=             11.2187   XZ=            -10.0248   YZ=              9.4417

 Summary of Natural Population Analysis:

                                       Natural Population
                Natural  -----------------------------------------------
    Atom  No    Charge         Core      Valence    Rydberg      Total
 -----------------------------------------------------------------------
      C    1   -0.29157      0.99967     2.28664    0.00526     3.29157
      C    2   -0.19140      0.99965     2.18452    0.00724     3.19140
      C    3   -0.18766      0.99963     2.18012    0.00791     3.18766
      C    4   -0.19778      0.99961     2.18898    0.00919     3.19778
      C    5   -0.11700      0.99959     2.10652    0.01089     3.11700
      C    6   -0.19116      0.99963     2.18249    0.00904     3.19116
      C    7   -0.28899      0.99967     2.28484    0.00448     3.28899
      C    8   -0.08282      0.99960     2.07024    0.01299     3.08282
      N    9   -0.21683      0.99963     2.70368    0.01352     3.71683
      C   10    0.19751      0.99953     1.79110    0.01186     2.80249
      C   11   -0.15252      0.99951     2.13652    0.01649     3.15252
      C   12   -0.05495      0.99947     2.04612    0.00936     3.05495
      C   13    0.18493      0.99948     1.79970    0.01589     2.81507
      N   14   -0.22024      0.99966     2.71079    0.00978     3.72024
      C   15    0.01151      0.99962     1.97338    0.01549     2.98849
      C   16   -0.14173      0.99958     2.13314    0.00901     3.14173
      C   17   -0.05167      0.99954     2.04348    0.00865     3.05167
      C   18    0.23512      0.99966     1.74514    0.02008     2.76488
      O   19   -0.28822      0.99988     3.27949    0.00884     4.28822
      H   20    0.10971      0.00000     0.38879    0.00150     0.39029
      H   21    0.09653      0.00000     0.40240    0.00107     0.40347
      H   22    0.09336      0.00000     0.40561    0.00103     0.40664
      H   23    0.09237      0.00000     0.40640    0.00124     0.40763
      H   24    0.09090      0.00000     0.40783    0.00127     0.40910
      H   25    0.09143      0.00000     0.40732    0.00125     0.40857
      H   26    0.09410      0.00000     0.40464    0.00126     0.40590
      H   27    0.10087      0.00000     0.39821    0.00092     0.39913
      H   28    0.11023      0.00000     0.38868    0.00109     0.38977
      H   29    0.10044      0.00000     0.39821    0.00135     0.39956
      H   30    0.09401      0.00000     0.40503    0.00096     0.40599
      H   31    0.09570      0.00000     0.40281    0.00149     0.40430
      H   32    0.09799      0.00000     0.40109    0.00091     0.40201
      H   33    0.09427      0.00000     0.40459    0.00114     0.40573
      H   34    0.09713      0.00000     0.40164    0.00123     0.40287
      H   35    0.09363      0.00000     0.40526    0.00112     0.40637
      H   36    0.11011      0.00000     0.38874    0.00115     0.38989
      H   37    0.08903      0.00000     0.40904    0.00194     0.41097
      H   38    0.07915      0.00000     0.41957    0.00128     0.42085
      H   39    0.09275      0.00000     0.40617    0.00107     0.40725
      H   40    0.09250      0.00000     0.40579    0.00171     0.40750
      H   41    0.03232      0.00000     0.46508    0.00260     0.46768
 =======================================================================
   * Total *    0.00302     18.99262    50.76980    0.23456    69.99698

 Normal termination of Gaussian 16 at Sat Dec 12 13:18:43 2020.
