 Gaussian 16, Revision A.03,

 -----------------------------------------------------------
 # opt freq B3LYP/6-31G(d) empiricaldispersion=gd3bj scf=xqc
 -----------------------------------------------------------

 -------------------------------
 CID_114826210_JID_4367_neutraal
 -------------------------------
 Symbolic Z-matrix:
 Charge =  0 Multiplicity = 1

 SCF Done:  E(RB3LYP) =  -672.970837339     A.U. after   14 cycles
 SCF Done:  E(RB3LYP) =  -672.975673544     A.U. after   12 cycles
 SCF Done:  E(RB3LYP) =  -672.975920175     A.U. after   12 cycles
 SCF Done:  E(RB3LYP) =  -672.976876846     A.U. after   12 cycles
 SCF Done:  E(RB3LYP) =  -672.977886636     A.U. after   11 cycles
 SCF Done:  E(RB3LYP) =  -672.977999636     A.U. after   11 cycles
 SCF Done:  E(RB3LYP) =  -672.977997047     A.U. after   10 cycles
 SCF Done:  E(RB3LYP) =  -672.978032962     A.U. after   10 cycles
 SCF Done:  E(RB3LYP) =  -672.978038343     A.U. after    8 cycles
 SCF Done:  E(RB3LYP) =  -672.978039382     A.U. after    8 cycles
 SCF Done:  E(RB3LYP) =  -672.978040082     A.U. after    8 cycles
 SCF Done:  E(RB3LYP) =  -672.978040618     A.U. after    8 cycles
 SCF Done:  E(RB3LYP) =  -672.978041134     A.U. after    8 cycles
 SCF Done:  E(RB3LYP) =  -672.978041546     A.U. after    8 cycles
 SCF Done:  E(RB3LYP) =  -672.978041709     A.U. after    7 cycles
 Optimization completed.
    -- Stationary point found.
 Normal termination of Gaussian 16 at Thu Dec 10 09:28:18 2020.

 --------------------------------------------------------------------
 #N Geom=AllCheck Guess=TCheck SCRF=Check GenChk RB3LYP/6-31G(d) Freq
 --------------------------------------------------------------------

 Structure from the checkpoint file:  "JID_4367.chk"
 -------------------------------
 CID_114826210_JID_4367_neutraal
 -------------------------------
 Charge =  0 Multiplicity = 1

 SCF Done:  E(RB3LYP) =  -672.978041709     A.U. after    1 cycles

  Exact polarizability: 134.678   2.609 120.709   2.295   2.732 101.134
 Approx polarizability: 163.810   7.173 182.374   2.094   3.535 148.055

                      1                      2                      3
                      A                      A                      A
 Frequencies --     33.8803                38.6103                48.8352
 Red. masses --      4.1395                 3.2005                 4.3805
 Frc consts  --      0.0028                 0.0028                 0.0062
 IR Inten    --      0.1141                 0.6024                 0.3092

                      4                      5                      6
                      A                      A                      A
 Frequencies --     62.1423                82.9267               113.4282
 Red. masses --      5.3813                 3.5232                 3.0286
 Frc consts  --      0.0122                 0.0143                 0.0230
 IR Inten    --      0.7195                 2.5356                 1.0850

                      7                      8                      9
                      A                      A                      A
 Frequencies --    157.6912               176.8627               242.6570
 Red. masses --      4.1871                 2.8515                 1.2732
 Frc consts  --      0.0613                 0.0526                 0.0442
 IR Inten    --      0.7047                 8.3342                 1.9994

                     10                     11                     12
                      A                      A                      A
 Frequencies --    245.9368               253.0176               285.3385
 Red. masses --      1.1700                 2.1855                 2.4886
 Frc consts  --      0.0417                 0.0824                 0.1194
 IR Inten    --      1.3840                 6.1824                 2.6458

                     13                     14                     15
                      A                      A                      A
 Frequencies --    297.7781               322.7664               337.0572
 Red. masses --      1.2493                 2.4581                 2.4896
 Frc consts  --      0.0653                 0.1509                 0.1666
 IR Inten    --     73.5305                 1.3458                22.1470

                     16                     17                     18
                      A                      A                      A
 Frequencies --    368.8280               409.3124               413.7690
 Red. masses --      2.4411                 2.5202                 5.1187
 Frc consts  --      0.1957                 0.2488                 0.5163
 IR Inten    --      9.5640                 4.4581                24.4013

                     19                     20                     21
                      A                      A                      A
 Frequencies --    459.6346               485.2417               533.3072
 Red. masses --      2.3218                 2.3198                 2.7330
 Frc consts  --      0.2890                 0.3218                 0.4580
 IR Inten    --      6.9541                 5.6170                 2.2973

                     22                     23                     24
                      A                      A                      A
 Frequencies --    590.8557               602.2438               618.1110
 Red. masses --      2.8160                 3.7085                 1.3035
 Frc consts  --      0.5792                 0.7925                 0.2934
 IR Inten    --      6.0046                20.5806                71.0101

                     25                     26                     27
                      A                      A                      A
 Frequencies --    715.9654               745.5493               759.1507
 Red. masses --      3.0438                 3.5739                 4.9708
 Frc consts  --      0.9193                 1.1704                 1.6879
 IR Inten    --     12.5115                16.2504                10.5200

                     28                     29                     30
                      A                      A                      A
 Frequencies --    799.8831               850.3861               889.0363
 Red. masses --      2.5329                 2.9453                 1.6505
 Frc consts  --      0.9548                 1.2549                 0.7686
 IR Inten    --      7.5306                13.5378                22.2866

                     31                     32                     33
                      A                      A                      A
 Frequencies --    914.1146               932.8120               935.9292
 Red. masses --      2.0306                 1.8484                 1.4556
 Frc consts  --      0.9997                 0.9476                 0.7512
 IR Inten    --      8.3717                 8.3523                 3.1579

                     34                     35                     36
                      A                      A                      A
 Frequencies --    970.6876               994.3446              1000.3086
 Red. masses --      2.0162                 1.7546                 2.0041
 Frc consts  --      1.1193                 1.0221                 1.1815
 IR Inten    --      9.8535                 0.9025                 4.9609

                     37                     38                     39
                      A                      A                      A
 Frequencies --   1017.8338              1051.2667              1078.9228
 Red. masses --      2.0801                 3.5755                 2.3881
 Frc consts  --      1.2697                 2.3282                 1.6379
 IR Inten    --     13.9429                18.7021                37.7040

                     40                     41                     42
                      A                      A                      A
 Frequencies --   1090.3817              1114.9240              1131.0132
 Red. masses --      1.8918                 2.6258                 2.5018
 Frc consts  --      1.3252                 1.9231                 1.8856
 IR Inten    --     65.3774                62.7639                16.6601

                     43                     44                     45
                      A                      A                      A
 Frequencies --   1151.0572              1158.3247              1162.9176
 Red. masses --      2.2301                 2.2561                 2.2259
 Frc consts  --      1.7409                 1.7835                 1.7736
 IR Inten    --     23.9886                56.5543                24.4758

                     46                     47                     48
                      A                      A                      A
 Frequencies --   1165.8452              1229.1597              1237.0295
 Red. masses --      1.8932                 1.4834                 1.3353
 Frc consts  --      1.5161                 1.3205                 1.2039
 IR Inten    --      8.1002                 6.3498                 1.2087

                     49                     50                     51
                      A                      A                      A
 Frequencies --   1268.0481              1282.4262              1297.4421
 Red. masses --      1.2637                 1.3502                 1.2817
 Frc consts  --      1.1972                 1.3083                 1.2712
 IR Inten    --     25.0928                20.1620                 3.0173

                     52                     53                     54
                      A                      A                      A
 Frequencies --   1322.9563              1342.4047              1354.7844
 Red. masses --      1.2186                 1.4115                 1.2882
 Frc consts  --      1.2566                 1.4986                 1.3931
 IR Inten    --      3.6941                58.7352                 5.7917

                     55                     56                     57
                      A                      A                      A
 Frequencies --   1373.1656              1377.4834              1385.6097
 Red. masses --      1.3556                 1.2801                 1.6466
 Frc consts  --      1.5061                 1.4311                 1.8626
 IR Inten    --     11.8201                27.6421                63.1926

                     58                     59                     60
                      A                      A                      A
 Frequencies --   1402.6633              1408.5663              1414.9045
 Red. masses --      1.3699                 1.4778                 1.3566
 Frc consts  --      1.5879                 1.7275                 1.6002
 IR Inten    --     11.9736                22.5247                 6.6902

                     61                     62                     63
                      A                      A                      A
 Frequencies --   1432.9421              1439.3482              1444.7141
 Red. masses --      1.2900                 1.4465                 1.4220
 Frc consts  --      1.5606                 1.7656                 1.7487
 IR Inten    --     25.5597                14.2458                18.0685

                     64                     65                     66
                      A                      A                      A
 Frequencies --   1453.7225              1503.3090              1514.4598
 Red. masses --      1.2302                 1.1070                 1.4713
 Frc consts  --      1.5318                 1.4740                 1.9882
 IR Inten    --     43.2440                 2.7164                43.3535

                     67                     68                     69
                      A                      A                      A
 Frequencies --   1516.0271              1522.2505              1526.4069
 Red. masses --      1.0947                 1.0834                 1.0627
 Frc consts  --      1.4824                 1.4791                 1.4588
 IR Inten    --     14.5363                 8.2118                 2.4210

                     70                     71                     72
                      A                      A                      A
 Frequencies --   1528.0431              1532.2545              1547.1864
 Red. masses --      1.0593                 1.1202                 1.1027
 Frc consts  --      1.4572                 1.5496                 1.5552
 IR Inten    --      6.6917                 7.3116                 6.7715

                     73                     74                     75
                      A                      A                      A
 Frequencies --   1553.5409              1776.6931              2974.0804
 Red. masses --      1.0760                 7.3026                 1.0837
 Frc consts  --      1.5301                13.5816                 5.6477
 IR Inten    --      6.4885               384.7242                60.6099

                     76                     77                     78
                      A                      A                      A
 Frequencies --   3020.3582              3024.6586              3035.6278
 Red. masses --      1.0681                 1.0722                 1.0583
 Frc consts  --      5.7411                 5.7796                 5.7457
 IR Inten    --     22.9716                74.7899                 2.6388

                     79                     80                     81
                      A                      A                      A
 Frequencies --   3041.3019              3057.4506              3066.3284
 Red. masses --      1.0561                 1.0356                 1.0830
 Frc consts  --      5.7552                 5.7039                 5.9996
 IR Inten    --     41.3694                13.9840                14.5412

                     82                     83                     84
                      A                      A                      A
 Frequencies --   3077.2857              3093.5759              3105.0944
 Red. masses --      1.0631                 1.0953                 1.0982
 Frc consts  --      5.9312                 6.1762                 6.2383
 IR Inten    --     16.5618                46.1751                49.8892

                     85                     86                     87
                      A                      A                      A
 Frequencies --   3118.8744              3127.1821              3130.7507
 Red. masses --      1.0924                 1.1010                 1.0961
 Frc consts  --      6.2607                 6.3439                 6.3297
 IR Inten    --      7.0742                28.2399                 2.7092

                     88                     89                     90
                      A                      A                      A
 Frequencies --   3135.6706              3135.9372              3136.8381
 Red. masses --      1.0987                 1.1008                 1.1002
 Frc consts  --      6.3648                 6.3784                 6.3781
 IR Inten    --     50.2634                20.4747                27.0437

                     91                     92                     93
                      A                      A                      A
 Frequencies --   3168.0946              3587.7906              3719.6627
 Red. masses --      1.0916                 1.0749                 1.0658
 Frc consts  --      6.4554                 8.1521                 8.6882
 IR Inten    --      7.9832                12.6168                 7.8737

 - Thermochemistry -
 -------------------
 Temperature   298.150 Kelvin.  Pressure   1.00000 Atm.
 Atom     1 has atomic number  6 and mass  12.00000

 Molecular mass:   201.13649 amu.
 Principal axes and moments of inertia in atomic units:
                           1         2         3
     Eigenvalues --  1825.077394922.660345721.11505
           X            0.99998  -0.00402   0.00554
           Y            0.00383   0.99941   0.03419
           Z           -0.00567  -0.03417   0.99940
 This molecule is an asymmetric top.
 Rotational symmetry number  1.
 Warning -- assumption of classical behavior for rotation
           may cause significant error
 Rotational temperatures (Kelvin)      0.04746     0.01759     0.01514
 Rotational constants (GHZ):           0.98886     0.36662     0.31545
 Zero-point vibrational energy     768929.6 (Joules/Mol)
                                  183.77859 (Kcal/Mol)
 Warning -- explicit consideration of  24 degrees of freedom as
           vibrations may cause significant error
 Vibrational temperatures:     48.75    55.55    70.26    89.41   119.31
          (Kelvin)            163.20   226.88   254.47   349.13   353.85
                              364.04   410.54   428.44   464.39   484.95
                              530.66   588.91   595.32   661.31   698.15
                              767.31   850.11   866.49   889.32  1030.11
                             1072.68  1092.25  1150.85  1223.52  1279.12
                             1315.21  1342.11  1346.59  1396.60  1430.64
                             1439.22  1464.44  1512.54  1552.33  1568.82
                             1604.13  1627.28  1656.11  1666.57  1673.18
                             1677.39  1768.49  1779.81  1824.44  1845.13
                             1866.73  1903.44  1931.42  1949.23  1975.68
                             1981.89  1993.58  2018.12  2026.61  2035.73
                             2061.68  2070.90  2078.62  2091.58  2162.93
                             2178.97  2181.22  2190.18  2196.16  2198.51
                             2204.57  2226.06  2235.20  2556.27  4279.04
                             4345.62  4351.81  4367.59  4375.76  4398.99
                             4411.76  4427.53  4450.97  4467.54  4487.36
                             4499.32  4504.45  4511.53  4511.91  4513.21
                             4558.18  5162.03  5351.76

 Zero-point correction=                           0.292870 (Hartree/Particle)
 Thermal correction to Energy=                    0.308189
 Thermal correction to Enthalpy=                  0.309134
 Thermal correction to Gibbs Free Energy=         0.249107
 Sum of electronic and zero-point Energies=           -672.685172
 Sum of electronic and thermal Energies=              -672.669852
 Sum of electronic and thermal Enthalpies=            -672.668908
 Sum of electronic and thermal Free Energies=         -672.728935

                     E (Thermal)             CV                S
                      KCal/Mol        Cal/Mol-Kelvin    Cal/Mol-Kelvin
 Total                  193.392             56.923            126.338
 Electronic               0.000              0.000              0.000
 Translational            0.889              2.981             41.801
 Rotational               0.889              2.981             32.308
 Vibrational            191.614             50.961             52.229
 Vibration     1          0.594              1.983              5.588
 Vibration     2          0.594              1.981              5.329
 Vibration     3          0.595              1.978              4.864
 Vibration     4          0.597              1.972              4.388
 Vibration     5          0.600              1.961              3.820
 Vibration     6          0.607              1.938              3.209
 Vibration     7          0.621              1.894              2.577
 Vibration     8          0.628              1.871              2.361
 Vibration     9          0.659              1.775              1.783
 Vibration    10          0.660              1.770              1.760
 Vibration    11          0.664              1.758              1.709
 Vibration    12          0.683              1.701              1.501
 Vibration    13          0.691              1.678              1.429
 Vibration    14          0.708              1.630              1.296
 Vibration    15          0.718              1.601              1.226
 Vibration    16          0.741              1.536              1.085
 Vibration    17          0.774              1.450              0.929
 Vibration    18          0.777              1.440              0.913
 Vibration    19          0.818              1.340              0.767
 Vibration    20          0.841              1.283              0.696
 Vibration    21          0.888              1.176              0.580
 Vibration    22          0.948              1.051              0.466
 Vibration    23          0.961              1.027              0.446
 Vibration    24          0.978              0.994              0.420

                           ! Non-Optimized Parameters !
 Normal termination of Gaussian 16 at Thu Dec 10 09:38:53 2020.

 ----------------------------------------------------------------------
 # B3LYP/6-311++G(d,p) empiricaldispersion=gd3bj scf=xqc pop=npa geom=c
 heck
 ----------------------------------------------------------------------

 ---------------------------------------
 CID_114826210_JID_4367_Energie_neutraal
 ---------------------------------------
 Structure from the checkpoint file:  "JID_4367.chk"
 Charge =  0 Multiplicity = 1

 SCF Done:  E(RB3LYP) =  -673.187113451     A.U. after   14 cycles
 Normal termination of Gaussian 16 at Thu Dec 10 09:43:47 2020.

 ----------------------------------------------------------------------
 # B3LYP/6-311++G(d,p) empiricaldispersion=gd3bj scf=xqc pop=npa geom=c
 heck
 ----------------------------------------------------------------------

 -------------------------------------
 CID_114826210_JID_4367_Energie_kation
 -------------------------------------
 Structure from the checkpoint file:  "JID_4367.chk"
 Charge =  1 Multiplicity = 2

 SCF Done:  E(UB3LYP) =  -672.859102140     A.U. after   33 cycles
 SCF Done:  E(UB3LYP) =  -672.859102140     a.u. after    1 cycles
 Normal termination of Gaussian 16 at Thu Dec 10 10:00:52 2020.
 Gaussian 16:  ES64L-G16RevA.03 25-Dec-2016

 ----------------------------------------------------------------------
 # B3LYP/6-311++G(d,p) empiricaldispersion=gd3bj scf=xqc pop=npa geom=c
 heck
 ----------------------------------------------------------------------

 ------------------------------------
 CID_114826210_JID_4367_Energie_anion
 ------------------------------------
 Structure from the checkpoint file:  "JID_4367.chk"
 Charge = -1 Multiplicity = 2

                         Standard orientation:
 ---------------------------------------------------------------------
 Center     Atomic      Atomic             Coordinates (Angstroms)
 Number     Number       Type             X           Y           Z
 ---------------------------------------------------------------------
      1          6           0        3.184020   -2.118614   -0.881062
      2          6           0        3.012690   -0.900101    0.005388
      3          6           0        2.560490    0.384310   -0.709350
      4          6           0        1.785844    1.162329    0.389736
      5          6           0        1.620781    0.103143    1.516985
      6          8           0        1.971833   -1.157426    0.955126
      7          6           0        0.512975    1.841406   -0.114822
      8          8           0        0.438807    3.065160   -0.147747
      9          7           0       -0.533708    1.078146   -0.568857
     10          6           0       -0.742577   -0.363603   -0.582770
     11          6           0       -1.853451   -0.824536    0.371779
     12          6           0       -3.236130   -0.204155    0.133213
     13          6           0       -3.806641   -0.500334   -1.254308
     14          8           0       -4.143433   -0.615633    1.156795
     15          1           0        2.258920   -2.322743   -1.431301
     16          1           0        3.432454   -3.000251   -0.282513
     17          1           0        3.989137   -1.953365   -1.604884
     18          1           0        3.949634   -0.700766    0.553805
     19          1           0        3.399382    0.961696   -1.106341
     20          1           0        1.904812    0.132511   -1.549506
     21          1           0        2.387560    1.994459    0.757806
     22          1           0        0.605196    0.025307    1.911617
     23          1           0        2.296507    0.343273    2.350322
     24          1           0       -1.293996    1.659362   -0.901069
     25          1           0       -0.976435   -0.675608   -1.609450
     26          1           0        0.183937   -0.862824   -0.302624
     27          1           0       -1.937981   -1.918765    0.286052
     28          1           0       -1.563379   -0.605599    1.405770
     29          1           0       -3.165845    0.881406    0.268460
     30          1           0       -3.864133   -1.583696   -1.426745
     31          1           0       -4.815313   -0.085531   -1.337877
     32          1           0       -3.191354   -0.070953   -2.053439
     33          1           0       -4.228810   -1.580817    1.091794
 ---------------------------------------------------------------------

 SCF Done:  E(UB3LYP) =  -673.177437398     A.U. after   31 cycles

 The electronic state is 2-A.
 Alpha  occ. eigenvalues --  -19.04042 -19.03070 -18.99608 -14.24617 -10.18391
 Alpha  occ. eigenvalues --  -10.13634 -10.13490 -10.13365 -10.11592 -10.10013
 Alpha  occ. eigenvalues --  -10.08735 -10.07981 -10.07114 -10.06994  -0.96092
 Alpha  occ. eigenvalues --   -0.94770  -0.93353  -0.83197  -0.71076  -0.69594
 Alpha  occ. eigenvalues --   -0.68724  -0.63667  -0.59367  -0.57003  -0.54865
 Alpha  occ. eigenvalues --   -0.51093  -0.50160  -0.47978  -0.42037  -0.41197
 Alpha  occ. eigenvalues --   -0.40264  -0.39920  -0.38614  -0.37926  -0.35968
 Alpha  occ. eigenvalues --   -0.35096  -0.33952  -0.33206  -0.32701  -0.30912
 Alpha  occ. eigenvalues --   -0.30505  -0.29717  -0.29493  -0.29101  -0.27827
 Alpha  occ. eigenvalues --   -0.26598  -0.26279  -0.26103  -0.24998  -0.23965
 Alpha  occ. eigenvalues --   -0.23287  -0.18979  -0.17884  -0.16559  -0.16415
 Alpha  occ. eigenvalues --    0.03965
 Alpha virt. eigenvalues --    0.05596   0.06894   0.07227   0.08327   0.08625
 Alpha virt. eigenvalues --    0.08814   0.09848   0.10100   0.10641   0.10763
 Alpha virt. eigenvalues --    0.10987   0.11585   0.11850   0.12274   0.13317

  Beta  occ. eigenvalues --  -19.04033 -19.03040 -18.99603 -14.24612 -10.18390
  Beta  occ. eigenvalues --  -10.13625 -10.13473 -10.13361 -10.11572 -10.10009
  Beta  occ. eigenvalues --  -10.08714 -10.07961 -10.07079 -10.06947  -0.96077
  Beta  occ. eigenvalues --   -0.94762  -0.93293  -0.83183  -0.71049  -0.69557
  Beta  occ. eigenvalues --   -0.68693  -0.63614  -0.59311  -0.56946  -0.54841
  Beta  occ. eigenvalues --   -0.51030  -0.50102  -0.47941  -0.41998  -0.41159
  Beta  occ. eigenvalues --   -0.40214  -0.39881  -0.38578  -0.37888  -0.35933
  Beta  occ. eigenvalues --   -0.35069  -0.33912  -0.33170  -0.32682  -0.30879
  Beta  occ. eigenvalues --   -0.30458  -0.29681  -0.29454  -0.29056  -0.27780
  Beta  occ. eigenvalues --   -0.26570  -0.26249  -0.26073  -0.24965  -0.23937
  Beta  occ. eigenvalues --   -0.23239  -0.18943  -0.17845  -0.16548  -0.16398
  Beta virt. eigenvalues --    0.06272   0.06761   0.07417   0.07820   0.08852
  Beta virt. eigenvalues --    0.09087   0.09143   0.10057   0.10420   0.10746
  Beta virt. eigenvalues --    0.11137   0.11432   0.11956   0.12198   0.12670

 Mulliken charges and spin densities:
               1          2
     1  C    1.003599  -1.644353
     2  C   -0.570796   0.785733
     3  C    0.342944  -0.955534
     4  C    0.178112   0.228021
     5  C   -0.134129  -0.426486
     6  O   -0.026033  -0.008735
     7  C   -0.286378   0.134768
     8  O   -0.340424  -0.000413
     9  N   -0.210546   0.047461
    10  C   -0.517202  -0.001138
    11  C    1.146590  -1.301255
    12  C   -2.012919   1.822956
    13  C    1.527603  -2.040016
    14  O   -0.206893  -0.005001
    15  H   -0.407539   0.554026
    16  H   -0.008938   0.171797
    17  H   -0.356579   0.504777
    18  H   -0.480044   0.660810
    19  H   -0.251915   0.420605
    20  H   -0.098996   0.298267
    21  H    0.176973   0.101585
    22  H    0.185902  -0.021673
    23  H    0.000043   0.141871
    24  H    0.281090   0.048607
    25  H   -0.339007   0.531240
    26  H    1.327179  -1.193596
    27  H   -0.396431   0.561225
    28  H   -0.008341   0.169628
    29  H    0.141569   0.043069
    30  H   -0.517560   0.687142
    31  H   -0.129877   0.278980
    32  H   -0.114824   0.255254
    33  H    0.103766   0.150377
 Sum of Mulliken charges =  -1.00000   1.00000

 Dipole moment (field-independent basis, Debye):
    X=              0.2479    Y=              2.4582    Z=              2.8389  Tot=              3.7634
 Quadrupole moment (field-independent basis, Debye-Ang):
   XX=           -175.2458   YY=           -140.4770   ZZ=           -123.0982
   XY=             -4.8930   XZ=              3.7807   YZ=             -4.4051

 Summary of Natural Population Analysis:

                                       Natural Population
                Natural  -----------------------------------------------
    Atom  No    Charge         Core      Valence    Rydberg      Total
 -----------------------------------------------------------------------
      C    1   -0.29008      0.99964     2.28434    0.00610     3.29008
      C    2    0.06312      0.99958     1.92253    0.01477     2.93688
      C    3   -0.19576      0.99960     2.18767    0.00849     3.19576
      C    4   -0.16426      0.99956     2.15380    0.01090     3.16426
      C    5   -0.01129      0.99958     1.99968    0.01203     3.01129
      O    6   -0.30230      0.99989     3.29401    0.00840     4.30230
      C    7    0.34797      0.99964     1.62994    0.02245     2.65203
      O    8   -0.32673      0.99988     3.32128    0.00558     4.32673
      N    9   -0.31969      0.99966     2.81069    0.00933     3.81969
      C   10   -0.10066      0.99959     2.08967    0.01140     3.10066
      C   11   -0.20196      0.99960     2.19267    0.00969     3.20196
      C   12    0.05984      0.99957     1.92747    0.01312     2.94016
      C   13   -0.30073      0.99965     2.29504    0.00605     3.30073
      O   14   -0.37090      0.99990     3.36427    0.00672     4.37090
      H   15    0.10169      0.00000     0.39680    0.00151     0.39831
      H   16    0.10419      0.00000     0.39469    0.00111     0.39581
      H   17    0.10440      0.00000     0.39411    0.00149     0.39560
      H   18    0.08047      0.00000     0.41761    0.00193     0.41953
      H   19    0.10924      0.00000     0.38948    0.00128     0.39076
      H   20    0.10220      0.00000     0.39601    0.00180     0.39780
      H   21    0.11513      0.00000     0.38372    0.00115     0.38487
      H   22    0.09383      0.00000     0.40481    0.00135     0.40617
      H   23    0.08460      0.00000     0.41428    0.00112     0.41540
      H   24    0.19196      0.00000     0.30552    0.00251     0.30804
      H   25    0.09652      0.00000     0.40177    0.00170     0.40348
      H   26    0.11228      0.00000     0.38409    0.00363     0.38772
      H   27    0.10141      0.00000     0.39699    0.00160     0.39859
      H   28    0.09987      0.00000     0.39877    0.00136     0.40013
      H   29    0.08281      0.00000     0.41552    0.00167     0.41719
      H   30    0.10158      0.00000     0.39590    0.00253     0.39842
      H   31    0.10376      0.00000     0.39530    0.00094     0.39624
      H   32    0.10035      0.00000     0.39841    0.00124     0.39965
      H   33    0.22712      0.00000     0.26961    0.00327     0.27288
 =======================================================================
   * Total *    0.00000     13.99534    40.82646    0.17820    55.00000

 Normal termination of Gaussian 16 at Thu Dec 10 10:16:46 2020.
