 Gaussian 16, Revision A.03,

 -----------------------------------------------------------
 # opt freq B3LYP/6-31G(d) empiricaldispersion=gd3bj scf=xqc
 -----------------------------------------------------------

 ------------------------------
 CID_64686824_JID_4977_neutraal
 ------------------------------
 Symbolic Z-matrix:
 Charge =  0 Multiplicity = 1

 SCF Done:  E(RB3LYP) =  -581.267630697     A.U. after   13 cycles
 SCF Done:  E(RB3LYP) =  -581.273741563     A.U. after   11 cycles
 SCF Done:  E(RB3LYP) =  -581.274423421     A.U. after   10 cycles
 SCF Done:  E(RB3LYP) =  -581.274569165     A.U. after   10 cycles
 SCF Done:  E(RB3LYP) =  -581.274588711     A.U. after    9 cycles
 SCF Done:  E(RB3LYP) =  -581.274593869     A.U. after    9 cycles
 SCF Done:  E(RB3LYP) =  -581.274595770     A.U. after    8 cycles
 SCF Done:  E(RB3LYP) =  -581.274596337     A.U. after    7 cycles
 Optimization completed.
    -- Stationary point found.
 Normal termination of Gaussian 16 at Thu Dec 10 11:01:48 2020.

 --------------------------------------------------------------------
 #N Geom=AllCheck Guess=TCheck SCRF=Check GenChk RB3LYP/6-31G(d) Freq
 --------------------------------------------------------------------

 Structure from the checkpoint file:  "JID_4977.chk"
 ------------------------------
 CID_64686824_JID_4977_neutraal
 ------------------------------
 Charge =  0 Multiplicity = 1

 SCF Done:  E(RB3LYP) =  -581.274596337     A.U. after    1 cycles

  Exact polarizability: 149.464  -0.001 130.176  -0.039   0.000 123.422
 Approx polarizability: 189.172  -0.000 187.300  -0.281  -0.000 181.518

                      1                      2                      3
                      A                      A                      A
 Frequencies --     44.4236                58.3760                63.7644
 Red. masses --      2.3729                 2.4193                 3.8438
 Frc consts  --      0.0028                 0.0049                 0.0092
 IR Inten    --      0.1115                 0.0348                 0.0579

                      4                      5                      6
                      A                      A                      A
 Frequencies --     77.7017               165.5370               204.0532
 Red. masses --      1.6713                 2.5581                 2.3644
 Frc consts  --      0.0059                 0.0413                 0.0580
 IR Inten    --      0.0200                 0.3026                 0.7482

                      7                      8                      9
                      A                      A                      A
 Frequencies --    222.4130               225.4266               241.8756
 Red. masses --      2.4630                 2.4554                 1.0374
 Frc consts  --      0.0718                 0.0735                 0.0358
 IR Inten    --      1.9850                 0.0285                 0.0115

                     10                     11                     12
                      A                      A                      A
 Frequencies --    242.7921               319.6157               334.3526
 Red. masses --      3.4396                 2.5038                 2.1378
 Frc consts  --      0.1195                 0.1507                 0.1408
 IR Inten    --      0.9288                 0.0366                 2.1211

                     13                     14                     15
                      A                      A                      A
 Frequencies --    337.7904               347.4181               378.8142
 Red. masses --      2.6402                 2.2742                 2.0661
 Frc consts  --      0.1775                 0.1617                 0.1747
 IR Inten    --      0.7560                 0.7580                 1.6103

                     16                     17                     18
                      A                      A                      A
 Frequencies --    425.3159               451.1331               483.8678
 Red. masses --      2.6222                 2.9642                 2.9905
 Frc consts  --      0.2795                 0.3554                 0.4125
 IR Inten    --      2.2942                 0.4114                 1.5274

                     19                     20                     21
                      A                      A                      A
 Frequencies --    493.9121               530.0388               646.1485
 Red. masses --      2.0987                 1.7864                 2.8521
 Frc consts  --      0.3016                 0.2957                 0.7016
 IR Inten    --      1.3320                39.8332                 0.0531

                     22                     23                     24
                      A                      A                      A
 Frequencies --    674.3461               719.6221               760.3005
 Red. masses --      2.3543                 1.8972                 2.0793
 Frc consts  --      0.6308                 0.5789                 0.7082
 IR Inten    --      1.3846                17.4702                13.3747

                     25                     26                     27
                      A                      A                      A
 Frequencies --    784.0789               816.3037               816.4886
 Red. masses --      1.8181                 1.6566                 1.6833
 Frc consts  --      0.6585                 0.6504                 0.6612
 IR Inten    --     50.6392                 0.0073                 0.3892

                     28                     29                     30
                      A                      A                      A
 Frequencies --    838.7711               844.8746               872.2376
 Red. masses --      1.5592                 2.5205                 2.0465
 Frc consts  --      0.6463                 1.0600                 0.9173
 IR Inten    --      0.3160                16.0804                 0.3357

                     31                     32                     33
                      A                      A                      A
 Frequencies --    906.7933               912.0234               929.4331
 Red. masses --      2.0604                 2.3724                 2.0821
 Frc consts  --      0.9982                 1.1627                 1.0597
 IR Inten    --     12.1822                 4.9371                 1.3845

                     34                     35                     36
                      A                      A                      A
 Frequencies --    954.1539               960.7129               976.0898
 Red. masses --      1.6876                 1.7592                 2.2112
 Frc consts  --      0.9052                 0.9566                 1.2412
 IR Inten    --      0.0333                 2.1616                 0.7087

                     37                     38                     39
                      A                      A                      A
 Frequencies --   1003.6654              1027.0565              1036.9496
 Red. masses --      1.9186                 1.8198                 2.1860
 Frc consts  --      1.1387                 1.1310                 1.3849
 IR Inten    --      0.4862                 9.7949                 0.0137

                     40                     41                     42
                      A                      A                      A
 Frequencies --   1041.0367              1069.1107              1077.5705
 Red. masses --      1.8850                 1.7499                 2.2646
 Frc consts  --      1.2036                 1.1784                 1.5493
 IR Inten    --      5.1662                 2.6251                 0.6717

                     43                     44                     45
                      A                      A                      A
 Frequencies --   1086.4642              1087.4680              1122.5305
 Red. masses --      1.9165                 2.1991                 2.0674
 Frc consts  --      1.3329                 1.5323                 1.5348
 IR Inten    --      0.1403                14.1545                 1.5548

                     46                     47                     48
                      A                      A                      A
 Frequencies --   1148.9728              1150.7839              1184.8319
 Red. masses --      1.7596                 2.7525                 2.5551
 Frc consts  --      1.3686                 2.1477                 2.1133
 IR Inten    --      0.2052                 0.0273                17.4227

                     49                     50                     51
                      A                      A                      A
 Frequencies --   1195.1486              1209.1380              1245.4426
 Red. masses --      1.7891                 1.7098                 1.3467
 Frc consts  --      1.5057                 1.4728                 1.2308
 IR Inten    --     51.5449                 3.2337                26.1128

                     52                     53                     54
                      A                      A                      A
 Frequencies --   1246.9548              1261.8121              1275.4092
 Red. masses --      1.5774                 1.3732                 1.1813
 Frc consts  --      1.4451                 1.2881                 1.1322
 IR Inten    --     34.3797                15.0369                 3.8330

                     55                     56                     57
                      A                      A                      A
 Frequencies --   1282.9204              1293.1212              1305.8368
 Red. masses --      1.5386                 1.5297                 1.6416
 Frc consts  --      1.4920                 1.5070                 1.6493
 IR Inten    --      3.7253                 7.1066                 1.6436

                     58                     59                     60
                      A                      A                      A
 Frequencies --   1319.0099              1323.3816              1323.4885
 Red. masses --      1.1943                 1.3064                 1.2985
 Frc consts  --      1.2242                 1.3481                 1.3401
 IR Inten    --      1.4504                 0.6440                 3.6034

                     61                     62                     63
                      A                      A                      A
 Frequencies --   1350.3856              1359.5735              1368.9206
 Red. masses --      1.2654                 1.4541                 1.2710
 Frc consts  --      1.3595                 1.5836                 1.4033
 IR Inten    --     12.0408                 0.9114                 1.7962

                     64                     65                     66
                      A                      A                      A
 Frequencies --   1374.1192              1382.2787              1391.4995
 Red. masses --      1.2473                 1.5390                 1.4165
 Frc consts  --      1.3876                 1.7325                 1.6160
 IR Inten    --      8.9300                10.4766                29.6711

                     67                     68                     69
                      A                      A                      A
 Frequencies --   1401.7420              1417.6532              1434.2159
 Red. masses --      1.3031                 1.2143                 1.2503
 Frc consts  --      1.5086                 1.4378                 1.5152
 IR Inten    --      3.6227                 3.3866                 8.2464

                     70                     71                     72
                      A                      A                      A
 Frequencies --   1446.9038              1462.7174              1506.1260
 Red. masses --      1.3282                 1.4052                 1.0767
 Frc consts  --      1.6383                 1.7714                 1.4390
 IR Inten    --     13.6057                 3.6311                 1.3184

                     73                     74                     75
                      A                      A                      A
 Frequencies --   1511.7562              1514.4355              1517.6412
 Red. masses --      1.0805                 1.0893                 1.0693
 Frc consts  --      1.4549                 1.4720                 1.4511
 IR Inten    --      0.3006                 1.8335                 0.2789

                     76                     77                     78
                      A                      A                      A
 Frequencies --   1518.7648              1524.3400              1525.6547
 Red. masses --      1.0725                 1.0927                 1.1616
 Frc consts  --      1.4575                 1.4960                 1.5930
 IR Inten    --      3.2334                 8.7441                 0.4174

                     79                     80                     81
                      A                      A                      A
 Frequencies --   1530.2538              1531.0627              1535.0897
 Red. masses --      1.0867                 1.1514                 1.0749
 Frc consts  --      1.4993                 1.5903                 1.4924
 IR Inten    --      2.5359                 0.0529                 0.0962

                     82                     83                     84
                      A                      A                      A
 Frequencies --   1538.1028              1548.6286              1554.5484
 Red. masses --      1.0764                 1.0937                 1.1029
 Frc consts  --      1.5003                 1.5455                 1.5703
 IR Inten    --      6.0458                 6.5209                 3.6648

                     85                     86                     87
                      A                      A                      A
 Frequencies --   2934.3276              2938.0118              2971.4587
 Red. masses --      1.0758                 1.0734                 1.0718
 Frc consts  --      5.4577                 5.4593                 5.5755
 IR Inten    --     12.7327               135.5260                23.1184

                     88                     89                     90
                      A                      A                      A
 Frequencies --   2974.1625              3045.0109              3045.5006
 Red. masses --      1.0700                 1.0735                 1.0760
 Frc consts  --      5.5764                 5.8645                 5.8802
 IR Inten    --    113.9448                21.0068                25.1894

                     91                     92                     93
                      A                      A                      A
 Frequencies --   3050.9622              3053.4658              3058.9760
 Red. masses --      1.0363                 1.0608                 1.0649
 Frc consts  --      5.6831                 5.8272                 5.8711
 IR Inten    --     31.2375                14.7556                29.2328

                     94                     95                     96
                      A                      A                      A
 Frequencies --   3059.0385              3069.5131              3071.2750
 Red. masses --      1.0592                 1.0876                 1.0809
 Frc consts  --      5.8398                 6.0378                 6.0074
 IR Inten    --     47.2931                81.3749               101.4264

                     97                     98                     99
                      A                      A                      A
 Frequencies --   3071.8577              3087.5955              3100.4171
 Red. masses --      1.0727                 1.1001                 1.1000
 Frc consts  --      5.9642                 6.1789                 6.2301
 IR Inten    --      6.8711                18.7131                 3.9012

                    100                    101                    102
                      A                      A                      A
 Frequencies --   3100.4347              3106.6869              3114.6582
 Red. masses --      1.0933                 1.1050                 1.0945
 Frc consts  --      6.1918                 6.2838                 6.2557
 IR Inten    --      7.5318                 1.3723                18.3287

                    103                    104                    105
                      A                      A                      A
 Frequencies --   3116.7700              3119.1301              3120.4367
 Red. masses --      1.0962                 1.1020                 1.1031
 Frc consts  --      6.2738                 6.3171                 6.3287
 IR Inten    --     58.7397                19.9225                56.8310

                    106                    107                    108
                      A                      A                      A
 Frequencies --   3133.5090              3137.5473              3495.1643
 Red. masses --      1.0868                 1.0888                 1.0744
 Frc consts  --      6.2873                 6.3151                 7.7330
 IR Inten    --     67.4086                30.0544                 3.1833

 - Thermochemistry -
 -------------------
 Temperature   298.150 Kelvin.  Pressure   1.00000 Atm.
 Atom     1 has atomic number  6 and mass  12.00000

 Molecular mass:   196.19395 amu.
 Principal axes and moments of inertia in atomic units:
                           1         2         3
     Eigenvalues --  1566.258364042.404074186.43265
           X            1.00000  -0.00000  -0.00023
           Y            0.00000   1.00000  -0.00001
           Z            0.00023   0.00001   1.00000
 This molecule is an asymmetric top.
 Rotational symmetry number  1.
 Warning -- assumption of classical behavior for rotation
           may cause significant error
 Rotational temperatures (Kelvin)      0.05530     0.02143     0.02069
 Rotational constants (GHZ):           1.15226     0.44645     0.43109
 Zero-point vibrational energy     936684.6 (Joules/Mol)
                                  223.87298 (Kcal/Mol)
 Warning -- explicit consideration of  20 degrees of freedom as
           vibrations may cause significant error
 Vibrational temperatures:     63.92    83.99    91.74   111.80   238.17
          (Kelvin)            293.59   320.00   324.34   348.01   349.32
                              459.86   481.06   486.01   499.86   545.03
                              611.93   649.08   696.18   710.63   762.61
                              929.66   970.23  1035.38  1093.90  1128.11
                             1174.48  1174.74  1206.80  1215.59  1254.96
                             1304.67  1312.20  1337.25  1372.81  1382.25
                             1404.38  1444.05  1477.71  1491.94  1497.82
                             1538.21  1550.38  1563.18  1564.62  1615.07
                             1653.12  1655.72  1704.71  1719.55  1739.68
                             1791.91  1794.09  1815.47  1835.03  1845.84
                             1860.51  1878.81  1897.76  1904.05  1904.20
                             1942.90  1956.12  1969.57  1977.05  1988.79
                             2002.06  2016.79  2039.69  2063.52  2081.77
                             2104.52  2166.98  2175.08  2178.93  2183.55
                             2185.16  2193.19  2195.08  2201.69  2202.86
                             2208.65  2212.99  2228.13  2236.65  4221.84
                             4227.14  4275.27  4279.16  4381.09  4381.80
                             4389.65  4393.26  4401.18  4401.27  4416.34
                             4418.88  4419.72  4442.36  4460.81  4460.83
                             4469.83  4481.30  4484.34  4487.73  4489.61
                             4508.42  4514.23  5028.76

 Zero-point correction=                           0.356764 (Hartree/Particle)
 Thermal correction to Energy=                    0.370895
 Thermal correction to Enthalpy=                  0.371839
 Thermal correction to Gibbs Free Energy=         0.316036
 Sum of electronic and zero-point Energies=           -580.917832
 Sum of electronic and thermal Energies=              -580.903702
 Sum of electronic and thermal Enthalpies=            -580.902757
 Sum of electronic and thermal Free Energies=         -580.958561

                     E (Thermal)             CV                S
                      KCal/Mol        Cal/Mol-Kelvin    Cal/Mol-Kelvin
 Total                  232.740             56.386            117.448
 Electronic               0.000              0.000              0.000
 Translational            0.889              2.981             41.727
 Rotational               0.889              2.981             31.650
 Vibrational            230.963             50.424             44.071
 Vibration     1          0.595              1.980              5.051
 Vibration     2          0.596              1.974              4.511
 Vibration     3          0.597              1.972              4.337
 Vibration     4          0.599              1.964              3.948
 Vibration     5          0.624              1.885              2.486
 Vibration     6          0.640              1.834              2.096
 Vibration     7          0.648              1.807              1.939
 Vibration     8          0.650              1.802              1.915
 Vibration     9          0.658              1.776              1.789
 Vibration    10          0.659              1.775              1.782
 Vibration    11          0.706              1.636              1.312
 Vibration    12          0.716              1.607              1.239
 Vibration    13          0.718              1.600              1.223
 Vibration    14          0.725              1.581              1.178
 Vibration    15          0.749              1.515              1.044
 Vibration    16          0.787              1.415              0.874
 Vibration    17          0.810              1.358              0.792
 Vibration    18          0.840              1.286              0.700
 Vibration    19          0.850              1.264              0.674
 Vibration    20          0.885              1.184              0.587

 Optimization completed.
    -- Stationary point found.
 Normal termination of Gaussian 16 at Thu Dec 10 11:17:05 2020.

 ----------------------------------------------------------------------
 # B3LYP/6-311++G(d,p) empiricaldispersion=gd3bj scf=xqc pop=npa geom=c
 heck
 ----------------------------------------------------------------------

 --------------------------------------
 CID_64686824_JID_4977_Energie_neutraal
 --------------------------------------
 Structure from the checkpoint file:  "JID_4977.chk"
 Charge =  0 Multiplicity = 1

 SCF Done:  E(RB3LYP) =  -581.435303850     A.U. after   15 cycles
 Normal termination of Gaussian 16 at Thu Dec 10 11:25:04 2020.

 ----------------------------------------------------------------------
 # B3LYP/6-311++G(d,p) empiricaldispersion=gd3bj scf=xqc pop=npa geom=c
 heck
 ----------------------------------------------------------------------

 ------------------------------------
 CID_64686824_JID_4977_Energie_kation
 ------------------------------------
 Structure from the checkpoint file:  "JID_4977.chk"
 Charge =  1 Multiplicity = 2

 SCF Done:  E(UB3LYP) =  -581.167264021     A.U. after   19 cycles
 Normal termination of Gaussian 16 at Thu Dec 10 11:39:03 2020.
 Gaussian 16:  ES64L-G16RevA.03 25-Dec-2016

 ----------------------------------------------------------------------
 # B3LYP/6-311++G(d,p) empiricaldispersion=gd3bj scf=xqc pop=npa geom=c
 heck
 ----------------------------------------------------------------------

 -----------------------------------
 CID_64686824_JID_4977_Energie_anion
 -----------------------------------
 Structure from the checkpoint file:  "JID_4977.chk"
 Charge = -1 Multiplicity = 2

                         Standard orientation:
 ---------------------------------------------------------------------
 Center     Atomic      Atomic             Coordinates (Angstroms)
 Number     Number       Type             X           Y           Z
 ---------------------------------------------------------------------
      1          6           0        2.052993    0.000335    1.751050
      2          6           0        1.349921    0.000087    0.378435
      3          6           0        1.839676   -1.193084   -0.480911
      4          6           0        3.214795   -0.776773   -1.040742
      5          6           0        3.214787    0.776380   -1.041083
      6          6           0        1.839697    1.192932   -0.481351
      7          7           0       -0.127176    0.000135    0.493622
      8          6           0       -0.691051   -1.217622    1.069756
      9          6           0       -2.111378   -1.558964    0.575653
     10          6           0       -2.365504   -1.254738   -0.912309
     11          7           0       -3.097707   -0.000249   -1.120908
     12          6           0       -2.365769    1.254431   -0.912558
     13          6           0       -2.111539    1.558921    0.575336
     14          6           0       -0.691002    1.218187    1.069155
     15          1           0        1.777159   -0.885917    2.332897
     16          1           0        3.143283    0.000302    1.644753
     17          1           0        1.777184    0.886810    2.332569
     18          1           0        1.899366   -2.132872    0.076781
     19          1           0        1.118099   -1.334835   -1.294151
     20          1           0        3.378068   -1.192660   -2.039917
     21          1           0        4.022401   -1.161272   -0.408607
     22          1           0        3.377981    1.191820   -2.040458
     23          1           0        4.022437    1.161168   -0.409182
     24          1           0        1.118098    1.334414   -1.294618
     25          1           0        1.899429    2.132912    0.076012
     26          1           0       -0.040892   -2.046515    0.785471
     27          1           0       -0.692862   -1.189167    2.176146
     28          1           0       -2.878381   -1.046873    1.162605
     29          1           0       -2.261298   -2.630567    0.759838
     30          1           0       -3.002987   -2.042976   -1.329528
     31          1           0       -1.406660   -1.287281   -1.458303
     32          1           0       -3.445988   -0.000380   -2.076976
     33          1           0       -3.003461    2.042468   -1.329839
     34          1           0       -1.406982    1.287112   -1.458650
     35          1           0       -2.878218    1.046586    1.162497
     36          1           0       -2.261837    2.630483    0.759454
     37          1           0       -0.692415    1.190488    2.175570
     38          1           0       -0.041093    2.046999    0.784047
 ---------------------------------------------------------------------

 SCF Done:  E(UB3LYP) =  -581.419598000     A.U. after   28 cycles

 The electronic state is 2-A.
 Alpha  occ. eigenvalues --  -14.19508 -14.19101 -10.10210 -10.08591 -10.08590
 Alpha  occ. eigenvalues --  -10.08403 -10.08402 -10.06156 -10.06136 -10.06067
 Alpha  occ. eigenvalues --  -10.06066 -10.05809 -10.05808 -10.05229  -0.82444
 Alpha  occ. eigenvalues --   -0.79456  -0.72842  -0.67918  -0.64899  -0.61273
 Alpha  occ. eigenvalues --   -0.61234  -0.58893  -0.56528  -0.51288  -0.49832
 Alpha  occ. eigenvalues --   -0.45959  -0.45891  -0.43071  -0.40599  -0.38485
 Alpha  occ. eigenvalues --   -0.37619  -0.36872  -0.35976  -0.34286  -0.33264
 Alpha  occ. eigenvalues --   -0.33002  -0.31349  -0.31295  -0.29852  -0.28787
 Alpha  occ. eigenvalues --   -0.28154  -0.27287  -0.26332  -0.25445  -0.24320
 Alpha  occ. eigenvalues --   -0.24085  -0.23607  -0.22881  -0.22446  -0.21839
 Alpha  occ. eigenvalues --   -0.21741  -0.20891  -0.20294  -0.12736  -0.10596
 Alpha  occ. eigenvalues --    0.04468
 Alpha virt. eigenvalues --    0.06485   0.06965   0.07241   0.08478   0.08565
 Alpha virt. eigenvalues --    0.09203   0.09288   0.09467   0.11228   0.11233
 Alpha virt. eigenvalues --    0.11554   0.11678   0.12016   0.12523   0.12864

  Beta  occ. eigenvalues --  -14.19503 -14.19086 -10.10209 -10.08581 -10.08580
  Beta  occ. eigenvalues --  -10.08390 -10.08389 -10.06136 -10.06117 -10.06059
  Beta  occ. eigenvalues --  -10.06058 -10.05794 -10.05793 -10.05197  -0.82430
  Beta  occ. eigenvalues --   -0.79427  -0.72820  -0.67895  -0.64870  -0.61236
  Beta  occ. eigenvalues --   -0.61198  -0.58862  -0.56480  -0.51249  -0.49797
  Beta  occ. eigenvalues --   -0.45900  -0.45849  -0.43032  -0.40557  -0.38436
  Beta  occ. eigenvalues --   -0.37586  -0.36850  -0.35954  -0.34264  -0.33237
  Beta  occ. eigenvalues --   -0.32974  -0.31324  -0.31270  -0.29816  -0.28761
  Beta  occ. eigenvalues --   -0.28118  -0.27260  -0.26310  -0.25422  -0.24289
  Beta  occ. eigenvalues --   -0.24052  -0.23574  -0.22851  -0.22421  -0.21811
  Beta  occ. eigenvalues --   -0.21708  -0.20868  -0.20273  -0.12707  -0.10566
  Beta virt. eigenvalues --    0.06541   0.07369   0.07629   0.07676   0.08989
  Beta virt. eigenvalues --    0.09106   0.09508   0.09675   0.09764   0.11643
  Beta virt. eigenvalues --    0.11672   0.11763   0.11833   0.12308   0.12875

 Mulliken charges and spin densities:
               1          2
     1  C    1.240436  -1.836913
     2  C   -1.960037   1.658861
     3  C   -0.258671   0.154140
     4  C    0.559697  -1.161991
     5  C    0.560235  -1.162596
     6  C   -0.257924   0.153430
     7  N    0.640142  -0.051592
     8  C   -0.346000   0.244520
     9  C    0.298122  -0.770681
    10  C    0.285296  -0.570929
    11  N   -0.321560   0.152238
    12  C    0.285247  -0.570944
    13  C    0.299546  -0.771816
    14  C   -0.347197   0.245501
    15  H   -0.077469   0.236231
    16  H   -0.195640   0.370418
    17  H   -0.077490   0.236253
    18  H   -0.341671   0.510882
    19  H    0.344271  -0.232586
    20  H   -0.156051   0.300156
    21  H   -0.086923   0.248584
    22  H   -0.155944   0.300049
    23  H   -0.087146   0.248809
    24  H    0.344242  -0.232566
    25  H   -0.341435   0.510670
    26  H    0.111589   0.033532
    27  H   -0.174686   0.290324
    28  H    0.221120  -0.084989
    29  H   -0.110258   0.275823
    30  H   -0.163270   0.320916
    31  H   -0.257575   0.391724
    32  H   -0.099319   0.336628
    33  H   -0.163249   0.320894
    34  H   -0.257616   0.391766
    35  H    0.221270  -0.085154
    36  H   -0.110299   0.275896
    37  H   -0.174698   0.290291
    38  H    0.110915   0.034223
 Sum of Mulliken charges =  -1.00000   1.00000

 Dipole moment (field-independent basis, Debye):
    X=             -1.5426    Y=             -0.0007    Z=              0.8776  Tot=              1.7747
 Quadrupole moment (field-independent basis, Debye-Ang):
   XX=           -162.0579   YY=           -134.3714   ZZ=           -131.6784
   XY=             -0.0008   XZ=             -8.1877   YZ=             -0.0011

 Summary of Natural Population Analysis:

                                       Natural Population
                Natural  -----------------------------------------------
    Atom  No    Charge         Core      Valence    Rydberg      Total
 -----------------------------------------------------------------------
      C    1   -0.29899      0.99960     2.29220    0.00719     3.29899
      C    2    0.07762      0.99954     1.90658    0.01627     2.92238
      C    3   -0.19632      0.99958     2.18737    0.00937     3.19632
      C    4   -0.19191      0.99964     2.18463    0.00764     3.19191
      C    5   -0.19191      0.99964     2.18463    0.00764     3.19191
      C    6   -0.19632      0.99958     2.18737    0.00937     3.19632
      N    7   -0.29617      0.99967     2.78287    0.01363     3.79617
      C    8   -0.08283      0.99960     2.07256    0.01067     3.08283
      C    9   -0.20082      0.99962     2.19314    0.00806     3.20082
      C   10   -0.08755      0.99961     2.07652    0.01141     3.08755
      N   11   -0.34081      0.99974     2.82881    0.01226     3.84081
      C   12   -0.08755      0.99961     2.07652    0.01141     3.08755
      C   13   -0.20083      0.99962     2.19315    0.00806     3.20083
      C   14   -0.08282      0.99960     2.07256    0.01067     3.08282
      H   15    0.10095      0.00000     0.39796    0.00109     0.39905
      H   16    0.10256      0.00000     0.39619    0.00126     0.39744
      H   17    0.10095      0.00000     0.39796    0.00109     0.39905
      H   18    0.10079      0.00000     0.39791    0.00130     0.39921
      H   19    0.10260      0.00000     0.39538    0.00202     0.39740
      H   20    0.09879      0.00000     0.40024    0.00097     0.40121
      H   21    0.09655      0.00000     0.40207    0.00138     0.40345
      H   22    0.09879      0.00000     0.40024    0.00097     0.40121
      H   23    0.09655      0.00000     0.40207    0.00138     0.40345
      H   24    0.10260      0.00000     0.39538    0.00202     0.39740
      H   25    0.10079      0.00000     0.39791    0.00130     0.39921
      H   26    0.09771      0.00000     0.40046    0.00183     0.40229
      H   27    0.08202      0.00000     0.41670    0.00128     0.41798
      H   28    0.09724      0.00000     0.40104    0.00172     0.40276
      H   29    0.09806      0.00000     0.40102    0.00093     0.40194
      H   30    0.09190      0.00000     0.40689    0.00120     0.40810
      H   31    0.08395      0.00000     0.41392    0.00213     0.41605
      H   32    0.17351      0.00000     0.32368    0.00280     0.32649
      H   33    0.09190      0.00000     0.40689    0.00120     0.40810
      H   34    0.08395      0.00000     0.41393    0.00213     0.41605
      H   35    0.09724      0.00000     0.40103    0.00172     0.40276
      H   36    0.09806      0.00000     0.40101    0.00093     0.40194
      H   37    0.08202      0.00000     0.41670    0.00128     0.41798
      H   38    0.09771      0.00000     0.40046    0.00183     0.40229
 =======================================================================
   * Total *    0.00000     13.99465    40.82596    0.17939    55.00000

 Normal termination of Gaussian 16 at Thu Dec 10 11:59:11 2020.
