 Gaussian 16, Revision A.03,

 -----------------------------------------------------------
 # opt freq B3LYP/6-31G(d) empiricaldispersion=gd3bj scf=xqc
 -----------------------------------------------------------

 -------------------------------
 CID_117196179_JID_3008_neutraal
 -------------------------------
 Symbolic Z-matrix:
 Charge =  0 Multiplicity = 1

 SCF Done:  E(RB3LYP) =  -915.834797068     A.U. after   15 cycles
 SCF Done:  E(RB3LYP) =  -915.840254592     A.U. after   13 cycles
 SCF Done:  E(RB3LYP) =  -915.841348596     A.U. after   12 cycles
 SCF Done:  E(RB3LYP) =  -915.841550830     A.U. after   11 cycles
 SCF Done:  E(RB3LYP) =  -915.841597913     A.U. after   11 cycles
 SCF Done:  E(RB3LYP) =  -915.841649340     A.U. after   10 cycles
 SCF Done:  E(RB3LYP) =  -915.841672849     A.U. after   10 cycles
 SCF Done:  E(RB3LYP) =  -915.841688926     A.U. after   10 cycles
 SCF Done:  E(RB3LYP) =  -915.841694407     A.U. after   10 cycles
 SCF Done:  E(RB3LYP) =  -915.841712068     A.U. after   10 cycles
 SCF Done:  E(RB3LYP) =  -915.841860194     A.U. after   11 cycles
 SCF Done:  E(RB3LYP) =  -915.841865274     A.U. after   10 cycles
 SCF Done:  E(RB3LYP) =  -915.841866158     A.U. after    9 cycles
 SCF Done:  E(RB3LYP) =  -915.841866320     A.U. after    8 cycles
 SCF Done:  E(RB3LYP) =  -915.841866339     A.U. after    6 cycles
 Optimization completed.
    -- Stationary point found.
 Normal termination of Gaussian 16 at Wed Dec  9 22:22:55 2020.

 --------------------------------------------------------------------
 #N Geom=AllCheck Guess=TCheck SCRF=Check GenChk RB3LYP/6-31G(d) Freq
 --------------------------------------------------------------------

 Structure from the checkpoint file:  "JID_3008.chk"
 -------------------------------
 CID_117196179_JID_3008_neutraal
 -------------------------------
 Charge =  0 Multiplicity = 1

 SCF Done:  E(RB3LYP) =  -915.841866339     A.U. after    1 cycles

  Exact polarizability: 167.687  14.751 152.407   9.328  -7.370  69.243
 Approx polarizability: 253.338  25.736 268.413  18.358 -22.286 108.044

                      1                      2                      3
                      A                      A                      A
 Frequencies --     47.9530                55.8912                74.5362
 Red. masses --      3.3771                 1.1397                 3.5124
 Frc consts  --      0.0046                 0.0021                 0.0115
 IR Inten    --      1.2018                 0.3741                 0.6180

                      4                      5                      6
                      A                      A                      A
 Frequencies --    126.9307               156.2453               186.3981
 Red. masses --      4.0784                 4.0060                 2.2784
 Frc consts  --      0.0387                 0.0576                 0.0466
 IR Inten    --      1.3354                 2.3495                21.4619

                      7                      8                      9
                      A                      A                      A
 Frequencies --    197.6520               211.4432               296.0701
 Red. masses --      4.1537                 1.5668                 3.6406
 Frc consts  --      0.0956                 0.0413                 0.1880
 IR Inten    --      0.4991                59.0172                 2.2586

                     10                     11                     12
                      A                      A                      A
 Frequencies --    297.3091               340.3079               408.1904
 Red. masses --      3.9568                 5.4189                 4.8754
 Frc consts  --      0.2061                 0.3698                 0.4786
 IR Inten    --      0.2257                 5.2372                 0.0965

                     13                     14                     15
                      A                      A                      A
 Frequencies --    438.1667               465.2300               482.4050
 Red. masses --      3.0466                 3.2644                 3.6902
 Frc consts  --      0.3446                 0.4163                 0.5060
 IR Inten    --      4.8632                 4.8858                 4.9534

                     16                     17                     18
                      A                      A                      A
 Frequencies --    525.7205               536.1401               584.0581
 Red. masses --      6.1329                 5.2324                 3.8179
 Frc consts  --      0.9987                 0.8862                 0.7673
 IR Inten    --      1.9330                 2.0048                10.7882

                     19                     20                     21
                      A                      A                      A
 Frequencies --    668.9895               696.5813               742.8098
 Red. masses --      3.7513                 4.9257                 5.0038
 Frc consts  --      0.9892                 1.4082                 1.6267
 IR Inten    --      8.5007                 8.0987                 4.1664

                     22                     23                     24
                      A                      A                      A
 Frequencies --    765.6377               795.7353               835.4206
 Red. masses --      3.1090                 1.6644                 1.5588
 Frc consts  --      1.0738                 0.6209                 0.6410
 IR Inten    --      6.1289                37.1560                24.8253

                     25                     26                     27
                      A                      A                      A
 Frequencies --    846.0493               878.9278               888.2689
 Red. masses --      3.9085                 1.3169                 5.5307
 Frc consts  --      1.6483                 0.5994                 2.5711
 IR Inten    --     11.3218                 2.1609                 1.8317

                     28                     29                     30
                      A                      A                      A
 Frequencies --    894.0601               965.8083              1006.5068
 Red. masses --      4.8485                 1.2999                 3.0602
 Frc consts  --      2.2834                 0.7144                 1.8266
 IR Inten    --     10.2852                 0.0491                62.8196

                     31                     32                     33
                      A                      A                      A
 Frequencies --   1024.4252              1028.2427              1064.4684
 Red. masses --      2.3713                 1.5326                 3.3185
 Frc consts  --      1.4662                 0.9547                 2.2154
 IR Inten    --     21.9155                10.6941                 5.1757

                     34                     35                     36
                      A                      A                      A
 Frequencies --   1075.1551              1116.7440              1181.6238
 Red. masses --      1.5040                 2.5950                 1.3917
 Frc consts  --      1.0243                 1.9068                 1.1449
 IR Inten    --      4.7280                16.6933                 0.8256

                     37                     38                     39
                      A                      A                      A
 Frequencies --   1213.6212              1244.0950              1254.0380
 Red. masses --      1.3483                 2.7435                 1.4843
 Frc consts  --      1.1701                 2.5019                 1.3753
 IR Inten    --      1.7717                 0.2365                53.6635

                     40                     41                     42
                      A                      A                      A
 Frequencies --   1294.7141              1312.2870              1345.5952
 Red. masses --      1.4116                 1.3068                 1.1515
 Frc consts  --      1.3942                 1.3259                 1.2284
 IR Inten    --      1.9327                 1.6588                 6.6814

                     43                     44                     45
                      A                      A                      A
 Frequencies --   1364.8138              1396.3447              1402.8703
 Red. masses --      7.1854                 1.6426                 1.7319
 Frc consts  --      7.8859                 1.8870                 2.0082
 IR Inten    --      0.6558                18.0530                18.0589

                     46                     47                     48
                      A                      A                      A
 Frequencies --   1442.9505              1449.7236              1501.6132
 Red. masses --      1.2585                 2.9336                 1.1417
 Frc consts  --      1.5438                 3.6327                 1.5168
 IR Inten    --      0.5557                10.6128                 5.0188

                     49                     50                     51
                      A                      A                      A
 Frequencies --   1510.2632              1514.0828              1530.8364
 Red. masses --      1.9321                 1.0445                 1.4444
 Frc consts  --      2.5965                 1.4107                 1.9943
 IR Inten    --     16.0123                 5.2319                 9.4454

                     52                     53                     54
                      A                      A                      A
 Frequencies --   1578.6510              1614.0949              1665.8383
 Red. masses --      4.7720                 6.4818                 5.9031
 Frc consts  --      7.0068                 9.9495                 9.6515
 IR Inten    --     18.7708                 2.0732                12.6042

                     55                     56                     57
                      A                      A                      A
 Frequencies --   1684.9235              3042.5966              3053.5387
 Red. masses --      1.0660                 1.0374                 1.0605
 Frc consts  --      1.7830                 5.6584                 5.8258
 IR Inten    --     24.2789                40.7039                42.8523

                     58                     59                     60
                      A                      A                      A
 Frequencies --   3093.6756              3114.0128              3126.2123
 Red. masses --      1.1009                 1.1044                 1.1008
 Frc consts  --      6.2080                 6.3098                 6.3385
 IR Inten    --     21.0057                19.2295                17.2873

                     61                     62                     63
                      A                      A                      A
 Frequencies --   3180.7307              3190.4317              3226.3108
 Red. masses --      1.0891                 1.0907                 1.0923
 Frc consts  --      6.4920                 6.5412                 6.6991
 IR Inten    --     18.8053                11.8989                 2.9953

                     64                     65                     66
                      A                      A                      A
 Frequencies --   3254.9491              3403.8388              3511.9158
 Red. masses --      1.0937                 1.0504                 1.0932
 Frc consts  --      6.8270                 7.1705                 7.9437
 IR Inten    --      0.9637                 2.5041                 0.5456

 - Thermochemistry -
 -------------------
 Temperature   298.150 Kelvin.  Pressure   1.00000 Atm.
 Atom     1 has atomic number  6 and mass  12.00000

 Molecular mass:   193.05614 amu.
 Principal axes and moments of inertia in atomic units:
                           1         2         3
     Eigenvalues --  1724.279523353.206894813.19673
           X            0.99985   0.01660   0.00488
           Y           -0.01662   0.99985   0.00511
           Z           -0.00479  -0.00519   0.99998
 This molecule is an asymmetric top.
 Rotational symmetry number  1.
 Warning -- assumption of classical behavior for rotation
           may cause significant error
 Rotational temperatures (Kelvin)      0.05023     0.02583     0.01800
 Rotational constants (GHZ):           1.04666     0.53821     0.37496
 Zero-point vibrational energy     504977.7 (Joules/Mol)
                                  120.69256 (Kcal/Mol)
 Warning -- explicit consideration of  18 degrees of freedom as
           vibrations may cause significant error
 Vibrational temperatures:     68.99    80.41   107.24   182.63   224.80
          (Kelvin)            268.19   284.38   304.22   425.98   427.76
                              489.63   587.29   630.42   669.36   694.07
                              756.39   771.39   840.33   962.53  1002.23
                             1068.74  1101.58  1144.89  1201.98  1217.28
                             1264.58  1278.02  1286.35  1389.58  1448.14
                             1473.92  1479.41  1531.53  1546.91  1606.75
                             1700.09  1746.13  1789.98  1804.28  1862.80
                             1888.09  1936.01  1963.66  2009.03  2018.42
                             2076.08  2085.83  2160.49  2172.93  2178.43
                             2202.53  2271.33  2322.32  2396.77  2424.23
                             4377.62  4393.36  4451.11  4480.37  4497.92
                             4576.36  4590.32  4641.94  4683.15  4897.36
                             5052.86

 Zero-point correction=                           0.192336 (Hartree/Particle)
 Thermal correction to Energy=                    0.204672
 Thermal correction to Enthalpy=                  0.205616
 Thermal correction to Gibbs Free Energy=         0.152877
 Sum of electronic and zero-point Energies=           -915.649531
 Sum of electronic and thermal Energies=              -915.637194
 Sum of electronic and thermal Enthalpies=            -915.636250
 Sum of electronic and thermal Free Energies=         -915.688989

                     E (Thermal)             CV                S
                      KCal/Mol        Cal/Mol-Kelvin    Cal/Mol-Kelvin
 Total                  128.434             46.168            110.999
 Electronic               0.000              0.000              0.000
 Translational            0.889              2.981             41.679
 Rotational               0.889              2.981             31.698
 Vibrational            126.656             40.206             37.621
 Vibration     1          0.595              1.978              4.900
 Vibration     2          0.596              1.975              4.597
 Vibration     3          0.599              1.966              4.030
 Vibration     4          0.611              1.926              2.992
 Vibration     5          0.620              1.896              2.595
 Vibration     6          0.632              1.858              2.263
 Vibration     7          0.637              1.843              2.155
 Vibration     8          0.643              1.823              2.031
 Vibration     9          0.690              1.681              1.439
 Vibration    10          0.691              1.679              1.432
 Vibration    11          0.720              1.595              1.211
 Vibration    12          0.773              1.452              0.933
 Vibration    13          0.798              1.387              0.832
 Vibration    14          0.823              1.327              0.751
 Vibration    15          0.839              1.289              0.704
 Vibration    16          0.881              1.193              0.597
 Vibration    17          0.891              1.170              0.574
 Vibration    18          0.941              1.066              0.478

 Optimization completed.
    -- Stationary point found.
 Normal termination of Gaussian 16 at Wed Dec  9 22:28:20 2020.

 ----------------------------------------------------------------------
 # B3LYP/6-311++G(d,p) empiricaldispersion=gd3bj scf=xqc pop=npa geom=c
 heck
 ----------------------------------------------------------------------

 ---------------------------------------
 CID_117196179_JID_3008_Energie_neutraal
 ---------------------------------------
 Structure from the checkpoint file:  "JID_3008.chk"
 Charge =  0 Multiplicity = 1

 SCF Done:  E(RB3LYP) =  -916.012328040     A.U. after   15 cycles
 Normal termination of Gaussian 16 at Wed Dec  9 22:30:22 2020.

 ----------------------------------------------------------------------
 # B3LYP/6-311++G(d,p) empiricaldispersion=gd3bj scf=xqc pop=npa geom=c
 heck
 ----------------------------------------------------------------------

 -------------------------------------
 CID_117196179_JID_3008_Energie_kation
 -------------------------------------
 Structure from the checkpoint file:  "JID_3008.chk"
 Charge =  1 Multiplicity = 2

 SCF Done:  E(UB3LYP) =  -915.727961184     A.U. after   26 cycles
 Normal termination of Gaussian 16 at Wed Dec  9 22:35:07 2020.
 Gaussian 16:  ES64L-G16RevA.03 25-Dec-2016

 ----------------------------------------------------------------------
 # B3LYP/6-311++G(d,p) empiricaldispersion=gd3bj scf=xqc pop=npa geom=c
 heck
 ----------------------------------------------------------------------

 ------------------------------------
 CID_117196179_JID_3008_Energie_anion
 ------------------------------------
 Structure from the checkpoint file:  "JID_3008.chk"
 Charge = -1 Multiplicity = 2

                         Standard orientation:
 ---------------------------------------------------------------------
 Center     Atomic      Atomic             Coordinates (Angstroms)
 Number     Number       Type             X           Y           Z
 ---------------------------------------------------------------------
      1          6           0       -4.114994   -1.035670   -0.149749
      2          6           0       -2.656262   -0.677746   -0.002005
      3          6           0       -2.216402    0.628225   -0.200488
      4          6           0       -0.858120    0.922415   -0.052562
      5          6           0        0.092278   -0.068529    0.290746
      6          6           0       -0.366001   -1.385469    0.486044
      7          6           0       -1.713828   -1.671987    0.340907
      8          6           0        1.433108    0.472919    0.401115
      9          6           0        1.462486    1.809723    0.143193
     10         16           0       -0.098124    2.495505   -0.244158
     11          6           0        2.669838   -0.317068    0.741508
     12          8           0        3.282971   -0.943662   -0.387614
     13          7           0        2.511937   -2.107538   -0.754043
     14          1           0       -4.261801   -1.799646   -0.923270
     15          1           0       -4.715549   -0.162841   -0.423439
     16          1           0       -4.521652   -1.442731    0.784314
     17          1           0       -2.924223    1.408715   -0.465999
     18          1           0        0.345191   -2.169368    0.721516
     19          1           0       -2.060285   -2.691644    0.491652
     20          1           0        2.332721    2.453406    0.160309
     21          1           0        3.444417    0.356453    1.121312
     22          1           0        2.454970   -1.075145    1.504207
     23          1           0        1.999216   -1.818184   -1.592044
     24          1           0        3.237047   -2.745896   -1.085064
 ---------------------------------------------------------------------

 SCF Done:  E(UB3LYP) =  -915.997721261     A.U. after   33 cycles
 SCF Done:  E(UB3LYP) =  -915.997721261     a.u. after    1 cycles

 The electronic state is 2-A.
 Alpha  occ. eigenvalues --  -88.75794 -19.04019 -14.23927 -10.11036 -10.09159
 Alpha  occ. eigenvalues --  -10.07885 -10.06759 -10.06622 -10.06368 -10.06308
 Alpha  occ. eigenvalues --  -10.06235 -10.05735 -10.05611  -7.84434  -5.80741
 Alpha  occ. eigenvalues --   -5.80393  -5.79983  -0.95419  -0.77790  -0.72642
 Alpha  occ. eigenvalues --   -0.71404  -0.66191  -0.64136  -0.60847  -0.57468
 Alpha  occ. eigenvalues --   -0.53717  -0.49685  -0.46198  -0.44661  -0.40383
 Alpha  occ. eigenvalues --   -0.39423  -0.37303  -0.36373  -0.34235  -0.33698
 Alpha  occ. eigenvalues --   -0.32084  -0.31605  -0.31177  -0.28478  -0.27828
 Alpha  occ. eigenvalues --   -0.27624  -0.26130  -0.25008  -0.23794  -0.22062
 Alpha  occ. eigenvalues --   -0.21263  -0.17951  -0.16966  -0.14549  -0.12435
 Alpha  occ. eigenvalues --   -0.10669   0.04913
 Alpha virt. eigenvalues --    0.06618   0.07153   0.08046   0.08660   0.09305
 Alpha virt. eigenvalues --    0.09684   0.09796   0.10288   0.11218   0.11510
 Alpha virt. eigenvalues --    0.11990   0.13121   0.13443   0.13972   0.14134

  Beta  occ. eigenvalues --  -88.75779 -19.04013 -14.23878 -10.11023 -10.09149
  Beta  occ. eigenvalues --  -10.07680 -10.06656 -10.06601 -10.06342 -10.06286
  Beta  occ. eigenvalues --  -10.06215 -10.05756 -10.05533  -7.84420  -5.80736
  Beta  occ. eigenvalues --   -5.80387  -5.79931  -0.95397  -0.77674  -0.72510
  Beta  occ. eigenvalues --   -0.71279  -0.66065  -0.63990  -0.60743  -0.57373
  Beta  occ. eigenvalues --   -0.53585  -0.49525  -0.46054  -0.44543  -0.40316
  Beta  occ. eigenvalues --   -0.39345  -0.37243  -0.36288  -0.34123  -0.33637
  Beta  occ. eigenvalues --   -0.31985  -0.31458  -0.31125  -0.28379  -0.27697
  Beta  occ. eigenvalues --   -0.27510  -0.26038  -0.24934  -0.23726  -0.22006
  Beta  occ. eigenvalues --   -0.20849  -0.17904  -0.16627  -0.14510  -0.12085
  Beta  occ. eigenvalues --   -0.10090
  Beta virt. eigenvalues --    0.07117   0.07641   0.08278   0.08565   0.09025
  Beta virt. eigenvalues --    0.09458   0.09909   0.10049   0.10664   0.11495
  Beta virt. eigenvalues --    0.11767   0.12231   0.13293   0.13628   0.14112

 Mulliken charges and spin densities:
               1          2
     1  C    2.248529  -2.793902
     2  C   -0.255966   1.148748
     3  C    0.557031  -0.674980
     4  C   -0.141183   0.044363
     5  C    0.174127   0.174032
     6  C   -0.728931   0.254871
     7  C   -0.987637   0.299815
     8  C    0.110081   0.389109
     9  C   -0.569503   0.686759
    10  S   -0.624129  -0.125611
    11  C    0.660519  -1.203407
    12  O   -0.124744   0.062713
    13  N   -0.178133  -0.332497
    14  H    0.000170   0.142786
    15  H   -0.297536   0.435482
    16  H   -0.234451   0.393210
    17  H   -0.018616   0.133632
    18  H    0.163838   0.034932
    19  H   -0.285186   0.439204
    20  H   -0.035124   0.235374
    21  H   -0.237330   0.412581
    22  H   -0.077262   0.204027
    23  H    0.136366   0.100800
    24  H   -0.254930   0.537958
 Sum of Mulliken charges =  -1.00000   1.00000

 Dipole moment (field-independent basis, Debye):
    X=             -0.2164    Y=              3.3304    Z=             -0.7928  Tot=              3.4303
 Quadrupole moment (field-independent basis, Debye-Ang):
   XX=           -157.9315   YY=           -119.6403   ZZ=           -106.2203
   XY=              2.1451   XZ=              4.4521   YZ=             -1.0012

 Summary of Natural Population Analysis:

                                       Natural Population
                Natural  -----------------------------------------------
    Atom  No    Charge         Core      Valence    Rydberg      Total
 -----------------------------------------------------------------------
      C    1   -0.29236      0.99964     2.28711    0.00562     3.29236
      C    2   -0.00231      0.99953     1.99208    0.01071     3.00231
      C    3   -0.11086      0.99945     2.10182    0.00958     3.11086
      C    4   -0.08234      0.99941     2.07212    0.01082     3.08234
      C    5   -0.04409      0.99943     2.03449    0.01016     3.04409
      C    6   -0.07414      0.99953     2.06565    0.00897     3.07414
      C    7   -0.11393      0.99952     2.10481    0.00960     3.11393
      C    8   -0.05743      0.99943     2.04602    0.01198     3.05743
      C    9   -0.13127      0.99945     2.12155    0.01028     3.13127
      S   10    0.17827      4.99945     2.80093    0.02135     7.82173
      C   11   -0.01454      0.99953     1.99946    0.01556     3.01454
      O   12   -0.23713      0.99990     3.22416    0.01306     4.23713
      N   13   -0.25583      0.99976     2.74418    0.01189     3.75583
      H   14    0.10097      0.00000     0.39808    0.00095     0.39903
      H   15    0.09939      0.00000     0.39963    0.00098     0.40061
      H   16    0.10518      0.00000     0.39270    0.00212     0.39482
      H   17    0.09841      0.00000     0.40056    0.00103     0.40159
      H   18    0.10962      0.00000     0.38839    0.00200     0.39038
      H   19    0.09719      0.00000     0.40184    0.00097     0.40281
      H   20    0.10395      0.00000     0.39502    0.00103     0.39605
      H   21    0.09391      0.00000     0.40421    0.00188     0.40609
      H   22    0.08992      0.00000     0.40840    0.00168     0.41008
      H   23    0.16786      0.00000     0.33014    0.00200     0.33214
      H   24    0.17158      0.00000     0.32396    0.00446     0.32842
 =======================================================================
   * Total *   -0.00000     16.99403    33.83730    0.16867    51.00000

 Normal termination of Gaussian 16 at Wed Dec  9 22:41:19 2020.
