 Gaussian 16, Revision A.03,

 -----------------------------------------------------------
 # opt freq B3LYP/6-31G(d) empiricaldispersion=gd3bj scf=xqc
 -----------------------------------------------------------

 ------------------------------
 CID_62113475_JID_6540_neutraal
 ------------------------------
 Symbolic Z-matrix:
 Charge =  0 Multiplicity = 1

 SCF Done:  E(RB3LYP) =  -1481.66883451     A.U. after   15 cycles
 SCF Done:  E(RB3LYP) =  -1481.67568165     A.U. after   13 cycles
 SCF Done:  E(RB3LYP) =  -1481.67622894     A.U. after   13 cycles
 SCF Done:  E(RB3LYP) =  -1481.67385306     A.U. after   14 cycles
 SCF Done:  E(RB3LYP) =  -1481.67619647     A.U. after   13 cycles
 SCF Done:  E(RB3LYP) =  -1481.67672775     A.U. after   10 cycles
 SCF Done:  E(RB3LYP) =  -1481.67693866     A.U. after   12 cycles
 SCF Done:  E(RB3LYP) =  -1481.67700167     A.U. after   11 cycles
 SCF Done:  E(RB3LYP) =  -1481.67701993     A.U. after   11 cycles
 SCF Done:  E(RB3LYP) =  -1481.67702616     A.U. after    9 cycles
 SCF Done:  E(RB3LYP) =  -1481.67703917     A.U. after   10 cycles
 SCF Done:  E(RB3LYP) =  -1481.67704026     A.U. after   10 cycles
 SCF Done:  E(RB3LYP) =  -1481.67704086     A.U. after   10 cycles
 SCF Done:  E(RB3LYP) =  -1481.67704101     A.U. after    8 cycles
 SCF Done:  E(RB3LYP) =  -1481.67704105     A.U. after    7 cycles
 Optimization completed.
    -- Stationary point found.
 Normal termination of Gaussian 16 at Thu Dec 10 23:35:38 2020.

 --------------------------------------------------------------------
 #N Geom=AllCheck Guess=TCheck SCRF=Check GenChk RB3LYP/6-31G(d) Freq
 --------------------------------------------------------------------

 Structure from the checkpoint file:  "JID_6540.chk"
 ------------------------------
 CID_62113475_JID_6540_neutraal
 ------------------------------
 Charge =  0 Multiplicity = 1

 SCF Done:  E(RB3LYP) =  -1481.67704105     A.U. after    1 cycles

  Exact polarizability: 151.813  20.043 133.133  -3.561   3.980 146.986
 Approx polarizability: 210.569  43.391 237.066 -12.858   6.405 263.803

                      1                      2                      3
                      A                      A                      A
 Frequencies --     16.1871                41.9862                65.6561
 Red. masses --      7.5931                 4.7234                 4.8499
 Frc consts  --      0.0012                 0.0049                 0.0123
 IR Inten    --      4.0716                 1.7649                 1.3280

                      4                      5                      6
                      A                      A                      A
 Frequencies --     78.0648               127.6257               132.4536
 Red. masses --      4.9168                 3.1284                 8.3975
 Frc consts  --      0.0177                 0.0300                 0.0868
 IR Inten    --      0.4764                 3.1474                 2.6899

                      7                      8                      9
                      A                      A                      A
 Frequencies --    170.8620               180.1632               245.6007
 Red. masses --      6.3453                 3.3787                 1.7334
 Frc consts  --      0.1091                 0.0646                 0.0616
 IR Inten    --      1.5375                 7.3045               125.6182

                     10                     11                     12
                      A                      A                      A
 Frequencies --    250.7514               254.6837               283.9960
 Red. masses --      4.3741                 3.4555                 3.7740
 Frc consts  --      0.1620                 0.1321                 0.1793
 IR Inten    --      8.0616                50.4639                 0.8825

                     13                     14                     15
                      A                      A                      A
 Frequencies --    313.3466               335.1257               354.3250
 Red. masses --      1.8018                 1.9343                 3.1989
 Frc consts  --      0.1042                 0.1280                 0.2366
 IR Inten    --    150.3987                41.3589                 0.4311

                     16                     17                     18
                      A                      A                      A
 Frequencies --    361.6375               400.6175               416.2421
 Red. masses --      6.6386                 4.7697                 4.1443
 Frc consts  --      0.5115                 0.4510                 0.4231
 IR Inten    --     14.8413                 4.5483                12.2197

                     19                     20                     21
                      A                      A                      A
 Frequencies --    445.8968               456.1409               470.2990
 Red. masses --      4.2501                 3.1412                 4.4574
 Frc consts  --      0.4979                 0.3851                 0.5809
 IR Inten    --     13.8581                15.3767                 5.7821

                     22                     23                     24
                      A                      A                      A
 Frequencies --    513.9819               554.1791               578.7737
 Red. masses --      4.8987                 7.8422                 6.4595
 Frc consts  --      0.7625                 1.4190                 1.2749
 IR Inten    --      9.7807                20.6805                11.1878

                     25                     26                     27
                      A                      A                      A
 Frequencies --    604.9655               665.0603               690.6249
 Red. masses --      6.7110                 4.1237                 6.8074
 Frc consts  --      1.4471                 1.0746                 1.9130
 IR Inten    --      5.8716                14.4689                10.4972

                     28                     29                     30
                      A                      A                      A
 Frequencies --    714.9119               745.1486               784.0218
 Red. masses --      6.9182                 4.0779                 2.0138
 Frc consts  --      2.0833                 1.3341                 0.7293
 IR Inten    --     43.7759                 1.6051                18.2878

                     31                     32                     33
                      A                      A                      A
 Frequencies --    848.7565               857.2299               874.2889
 Red. masses --      1.3103                 6.1693                 2.2936
 Frc consts  --      0.5562                 2.6710                 1.0329
 IR Inten    --     22.0636                 1.9265                10.8525

                     34                     35                     36
                      A                      A                      A
 Frequencies --    904.4104               915.0044               927.4245
 Red. masses --      2.6822                 1.4131                 1.5145
 Frc consts  --      1.2926                 0.6971                 0.7675
 IR Inten    --     10.6139                 0.8106                 6.4836

                     37                     38                     39
                      A                      A                      A
 Frequencies --    977.8886               991.4533              1006.4124
 Red. masses --      1.3218                 1.8278                 1.6478
 Frc consts  --      0.7447                 1.0586                 0.9833
 IR Inten    --      0.3580                 2.9925                 0.8415

                     40                     41                     42
                      A                      A                      A
 Frequencies --   1057.6321              1067.8409              1083.5572
 Red. masses --      3.9693                 1.8980                 1.6613
 Frc consts  --      2.6160                 1.2751                 1.1492
 IR Inten    --     23.8470                33.5401                 2.8275

                     43                     44                     45
                      A                      A                      A
 Frequencies --   1087.1524              1103.5547              1109.6319
 Red. masses --      3.5098                 3.1820                 2.7972
 Frc consts  --      2.4441                 2.2831                 2.0292
 IR Inten    --     75.7965                94.4471                 0.8245

                     46                     47                     48
                      A                      A                      A
 Frequencies --   1122.9026              1179.5285              1231.7897
 Red. masses --      2.5712                 1.3493                 1.5262
 Frc consts  --      1.9102                 1.1061                 1.3644
 IR Inten    --     83.9112                 9.2260                 0.1878

                     49                     50                     51
                      A                      A                      A
 Frequencies --   1233.0683              1239.0410              1278.3981
 Red. masses --      1.5069                 1.3397                 3.0329
 Frc consts  --      1.3500                 1.2118                 2.9204
 IR Inten    --      2.6267                49.6059                33.0124

                     52                     53                     54
                      A                      A                      A
 Frequencies --   1295.3828              1306.4510              1328.8032
 Red. masses --      1.3244                 1.4757                 3.1423
 Frc consts  --      1.3094                 1.4840                 3.2691
 IR Inten    --      3.7008                30.6613                67.3013

                     55                     56                     57
                      A                      A                      A
 Frequencies --   1329.5424              1363.3106              1370.0714
 Red. masses --      3.6050                 1.4130                 1.6969
 Frc consts  --      3.7546                 1.5473                 1.8767
 IR Inten    --     83.2473                10.0229                33.6187

                     58                     59                     60
                      A                      A                      A
 Frequencies --   1382.8217              1468.6265              1488.9626
 Red. masses --      1.2855                 2.6251                 1.0858
 Frc consts  --      1.4482                 3.3360                 1.4183
 IR Inten    --      1.1242                59.7242                 1.2927

                     61                     62                     63
                      A                      A                      A
 Frequencies --   1490.5715              1520.3389              1527.0809
 Red. masses --      1.0965                 1.3788                 1.6510
 Frc consts  --      1.4353                 1.8778                 2.2684
 IR Inten    --      9.8009                15.2735                18.5329

                     64                     65                     66
                      A                      A                      A
 Frequencies --   1607.9199              1631.6891              1687.4249
 Red. masses --      5.8758                 5.0202                 1.2457
 Frc consts  --      8.9504                 7.8749                 2.0898
 IR Inten    --     11.7238                 9.5984               123.0658

                     67                     68                     69
                      A                      A                      A
 Frequencies --   3074.8666              3078.8572              3109.7151
 Red. masses --      1.0783                 1.0651                 1.0605
 Frc consts  --      6.0068                 5.9486                 6.0424
 IR Inten    --      3.6021                11.8746                 2.4186

                     70                     71                     72
                      A                      A                      A
 Frequencies --   3118.9166              3129.5357              3147.4521
 Red. masses --      1.0605                 1.1031                 1.0894
 Frc consts  --      6.0782                 6.3652                 6.3583
 IR Inten    --      3.2978                 8.5716                32.0951

                     73                     74                     75
                      A                      A                      A
 Frequencies --   3178.6161              3196.9051              3200.6237
 Red. masses --      1.1099                 1.0890                 1.1067
 Frc consts  --      6.6073                 6.5574                 6.6794
 IR Inten    --      0.7119                12.7510                 1.2030

                     76                     77                     78
                      A                      A                      A
 Frequencies --   3217.8230              3602.6147              3710.0458
 Red. masses --      1.0939                 1.0470                 1.1013
 Frc consts  --      6.6736                 8.0065                 8.9309
 IR Inten    --      6.2000                36.6988                22.7830

 - Thermochemistry -
 -------------------
 Temperature   298.150 Kelvin.  Pressure   1.00000 Atm.
 Atom     1 has atomic number  6 and mass  12.00000

 Molecular mass:   260.02894 amu.
 Principal axes and moments of inertia in atomic units:
                           1         2         3
     Eigenvalues --  2590.490866190.110416618.26479
           X            0.99992   0.01242   0.00280
           Y           -0.01248   0.99970   0.02124
           Z           -0.00254  -0.02127   0.99977
 This molecule is an asymmetric top.
 Rotational symmetry number  1.
 Warning -- assumption of classical behavior for rotation
           may cause significant error
 Rotational temperatures (Kelvin)      0.03344     0.01399     0.01309
 Rotational constants (GHZ):           0.69668     0.29155     0.27269
 Zero-point vibrational energy     561738.0 (Joules/Mol)
                                  134.25861 (Kcal/Mol)
 Warning -- explicit consideration of  25 degrees of freedom as
           vibrations may cause significant error
 Vibrational temperatures:     23.29    60.41    94.46   112.32   183.62
          (Kelvin)            190.57   245.83   259.21   353.36   360.78
                              366.43   408.61   450.84   482.17   509.79
                              520.32   576.40   598.88   641.55   656.29
                              676.66   739.51   797.34   832.73   870.41
                              956.87   993.66  1028.60  1072.10  1128.03
                             1221.17  1233.36  1257.91  1301.24  1316.49
                             1334.36  1406.96  1426.48  1448.00  1521.70
                             1536.38  1559.00  1564.17  1587.77  1596.51
                             1615.61  1697.08  1772.27  1774.11  1782.70
                             1839.33  1863.77  1879.69  1911.85  1912.91
                             1961.50  1971.23  1989.57  2113.03  2142.29
                             2144.60  2187.43  2197.13  2313.44  2347.64
                             2427.83  4424.05  4429.79  4474.19  4487.43
                             4502.70  4528.48  4573.32  4599.63  4604.98
                             4629.73  5183.36  5337.93

 Zero-point correction=                           0.213955 (Hartree/Particle)
 Thermal correction to Energy=                    0.229517
 Thermal correction to Enthalpy=                  0.230461
 Thermal correction to Gibbs Free Energy=         0.169655
 Sum of electronic and zero-point Energies=          -1481.463086
 Sum of electronic and thermal Energies=             -1481.447524
 Sum of electronic and thermal Enthalpies=           -1481.446580
 Sum of electronic and thermal Free Energies=        -1481.507386

                     E (Thermal)             CV                S
                      KCal/Mol        Cal/Mol-Kelvin    Cal/Mol-Kelvin
 Total                  144.024             58.813            127.977
 Electronic               0.000              0.000              0.000
 Translational            0.889              2.981             42.567
 Rotational               0.889              2.981             33.028
 Vibrational            142.247             52.852             52.382
 Vibration     1          0.593              1.986              7.054
 Vibration     2          0.595              1.980              5.163
 Vibration     3          0.597              1.971              4.280
 Vibration     4          0.599              1.964              3.939
 Vibration     5          0.611              1.926              2.982
 Vibration     6          0.613              1.921              2.910
 Vibration     7          0.626              1.878              2.426
 Vibration     8          0.629              1.867              2.327
 Vibration     9          0.660              1.770              1.762
 Vibration    10          0.663              1.762              1.725
 Vibration    11          0.665              1.755              1.698
 Vibration    12          0.682              1.703              1.509
 Vibration    13          0.701              1.648              1.345
 Vibration    14          0.716              1.605              1.235
 Vibration    15          0.730              1.566              1.147
 Vibration    16          0.736              1.551              1.115
 Vibration    17          0.766              1.469              0.960
 Vibration    18          0.779              1.435              0.905
 Vibration    19          0.805              1.370              0.808
 Vibration    20          0.814              1.347              0.777
 Vibration    21          0.827              1.316              0.737
 Vibration    22          0.869              1.219              0.624
 Vibration    23          0.910              1.131              0.536
 Vibration    24          0.935              1.077              0.488
 Vibration    25          0.964              1.021              0.441

 Optimization completed.
    -- Stationary point found.
 Normal termination of Gaussian 16 at Thu Dec 10 23:45:19 2020.

 ----------------------------------------------------------------------
 # B3LYP/6-311++G(d,p) empiricaldispersion=gd3bj scf=xqc pop=npa geom=c
 heck
 ----------------------------------------------------------------------

 --------------------------------------
 CID_62113475_JID_6540_Energie_neutraal
 --------------------------------------
 Structure from the checkpoint file:  "JID_6540.chk"
 Charge =  0 Multiplicity = 1

 SCF Done:  E(RB3LYP) =  -1481.93123838     A.U. after   17 cycles
 Normal termination of Gaussian 16 at Thu Dec 10 23:49:37 2020.

 ----------------------------------------------------------------------
 # B3LYP/6-311++G(d,p) empiricaldispersion=gd3bj scf=xqc pop=npa geom=c
 heck
 ----------------------------------------------------------------------

 ------------------------------------
 CID_62113475_JID_6540_Energie_kation
 ------------------------------------
 Structure from the checkpoint file:  "JID_6540.chk"
 Charge =  1 Multiplicity = 2

 SCF Done:  E(UB3LYP) =  -1481.61733942     A.U. after   30 cycles
 Normal termination of Gaussian 16 at Thu Dec 10 23:59:55 2020.
 Gaussian 16:  ES64L-G16RevA.03 25-Dec-2016

 ----------------------------------------------------------------------
 # B3LYP/6-311++G(d,p) empiricaldispersion=gd3bj scf=xqc pop=npa geom=c
 heck
 ----------------------------------------------------------------------

 -----------------------------------
 CID_62113475_JID_6540_Energie_anion
 -----------------------------------
 Structure from the checkpoint file:  "JID_6540.chk"
 Charge = -1 Multiplicity = 2

                         Standard orientation:
 ---------------------------------------------------------------------
 Center     Atomic      Atomic             Coordinates (Angstroms)
 Number     Number       Type             X           Y           Z
 ---------------------------------------------------------------------
      1          6           0        0.920629    0.216161    1.536410
      2          6           0        2.339118   -0.364302    1.596420
      3         16           0        2.827752   -0.648819   -0.158892
      4          8           0        2.730794   -2.080568   -0.475397
      5          8           0        4.055884    0.110836   -0.433929
      6          6           0        1.390467    0.236293   -0.883191
      7          6           0        0.867947    1.082659    0.267059
      8         16           0       -0.789764    1.852785   -0.110391
      9          8           0       -0.655133    2.392878   -1.516300
     10          6           0       -1.772642    0.331330   -0.219207
     11          6           0       -2.441101   -0.199825    0.896876
     12          6           0       -3.188769   -1.376502    0.666457
     13          7           0       -3.314851   -1.967409   -0.514993
     14          6           0       -2.706993   -1.411073   -1.574148
     15          6           0       -1.934739   -0.258794   -1.471110
     16          7           0       -2.438464    0.390133    2.145734
     17          1           0        0.191727   -0.595949    1.455907
     18          1           0        0.697689    0.791833    2.440042
     19          1           0        2.408839   -1.318502    2.121119
     20          1           0        3.063606    0.344056    2.004102
     21          1           0        1.726954    0.813358   -1.743386
     22          1           0        0.673813   -0.529368   -1.188219
     23          1           0        1.507871    1.964196    0.390930
     24          1           0       -3.714275   -1.837960    1.503322
     25          1           0       -2.847580   -1.906240   -2.531067
     26          1           0       -1.471821    0.206636   -2.335738
     27          1           0       -2.706386   -0.181821    2.933271
     28          1           0       -1.760909    1.106383    2.354678
 ---------------------------------------------------------------------

 SCF Done:  E(UB3LYP) =  -1481.94945465     A.U. after   33 cycles
 SCF Done:  E(UB3LYP) =  -1481.94945465     a.u. after    1 cycles

 The electronic state is 2-A.
 Alpha  occ. eigenvalues --  -88.94705 -88.83687 -19.02186 -19.02158 -18.97186
 Alpha  occ. eigenvalues --  -14.21889 -14.17195 -10.12237 -10.11326 -10.11153
 Alpha  occ. eigenvalues --  -10.10834 -10.10178 -10.07427 -10.07324 -10.07230
 Alpha  occ. eigenvalues --  -10.05369  -8.01260  -7.91262  -5.97520  -5.97399
 Alpha  occ. eigenvalues --   -5.97349  -5.87538  -5.87407  -5.86890  -1.01272
 Alpha  occ. eigenvalues --   -0.91121  -0.90444  -0.83102  -0.80017  -0.76832
 Alpha  occ. eigenvalues --   -0.69045  -0.66676  -0.63678  -0.62636  -0.57742
 Alpha  occ. eigenvalues --   -0.52250  -0.51277  -0.49887  -0.47814  -0.42677
 Alpha  occ. eigenvalues --   -0.42111  -0.41507  -0.40301  -0.38053  -0.37006
 Alpha  occ. eigenvalues --   -0.36565  -0.35433  -0.34459  -0.34446  -0.31763
 Alpha  occ. eigenvalues --   -0.31370  -0.31126  -0.30124  -0.29251  -0.28839
 Alpha  occ. eigenvalues --   -0.27082  -0.26364  -0.25089  -0.23676  -0.22612
 Alpha  occ. eigenvalues --   -0.22388  -0.21301  -0.19408  -0.17313  -0.16360
 Alpha  occ. eigenvalues --   -0.13571  -0.12621  -0.10508   0.03060
 Alpha virt. eigenvalues --    0.05842   0.07616   0.08586   0.09243   0.09958
 Alpha virt. eigenvalues --    0.10521   0.10670   0.11352   0.11613   0.11778
 Alpha virt. eigenvalues --    0.12438   0.13188   0.13391   0.13655   0.14245

  Beta  occ. eigenvalues --  -88.94696 -88.83672 -19.02175 -19.02144 -18.97132
  Beta  occ. eigenvalues --  -14.21835 -14.16789 -10.12230 -10.11202 -10.11153
  Beta  occ. eigenvalues --  -10.10780 -10.10124 -10.07385 -10.07362 -10.07029
  Beta  occ. eigenvalues --  -10.05218  -8.01250  -7.91246  -5.97514  -5.97393
  Beta  occ. eigenvalues --   -5.97334  -5.87511  -5.87355  -5.86894  -1.01237
  Beta  occ. eigenvalues --   -0.91089  -0.90265  -0.82826  -0.79627  -0.76739
  Beta  occ. eigenvalues --   -0.68630  -0.66540  -0.63495  -0.62380  -0.57444
  Beta  occ. eigenvalues --   -0.51935  -0.51151  -0.49831  -0.47624  -0.42565
  Beta  occ. eigenvalues --   -0.41993  -0.41342  -0.40153  -0.37957  -0.36920
  Beta  occ. eigenvalues --   -0.36513  -0.35365  -0.34253  -0.34244  -0.31649
  Beta  occ. eigenvalues --   -0.31229  -0.30925  -0.29990  -0.29102  -0.28152
  Beta  occ. eigenvalues --   -0.26950  -0.26234  -0.24959  -0.23624  -0.22498
  Beta  occ. eigenvalues --   -0.21784  -0.21262  -0.19358  -0.16538  -0.15552
  Beta  occ. eigenvalues --   -0.13107  -0.12280  -0.09927
  Beta virt. eigenvalues --    0.06409   0.07804   0.07916   0.09001   0.09284
  Beta virt. eigenvalues --    0.10127   0.10736   0.10790   0.11326   0.11834
  Beta virt. eigenvalues --    0.12066   0.12724   0.13400   0.13614   0.13742

 Mulliken charges and spin densities:
               1          2
     1  C   -0.120694  -0.104655
     2  C   -0.701688  -0.434499
     3  S    0.700750   0.039690
     4  O   -0.175812  -0.000229
     5  O   -0.222831   0.001885
     6  C   -1.004355  -0.086955
     7  C    0.201676  -0.130585
     8  S    0.604265   0.113563
     9  O   -0.446287  -0.004840
    10  C    0.055173  -0.299162
    11  C   -1.012230   0.248564
    12  C   -0.514632   0.056264
    13  N   -0.124673   0.188150
    14  C   -0.706261  -0.053911
    15  C    1.289596   0.231140
    16  N   -0.252126  -0.028621
    17  H    0.295278  -0.052183
    18  H   -0.582936   0.780220
    19  H    0.167908   0.048947
    20  H    0.203845   0.025473
    21  H    0.238665  -0.000929
    22  H    0.275375  -0.005147
    23  H    0.195765   0.126795
    24  H    0.104389   0.006442
    25  H    0.136286   0.001305
    26  H    0.234573  -0.013129
    27  H    0.092376   0.155689
    28  H    0.068604   0.190715
 Sum of Mulliken charges =  -1.00000   1.00000

 Dipole moment (field-independent basis, Debye):
    X=              1.9516    Y=             -0.2249    Z=              2.2700  Tot=              3.0020
 Quadrupole moment (field-independent basis, Debye-Ang):
   XX=           -169.1869   YY=           -146.9890   ZZ=           -129.5105
   XY=             -0.9750   XZ=              1.0175   YZ=             -3.3101

 Summary of Natural Population Analysis:

                                       Natural Population
                Natural  -----------------------------------------------
    Atom  No    Charge         Core      Valence    Rydberg      Total
 -----------------------------------------------------------------------
      C    1   -0.21142      0.99960     2.20039    0.01144     3.21142
      C    2   -0.28261      0.99959     2.27201    0.01101     3.28261
      S    3    1.01199      4.99932     1.89444    0.09425     6.98801
      O    4   -0.46448      0.99991     3.45916    0.00541     4.46448
      O    5   -0.46833      0.99991     3.46297    0.00545     4.46833
      C    6   -0.29614      0.99954     2.28089    0.01571     3.29614
      C    7   -0.18956      0.99952     2.17245    0.01759     3.18956
      S    8    0.62068      4.99930     2.32439    0.05563     7.37932
      O    9   -0.48633      0.99993     3.48037    0.00603     4.48633
      C   10   -0.10832      0.99933     2.09389    0.01510     3.10832
      C   11    0.06964      0.99942     1.91751    0.01343     2.93036
      C   12    0.00749      0.99956     1.97715    0.01580     2.99251
      N   13   -0.17031      0.99971     2.65982    0.01078     3.67031
      C   14   -0.01358      0.99959     1.99982    0.01417     3.01358
      C   15   -0.09248      0.99950     2.08403    0.00895     3.09248
      N   16   -0.39706      0.99971     2.88749    0.00987     3.89706
      H   17    0.11191      0.00000     0.38645    0.00164     0.38809
      H   18    0.11496      0.00000     0.38092    0.00412     0.38504
      H   19    0.11551      0.00000     0.38352    0.00097     0.38449
      H   20    0.11357      0.00000     0.38518    0.00125     0.38643
      H   21    0.12665      0.00000     0.37257    0.00079     0.37335
      H   22    0.12659      0.00000     0.37246    0.00095     0.37341
      H   23    0.10863      0.00000     0.38980    0.00157     0.39137
      H   24    0.07823      0.00000     0.41973    0.00204     0.42177
      H   25    0.08430      0.00000     0.41448    0.00122     0.41570
      H   26    0.11183      0.00000     0.38709    0.00109     0.38817
      H   27    0.18674      0.00000     0.31178    0.00148     0.31326
      H   28    0.19194      0.00000     0.30475    0.00332     0.30806
 =======================================================================
   * Total *   -0.00000     23.99344    43.67550    0.33106    68.00000

 Normal termination of Gaussian 16 at Fri Dec 11 00:11:05 2020.
