 Gaussian 16, Revision A.03,

 -----------------------------------------------------------
 # opt freq B3LYP/6-31G(d) empiricaldispersion=gd3bj scf=xqc
 -----------------------------------------------------------

 -------------------------------
 CID_106423898_JID_6831_neutraal
 -------------------------------
 Symbolic Z-matrix:
 Charge =  0 Multiplicity = 1

 SCF Done:  E(RB3LYP) =  -1141.22789314     A.U. after   15 cycles
 SCF Done:  E(RB3LYP) =  -1141.23405820     A.U. after   12 cycles
 SCF Done:  E(RB3LYP) =  -1141.23620449     A.U. after   12 cycles
 SCF Done:  E(RB3LYP) =  -1141.23851021     A.U. after   13 cycles
 SCF Done:  E(RB3LYP) =  -1141.24024099     A.U. after   15 cycles
 SCF Done:  E(RB3LYP) =  -1141.24163367     A.U. after   13 cycles
 SCF Done:  E(RB3LYP) =  -1141.24241716     A.U. after   13 cycles
 SCF Done:  E(RB3LYP) =  -1141.24349673     A.U. after   13 cycles
 SCF Done:  E(RB3LYP) =  -1141.24384487     A.U. after   12 cycles
 SCF Done:  E(RB3LYP) =  -1141.24395617     A.U. after   12 cycles
 SCF Done:  E(RB3LYP) =  -1141.24403699     A.U. after   11 cycles
 SCF Done:  E(RB3LYP) =  -1141.24405392     A.U. after   11 cycles
 SCF Done:  E(RB3LYP) =  -1141.24405911     A.U. after   10 cycles
 SCF Done:  E(RB3LYP) =  -1141.24406205     A.U. after    9 cycles
 SCF Done:  E(RB3LYP) =  -1141.24406489     A.U. after    9 cycles
 SCF Done:  E(RB3LYP) =  -1141.24406520     A.U. after    8 cycles
 Optimization completed.
    -- Stationary point found.
 Normal termination of Gaussian 16 at Thu Dec 10 23:51:27 2020.

 --------------------------------------------------------------------
 #N Geom=AllCheck Guess=TCheck SCRF=Check GenChk RB3LYP/6-31G(d) Freq
 --------------------------------------------------------------------

 Structure from the checkpoint file:  "JID_6831.chk"
 -------------------------------
 CID_106423898_JID_6831_neutraal
 -------------------------------
 Charge =  0 Multiplicity = 1

 SCF Done:  E(RB3LYP) =  -1141.24406520     A.U. after    1 cycles

  Exact polarizability: 168.654   0.395 125.379   5.001  -7.008 109.604
 Approx polarizability: 217.699  -0.719 194.320   7.708 -23.026 185.835

                      1                      2                      3
                      A                      A                      A
 Frequencies --     27.9200                35.9019                42.0806
 Red. masses --      4.8480                 4.7715                 4.2244
 Frc consts  --      0.0022                 0.0036                 0.0044
 IR Inten    --      0.4158                 0.2504                 0.5688

                      4                      5                      6
                      A                      A                      A
 Frequencies --     53.2986                59.3198                94.9972
 Red. masses --      5.1368                 4.5248                 2.1271
 Frc consts  --      0.0086                 0.0094                 0.0113
 IR Inten    --      5.0342                 1.9923                 1.6745

                      7                      8                      9
                      A                      A                      A
 Frequencies --    110.2169               142.6354               179.1496
 Red. masses --      3.7150                 3.9904                 3.9130
 Frc consts  --      0.0266                 0.0478                 0.0740
 IR Inten    --      3.1948                 1.0318                 1.1143

                     10                     11                     12
                      A                      A                      A
 Frequencies --    201.9468               214.8000               235.0529
 Red. masses --      4.9090                 5.5764                 2.8423
 Frc consts  --      0.1180                 0.1516                 0.0925
 IR Inten    --      0.3897                 4.7812                 0.9486

                     13                     14                     15
                      A                      A                      A
 Frequencies --    260.1628               284.4422               294.9844
 Red. masses --      1.3377                 3.0089                 2.5200
 Frc consts  --      0.0533                 0.1434                 0.1292
 IR Inten    --      0.1807                 1.0872                 4.7693

                     16                     17                     18
                      A                      A                      A
 Frequencies --    312.3647               342.0405               378.2212
 Red. masses --      2.0855                 2.9068                 3.8665
 Frc consts  --      0.1199                 0.2004                 0.3259
 IR Inten    --      3.0501                 7.9891                10.1107

                     19                     20                     21
                      A                      A                      A
 Frequencies --    419.8218               458.9431               482.1561
 Red. masses --      2.7691                 6.8262                 3.4421
 Frc consts  --      0.2876                 0.8471                 0.4715
 IR Inten    --     12.8450                26.8531                15.4355

                     22                     23                     24
                      A                      A                      A
 Frequencies --    519.3582               588.0173               610.9932
 Red. masses --      3.7521                 3.6650                 3.0571
 Frc consts  --      0.5963                 0.7466                 0.6724
 IR Inten    --     10.4543                30.6648                50.9254

                     25                     26                     27
                      A                      A                      A
 Frequencies --    638.0238               643.6749               705.8367
 Red. masses --      6.4493                 3.8814                 2.2771
 Frc consts  --      1.5468                 0.9475                 0.6684
 IR Inten    --     18.0074                 2.5746                15.2285

                     28                     29                     30
                      A                      A                      A
 Frequencies --    709.9642               769.9696               784.3140
 Red. masses --      3.5550                 1.9691                 1.6528
 Frc consts  --      1.0558                 0.6878                 0.5990
 IR Inten    --     11.9063                18.0882                91.8039

                     31                     32                     33
                      A                      A                      A
 Frequencies --    826.6029               834.9777               862.2764
 Red. masses --      1.1151                 1.3818                 1.6262
 Frc consts  --      0.4489                 0.5676                 0.7124
 IR Inten    --      1.2091                64.5831               138.3672

                     34                     35                     36
                      A                      A                      A
 Frequencies --    869.7477               909.7961               911.6051
 Red. masses --      2.4454                 7.4463                 1.3398
 Frc consts  --      1.0899                 3.6314                 0.6560
 IR Inten    --      8.3150                27.1315                 2.5519

                     37                     38                     39
                      A                      A                      A
 Frequencies --    920.1723               944.7686               960.8470
 Red. masses --      1.4647                 7.0617                 1.8796
 Frc consts  --      0.7307                 3.7137                 1.0224
 IR Inten    --      4.1448                 5.2785                22.3452

                     40                     41                     42
                      A                      A                      A
 Frequencies --   1014.1631              1022.2620              1028.6814
 Red. masses --      2.3975                 3.5534                 1.5123
 Frc consts  --      1.4528                 2.1878                 0.9429
 IR Inten    --     12.9785                 7.2852                 8.1787

                     43                     44                     45
                      A                      A                      A
 Frequencies --   1055.6215              1073.0424              1085.9032
 Red. masses --      2.5073                 1.5000                 2.3811
 Frc consts  --      1.6462                 1.0176                 1.6543
 IR Inten    --      4.2496                16.1674                16.4117

                     46                     47                     48
                      A                      A                      A
 Frequencies --   1104.0850              1114.0540              1147.1633
 Red. masses --      4.3593                 6.4396                 1.8854
 Frc consts  --      3.1309                 4.7090                 1.4618
 IR Inten    --     50.4442               142.6975                 7.9324

                     49                     50                     51
                      A                      A                      A
 Frequencies --   1161.9422              1173.9733              1214.3884
 Red. masses --      1.8376                 1.4080                 1.8185
 Frc consts  --      1.4617                 1.1433                 1.5801
 IR Inten    --     13.2140                18.0205                26.3958

                     52                     53                     54
                      A                      A                      A
 Frequencies --   1222.9224              1242.5061              1265.0064
 Red. masses --      2.0745                 1.7080                 1.5644
 Frc consts  --      1.8279                 1.5536                 1.4750
 IR Inten    --      9.4925                20.5808                 5.6136

                     55                     56                     57
                      A                      A                      A
 Frequencies --   1272.7219              1307.2995              1321.2360
 Red. masses --      1.4142                 1.2350                 2.6980
 Frc consts  --      1.3497                 1.2436                 2.7749
 IR Inten    --     11.3489                 5.5184               125.7727

                     58                     59                     60
                      A                      A                      A
 Frequencies --   1342.5236              1350.4042              1361.4824
 Red. masses --      1.2503                 1.4240                 1.9492
 Frc consts  --      1.3278                 1.5300                 2.1288
 IR Inten    --     10.3718                 6.8940                49.8382

                     61                     62                     63
                      A                      A                      A
 Frequencies --   1397.3326              1406.4045              1414.0548
 Red. masses --      1.4154                 1.2783                 1.8911
 Frc consts  --      1.6283                 1.4897                 2.2279
 IR Inten    --      8.2824                12.4264                 7.4022

                     64                     65                     66
                      A                      A                      A
 Frequencies --   1421.5602              1442.8913              1462.3960
 Red. masses --      1.3052                 1.3292                 1.3096
 Frc consts  --      1.5540                 1.6305                 1.6502
 IR Inten    --      2.4950                11.3921                49.4925

                     67                     68                     69
                      A                      A                      A
 Frequencies --   1483.0811              1495.4681              1504.9578
 Red. masses --      1.0936                 1.0918                 1.0849
 Frc consts  --      1.4172                 1.4386                 1.4478
 IR Inten    --      5.1254                 7.5984                 7.6055

                     70                     71                     72
                      A                      A                      A
 Frequencies --   1511.6872              1519.2291              1528.0883
 Red. masses --      1.1029                 1.0874                 1.0620
 Frc consts  --      1.4850                 1.4787                 1.4611
 IR Inten    --     18.2104                11.2627                23.8350

                     73                     74                     75
                      A                      A                      A
 Frequencies --   1529.8655              1533.6856              1555.3715
 Red. masses --      5.5409                 1.1406                 1.0927
 Frc consts  --      7.6408                 1.5808                 1.5575
 IR Inten    --     24.2012                23.2689                 2.7064

                     76                     77                     78
                      A                      A                      A
 Frequencies --   1648.2568              2921.4404              3043.8517
 Red. masses --      6.2882                 1.0742                 1.0587
 Frc consts  --     10.0653                 5.4018                 5.7790
 IR Inten    --     17.7259                80.3182                13.8655

                     79                     80                     81
                      A                      A                      A
 Frequencies --   3049.4403              3051.0630              3059.7128
 Red. masses --      1.0619                 1.0694                 1.0645
 Frc consts  --      5.8181                 5.8653                 5.8715
 IR Inten    --      8.5903                62.1441                23.2493

                     82                     83                     84
                      A                      A                      A
 Frequencies --   3081.5461              3090.7270              3100.4717
 Red. masses --      1.0625                 1.0605                 1.0958
 Frc consts  --      5.9446                 5.9686                 6.2066
 IR Inten    --      9.7555                 2.0667                21.9495

                     85                     86                     87
                      A                      A                      A
 Frequencies --   3110.8606              3112.9698              3126.4786
 Red. masses --      1.0981                 1.1003                 1.1012
 Frc consts  --      6.2613                 6.2820                 6.3422
 IR Inten    --     49.7863                35.2906                 0.4064

                     88                     89                     90
                      A                      A                      A
 Frequencies --   3136.1555              3145.8690              3260.7369
 Red. masses --      1.1032                 1.1061                 1.0950
 Frc consts  --      6.3929                 6.4494                 6.8598
 IR Inten    --     26.0142                 4.4671                 3.5373

                     91                     92                     93
                      A                      A                      A
 Frequencies --   3295.5133              3497.1927              3511.2388
 Red. masses --      1.1009                 1.0736                 1.0744
 Frc consts  --      7.0443                 7.7365                 7.8045
 IR Inten    --      5.1716                18.2277                24.5623

 - Thermochemistry -
 -------------------
 Temperature   298.150 Kelvin.  Pressure   1.00000 Atm.
 Atom     1 has atomic number  6 and mass  12.00000

 Molecular mass:   247.09906 amu.
 Principal axes and moments of inertia in atomic units:
                           1         2         3
     Eigenvalues --  2312.257737067.888308269.92533
           X            0.99978  -0.02097  -0.00036
           Y            0.02097   0.99946   0.02523
           Z           -0.00017  -0.02523   0.99968
 This molecule is an asymmetric top.
 Rotational symmetry number  1.
 Warning -- assumption of classical behavior for rotation
           may cause significant error
 Rotational temperatures (Kelvin)      0.03746     0.01225     0.01047
 Rotational constants (GHZ):           0.78051     0.25534     0.21823
 Zero-point vibrational energy     723575.5 (Joules/Mol)
                                  172.93870 (Kcal/Mol)
 Warning -- explicit consideration of  24 degrees of freedom as
           vibrations may cause significant error
 Vibrational temperatures:     40.17    51.65    60.54    76.68    85.35
          (Kelvin)            136.68   158.58   205.22   257.76   290.56
                              309.05   338.19   374.32   409.25   424.42
                              449.42   492.12   544.18   604.03   660.32
                              693.72   747.24   846.03   879.08   917.97
                              926.10  1015.54  1021.48  1107.81  1128.45
                             1189.30  1201.35  1240.62  1251.37  1308.99
                             1311.60  1323.92  1359.31  1382.44  1459.15
                             1470.81  1480.04  1518.80  1543.87  1562.37
                             1588.53  1602.88  1650.51  1671.78  1689.09
                             1747.23  1759.51  1787.69  1820.06  1831.16
                             1880.91  1900.96  1931.59  1942.93  1958.87
                             2010.45  2023.50  2034.51  2045.31  2076.00
                             2104.06  2133.82  2151.65  2165.30  2174.98
                             2185.83  2198.58  2201.14  2206.63  2237.83
                             2371.47  4203.30  4379.42  4387.46  4389.80
                             4402.24  4433.66  4446.87  4460.89  4475.83
                             4478.87  4498.31  4512.23  4526.20  4691.47
                             4741.51  5031.68  5051.89

 Zero-point correction=                           0.275595 (Hartree/Particle)
 Thermal correction to Energy=                    0.292411
 Thermal correction to Enthalpy=                  0.293355
 Thermal correction to Gibbs Free Energy=         0.228840
 Sum of electronic and zero-point Energies=          -1140.968470
 Sum of electronic and thermal Energies=             -1140.951654
 Sum of electronic and thermal Enthalpies=           -1140.950710
 Sum of electronic and thermal Free Energies=        -1141.015225

                     E (Thermal)             CV                S
                      KCal/Mol        Cal/Mol-Kelvin    Cal/Mol-Kelvin
 Total                  183.491             61.736            135.785
 Electronic               0.000              0.000              0.000
 Translational            0.889              2.981             42.414
 Rotational               0.889              2.981             33.269
 Vibrational            181.713             55.774             60.101
 Vibration     1          0.593              1.984              5.972
 Vibration     2          0.594              1.982              5.473
 Vibration     3          0.595              1.980              5.159
 Vibration     4          0.596              1.976              4.691
 Vibration     5          0.597              1.974              4.480
 Vibration     6          0.603              1.953              3.554
 Vibration     7          0.606              1.941              3.265
 Vibration     8          0.616              1.911              2.768
 Vibration     9          0.629              1.868              2.337
 Vibration    10          0.639              1.837              2.115
 Vibration    11          0.645              1.818              2.002
 Vibration    12          0.655              1.787              1.840
 Vibration    13          0.668              1.746              1.661
 Vibration    14          0.683              1.703              1.507
 Vibration    15          0.689              1.683              1.445
 Vibration    16          0.701              1.650              1.350
 Vibration    17          0.721              1.591              1.203
 Vibration    18          0.748              1.517              1.046
 Vibration    19          0.782              1.427              0.893
 Vibration    20          0.817              1.341              0.769
 Vibration    21          0.838              1.290              0.704
 Vibration    22          0.874              1.207              0.611
 Vibration    23          0.945              1.057              0.471
 Vibration    24          0.970              1.009              0.431

                           ! Non-Optimized Parameters !
 Normal termination of Gaussian 16 at Fri Dec 11 00:01:22 2020.

 ----------------------------------------------------------------------
 # B3LYP/6-311++G(d,p) empiricaldispersion=gd3bj scf=xqc pop=npa geom=c
 heck
 ----------------------------------------------------------------------

 ---------------------------------------
 CID_106423898_JID_6831_Energie_neutraal
 ---------------------------------------
 Structure from the checkpoint file:  "JID_6831.chk"
 Charge =  0 Multiplicity = 1

 SCF Done:  E(RB3LYP) =  -1141.48835662     A.U. after   15 cycles
 Normal termination of Gaussian 16 at Fri Dec 11 00:05:54 2020.

 ----------------------------------------------------------------------
 # B3LYP/6-311++G(d,p) empiricaldispersion=gd3bj scf=xqc pop=npa geom=c
 heck
 ----------------------------------------------------------------------

 -------------------------------------
 CID_106423898_JID_6831_Energie_kation
 -------------------------------------
 Structure from the checkpoint file:  "JID_6831.chk"
 Charge =  1 Multiplicity = 2

 SCF Done:  E(UB3LYP) =  -1141.17952957     A.U. after   22 cycles
 Normal termination of Gaussian 16 at Fri Dec 11 00:15:15 2020.
 Gaussian 16:  ES64L-G16RevA.03 25-Dec-2016

 ----------------------------------------------------------------------
 # B3LYP/6-311++G(d,p) empiricaldispersion=gd3bj scf=xqc pop=npa geom=c
 heck
 ----------------------------------------------------------------------

 ------------------------------------
 CID_106423898_JID_6831_Energie_anion
 ------------------------------------
 Structure from the checkpoint file:  "JID_6831.chk"
 Charge = -1 Multiplicity = 2

                         Standard orientation:
 ---------------------------------------------------------------------
 Center     Atomic      Atomic             Coordinates (Angstroms)
 Number     Number       Type             X           Y           Z
 ---------------------------------------------------------------------
      1          6           0        4.126669   -2.375104   -1.185616
      2          6           0        3.992364   -1.182128   -0.243541
      3          7           0        2.691960   -1.196520    0.415087
      4          6           0        2.471431   -0.146217    1.396839
      5          6           0        2.595710    1.316111    0.915252
      6          6           0        1.819421    1.665110   -0.353827
      7         16           0        0.021349    1.467349   -0.221913
      8          8           0       -0.397032    1.751793    1.153838
      9          8           0       -0.577043    2.165393   -1.368848
     10          7           0       -0.184456   -0.214379   -0.487191
     11          6           0       -1.060337   -0.936106    0.442599
     12          6           0       -2.516983   -0.774948    0.133283
     13          6           0       -3.231658    0.147296   -0.572310
     14          6           0       -4.572115   -0.314689   -0.444206
     15          7           0       -4.664869   -1.413949    0.265924
     16          8           0       -3.344161   -1.714503    0.636294
     17          1           0        3.979079   -3.311217   -0.638463
     18          1           0        5.113885   -2.393023   -1.659540
     19          1           0        3.375257   -2.329179   -1.984395
     20          1           0        4.761765   -1.238044    0.538380
     21          1           0        4.197421   -0.251044   -0.807772
     22          1           0        1.938938   -1.174325   -0.270082
     23          1           0        1.476062   -0.294954    1.827354
     24          1           0        3.184874   -0.287958    2.218894
     25          1           0        2.274316    1.982358    1.722679
     26          1           0        3.645868    1.554219    0.706392
     27          1           0        1.941809    2.719556   -0.618979
     28          1           0        2.118692    1.061734   -1.215441
     29          1           0       -0.476472   -0.334252   -1.456560
     30          1           0       -0.787760   -1.996155    0.412070
     31          1           0       -0.844646   -0.574183    1.451981
     32          1           0       -2.864047    1.024332   -1.083239
     33          1           0       -5.476183    0.121083   -0.850508
 ---------------------------------------------------------------------

 SCF Done:  E(UB3LYP) =  -1141.48331437     A.U. after   31 cycles

 The electronic state is 2-A.
 Alpha  occ. eigenvalues --  -88.97308 -19.11465 -19.03392 -19.03055 -14.26579
 Alpha  occ. eigenvalues --  -14.26021 -14.19609 -10.15167 -10.14337 -10.11895
 Alpha  occ. eigenvalues --  -10.11882 -10.10135 -10.09326 -10.08752 -10.08727
 Alpha  occ. eigenvalues --  -10.06139  -8.03569  -5.99871  -5.99813  -5.99596
 Alpha  occ. eigenvalues --   -1.05158  -1.03221  -0.92451  -0.84679  -0.81084
 Alpha  occ. eigenvalues --   -0.78148  -0.72103  -0.70740  -0.65673  -0.63453
 Alpha  occ. eigenvalues --   -0.60215  -0.54845  -0.52900  -0.51653  -0.49581
 Alpha  occ. eigenvalues --   -0.49122  -0.45078  -0.44457  -0.41421  -0.40112
 Alpha  occ. eigenvalues --   -0.39443  -0.38558  -0.37337  -0.37079  -0.36257
 Alpha  occ. eigenvalues --   -0.35626  -0.34873  -0.33183  -0.32407  -0.32106
 Alpha  occ. eigenvalues --   -0.30217  -0.29290  -0.28859  -0.27710  -0.27253
 Alpha  occ. eigenvalues --   -0.26083  -0.25431  -0.24979  -0.23942  -0.22984
 Alpha  occ. eigenvalues --   -0.22371  -0.21617  -0.21503  -0.19698  -0.17155
 Alpha  occ. eigenvalues --   -0.12871   0.03941
 Alpha virt. eigenvalues --    0.05763   0.06673   0.07297   0.07609   0.08004
 Alpha virt. eigenvalues --    0.09403   0.09961   0.10126   0.10318   0.10687
 Alpha virt. eigenvalues --    0.11829   0.12128   0.12353   0.12898   0.13098

  Beta  occ. eigenvalues --  -88.97303 -19.11375 -19.03369 -19.03050 -14.26452
  Beta  occ. eigenvalues --  -14.25967 -14.19600 -10.15091 -10.14336 -10.11858
  Beta  occ. eigenvalues --  -10.11845 -10.10126 -10.09294 -10.08732 -10.08730
  Beta  occ. eigenvalues --  -10.06108  -8.03562  -5.99866  -5.99807  -5.99592
  Beta  occ. eigenvalues --   -1.04998  -1.03182  -0.92414  -0.84596  -0.81058
  Beta  occ. eigenvalues --   -0.77982  -0.72025  -0.70641  -0.65621  -0.63389
  Beta  occ. eigenvalues --   -0.60141  -0.54785  -0.52833  -0.51557  -0.49436
  Beta  occ. eigenvalues --   -0.49042  -0.45011  -0.44411  -0.41380  -0.40064
  Beta  occ. eigenvalues --   -0.39349  -0.38313  -0.37217  -0.37029  -0.36201
  Beta  occ. eigenvalues --   -0.35579  -0.34829  -0.33117  -0.32296  -0.32059
  Beta  occ. eigenvalues --   -0.30149  -0.29247  -0.28815  -0.27659  -0.27207
  Beta  occ. eigenvalues --   -0.26034  -0.25394  -0.24937  -0.23919  -0.22887
  Beta  occ. eigenvalues --   -0.22320  -0.21420  -0.21213  -0.19610  -0.16725
  Beta  occ. eigenvalues --   -0.12851
  Beta virt. eigenvalues --    0.06474   0.06852   0.07284   0.07606   0.08131
  Beta virt. eigenvalues --    0.08291   0.09838   0.10298   0.10368   0.10571
  Beta virt. eigenvalues --    0.11094   0.11896   0.12313   0.12561   0.12940

 Mulliken charges and spin densities:
               1          2
     1  C    0.634932  -1.132248
     2  C    0.092043  -0.395831
     3  N   -0.142088   0.042708
     4  C   -0.529574   0.299550
     5  C    0.131981  -0.463191
     6  C   -0.363339  -0.269051
     7  S    1.281803  -1.106056
     8  O   -0.209765   0.017205
     9  O   -0.139415   0.047133
    10  N   -0.353754   0.024371
    11  C    0.121136  -0.738854
    12  C   -0.806003   0.485437
    13  C    0.300395   0.202539
    14  C   -0.227779  -0.087616
    15  N   -0.281864   0.067947
    16  O    0.107873   0.014742
    17  H    0.040756   0.099801
    18  H   -0.256990   0.386322
    19  H   -0.375474   0.509972
    20  H   -0.131173   0.276085
    21  H   -0.144108   0.272814
    22  H    0.706260  -0.434011
    23  H    0.060053   0.107726
    24  H    0.058358   0.105721
    25  H    0.040690   0.167405
    26  H   -0.482503   0.663611
    27  H   -0.322597   0.576900
    28  H   -0.275652   0.551991
    29  H   -0.074020   0.413447
    30  H    0.083726   0.143748
    31  H    0.178469   0.031772
    32  H    0.123810   0.089280
    33  H    0.153813   0.028632
 Sum of Mulliken charges =  -1.00000   1.00000

 Dipole moment (field-independent basis, Debye):
    X=             -4.0846    Y=              0.0458    Z=              2.6095  Tot=              4.8472
 Quadrupole moment (field-independent basis, Debye-Ang):
   XX=           -189.1523   YY=           -149.8037   ZZ=           -138.1117
   XY=             -7.3468   XZ=             15.6103   YZ=             -1.0184

 Summary of Natural Population Analysis:

                                       Natural Population
                Natural  -----------------------------------------------
    Atom  No    Charge         Core      Valence    Rydberg      Total
 -----------------------------------------------------------------------
      C    1   -0.28667      0.99967     2.28108    0.00593     3.28667
      C    2   -0.08809      0.99964     2.07791    0.01054     3.08809
      N    3   -0.34889      0.99974     2.83749    0.01166     3.84889
      C    4   -0.08741      0.99962     2.07563    0.01215     3.08741
      C    5   -0.21243      0.99962     2.20253    0.01028     3.21243
      C    6   -0.28449      0.99957     2.27064    0.01428     3.28449
      S    7    1.08544      4.99929     1.81620    0.09908     6.91456
      O    8   -0.46194      0.99990     3.45693    0.00510     4.46194
      O    9   -0.46469      0.99991     3.45959    0.00519     4.46469
      N   10   -0.43839      0.99977     2.92408    0.01455     3.93839
      C   11   -0.11936      0.99957     2.10584    0.01395     3.11936
      C   12    0.17772      0.99949     1.80725    0.01554     2.82228
      C   13   -0.18326      0.99948     2.17607    0.00770     3.18326
      C   14   -0.00487      0.99966     1.99046    0.01475     3.00487
      N   15   -0.06698      0.99971     2.55467    0.01259     3.56698
      O   16   -0.16482      0.99985     3.15528    0.00969     4.16482
      H   17    0.09737      0.00000     0.40147    0.00116     0.40263
      H   18    0.09879      0.00000     0.40028    0.00092     0.40121
      H   19    0.09831      0.00000     0.40010    0.00159     0.40169
      H   20    0.08711      0.00000     0.41154    0.00135     0.41289
      H   21    0.07946      0.00000     0.41786    0.00267     0.42054
      H   22    0.18134      0.00000     0.31439    0.00428     0.31866
      H   23    0.09385      0.00000     0.40459    0.00156     0.40615
      H   24    0.09248      0.00000     0.40642    0.00109     0.40752
      H   25    0.10776      0.00000     0.39105    0.00120     0.39224
      H   26    0.10736      0.00000     0.39107    0.00158     0.39264
      H   27    0.12228      0.00000     0.37617    0.00155     0.37772
      H   28    0.12108      0.00000     0.37595    0.00297     0.37892
      H   29    0.20270      0.00000     0.29381    0.00348     0.29730
      H   30    0.11216      0.00000     0.38646    0.00138     0.38784
      H   31    0.12130      0.00000     0.37731    0.00140     0.37870
      H   32    0.12508      0.00000     0.37372    0.00119     0.37492
      H   33    0.10069      0.00000     0.39839    0.00092     0.39931
 =======================================================================
   * Total *    0.00000     19.99449    45.71222    0.29328    66.00000

 Normal termination of Gaussian 16 at Fri Dec 11 00:27:53 2020.
