 Gaussian 16, Revision A.03,

 -----------------------------------------------------------
 # opt freq B3LYP/6-31G(d) empiricaldispersion=gd3bj scf=xqc
 -----------------------------------------------------------

 ------------------------------
 CID_15584976_JID_5075_neutraal
 ------------------------------
 Symbolic Z-matrix:
 Charge =  0 Multiplicity = 1

 SCF Done:  E(RB3LYP) =  -660.355058190     A.U. after   13 cycles
 SCF Done:  E(RB3LYP) =  -660.358741712     A.U. after   11 cycles
 SCF Done:  E(RB3LYP) =  -660.357778210     A.U. after   11 cycles
 SCF Done:  E(RB3LYP) =  -660.359668720     A.U. after   11 cycles
 SCF Done:  E(RB3LYP) =  -660.360116897     A.U. after   10 cycles
 SCF Done:  E(RB3LYP) =  -660.360157958     A.U. after   10 cycles
 SCF Done:  E(RB3LYP) =  -660.360178751     A.U. after    9 cycles
 SCF Done:  E(RB3LYP) =  -660.360190015     A.U. after    9 cycles
 SCF Done:  E(RB3LYP) =  -660.360197974     A.U. after    9 cycles
 SCF Done:  E(RB3LYP) =  -660.360198432     A.U. after    7 cycles
 Optimization completed.
    -- Stationary point found.
 Normal termination of Gaussian 16 at Thu Dec 10 14:46:04 2020.

 --------------------------------------------------------------------
 #N Geom=AllCheck Guess=TCheck SCRF=Check GenChk RB3LYP/6-31G(d) Freq
 --------------------------------------------------------------------

 Structure from the checkpoint file:  "JID_5075.chk"
 ------------------------------
 CID_15584976_JID_5075_neutraal
 ------------------------------
 Charge =  0 Multiplicity = 1

 SCF Done:  E(RB3LYP) =  -660.360198432     A.U. after    1 cycles

  Exact polarizability: 158.683   2.374 133.590  -2.200  -1.561 122.137
 Approx polarizability: 191.857   4.374 186.343  -3.136   0.023 189.435

                      1                      2                      3
                      A                      A                      A
 Frequencies --     32.9490                70.9691                95.9410
 Red. masses --      2.8486                 3.0627                 2.9638
 Frc consts  --      0.0018                 0.0091                 0.0161
 IR Inten    --      0.3155                 0.3922                 1.0075

                      4                      5                      6
                      A                      A                      A
 Frequencies --    112.4634               157.5941               181.8818
 Red. masses --      3.3401                 2.7533                 2.8842
 Frc consts  --      0.0249                 0.0403                 0.0562
 IR Inten    --      1.5695                 0.2868                 2.6159

                      7                      8                      9
                      A                      A                      A
 Frequencies --    216.5156               221.4267               231.8713
 Red. masses --      2.5864                 1.7763                 1.3146
 Frc consts  --      0.0714                 0.0513                 0.0416
 IR Inten    --      0.8030                 0.0450                 0.1356

                     10                     11                     12
                      A                      A                      A
 Frequencies --    257.8858               271.7592               290.9454
 Red. masses --      1.1019                 2.6438                 1.1437
 Frc consts  --      0.0432                 0.1150                 0.0570
 IR Inten    --      0.0358                 1.1770                 0.1404

                     13                     14                     15
                      A                      A                      A
 Frequencies --    313.4081               323.1317               342.4946
 Red. masses --      2.9060                 1.9744                 2.5261
 Frc consts  --      0.1682                 0.1215                 0.1746
 IR Inten    --      1.1594                 0.3276                 1.5553

                     16                     17                     18
                      A                      A                      A
 Frequencies --    366.3804               400.3630               414.4813
 Red. masses --      1.9659                 3.2935                 2.3068
 Frc consts  --      0.1555                 0.3110                 0.2335
 IR Inten    --      0.4480                 1.6411                 0.9484

                     19                     20                     21
                      A                      A                      A
 Frequencies --    434.6827               446.7601               488.6643
 Red. masses --      2.9916                 3.0091                 2.8655
 Frc consts  --      0.3330                 0.3539                 0.4032
 IR Inten    --      2.0252                 0.6161                 5.4594

                     22                     23                     24
                      A                      A                      A
 Frequencies --    498.2717               516.2649               573.6343
 Red. masses --      2.8889                 1.9417                 4.1657
 Frc consts  --      0.4226                 0.3049                 0.8076
 IR Inten    --      2.4608                 2.2668                 6.8726

                     25                     26                     27
                      A                      A                      A
 Frequencies --    636.6491               724.1070               783.0313
 Red. masses --      2.9084                 3.0757                 3.2711
 Frc consts  --      0.6945                 0.9502                 1.1817
 IR Inten    --      3.4916                 2.5325                 3.4259

                     28                     29                     30
                      A                      A                      A
 Frequencies --    793.8811               805.5140               827.6691
 Red. masses --      2.6524                 1.4721                 2.6868
 Frc consts  --      0.9849                 0.5628                 1.0844
 IR Inten    --      0.4349                 0.0470                 3.0374

                     31                     32                     33
                      A                      A                      A
 Frequencies --    840.3758               865.7580               902.9449
 Red. masses --      2.3354                 2.1662                 1.7849
 Frc consts  --      0.9718                 0.9566                 0.8574
 IR Inten    --      6.6987                 0.7172                 4.1169

                     34                     35                     36
                      A                      A                      A
 Frequencies --    912.2455               915.1233               927.6007
 Red. masses --      1.9358                 1.8660                 1.7311
 Frc consts  --      0.9492                 0.9207                 0.8776
 IR Inten    --      4.9477                 2.1938                 7.6843

                     37                     38                     39
                      A                      A                      A
 Frequencies --    938.2586               944.8232               986.4425
 Red. masses --      1.6461                 1.9805                 1.7197
 Frc consts  --      0.8538                 1.0417                 0.9859
 IR Inten    --      0.6418                 0.7505                13.8312

                     40                     41                     42
                      A                      A                      A
 Frequencies --   1006.5116              1037.1385              1042.2505
 Red. masses --      2.1478                 1.9283                 2.4961
 Frc consts  --      1.2820                 1.2221                 1.5976
 IR Inten    --     23.1335                 6.6287                35.4260

                     43                     44                     45
                      A                      A                      A
 Frequencies --   1058.2128              1066.0297              1075.1174
 Red. masses --      1.8388                 1.6730                 1.4451
 Frc consts  --      1.2132                 1.1202                 0.9841
 IR Inten    --      4.4022                 6.0891                14.0386

                     46                     47                     48
                      A                      A                      A
 Frequencies --   1099.5288              1103.6647              1112.8734
 Red. masses --      1.5026                 1.4479                 2.5925
 Frc consts  --      1.0703                 1.0391                 1.8917
 IR Inten    --      3.4446                26.7126                 0.4459

                     49                     50                     51
                      A                      A                      A
 Frequencies --   1118.2514              1165.4777              1172.7621
 Red. masses --      2.0170                 2.0293                 2.0153
 Frc consts  --      1.4861                 1.6240                 1.6331
 IR Inten    --     22.7153                17.4134                 0.9117

                     52                     53                     54
                      A                      A                      A
 Frequencies --   1181.8517              1196.5650              1201.1493
 Red. masses --      2.3665                 2.6857                 2.2279
 Frc consts  --      1.9475                 2.2656                 1.8938
 IR Inten    --      9.8756               187.2239                25.6977

                     55                     56                     57
                      A                      A                      A
 Frequencies --   1229.6492              1244.1200              1282.6485
 Red. masses --      1.8747                 2.9617                 1.4039
 Frc consts  --      1.6701                 2.7009                 1.3608
 IR Inten    --     25.3806               193.7569                 3.4782

                     58                     59                     60
                      A                      A                      A
 Frequencies --   1288.0726              1305.0320              1316.3095
 Red. masses --      1.2873                 1.2855                 1.2335
 Frc consts  --      1.2584                 1.2899                 1.2593
 IR Inten    --      9.9325                 2.0983                 1.4028

                     61                     62                     63
                      A                      A                      A
 Frequencies --   1335.3969              1351.2392              1354.7400
 Red. masses --      1.3776                 1.4577                 1.2909
 Frc consts  --      1.4474                 1.5681                 1.3959
 IR Inten    --     10.1470                19.7701                 3.3669

                     64                     65                     66
                      A                      A                      A
 Frequencies --   1385.8273              1391.0823              1392.8179
 Red. masses --      1.3974                 1.3620                 1.3015
 Frc consts  --      1.5812                 1.5529                 1.4876
 IR Inten    --      0.1629                 0.6158                 2.7565

                     67                     68                     69
                      A                      A                      A
 Frequencies --   1397.5616              1404.5148              1406.0181
 Red. masses --      1.3519                 1.4881                 1.4554
 Frc consts  --      1.5558                 1.7296                 1.6952
 IR Inten    --     14.8598                 3.5666                 4.7445

                     70                     71                     72
                      A                      A                      A
 Frequencies --   1411.8909              1414.2304              1424.1101
 Red. masses --      1.3346                 1.3713                 1.4273
 Frc consts  --      1.5675                 1.6159                 1.7055
 IR Inten    --      2.0687                 5.3219                 2.3479

                     73                     74                     75
                      A                      A                      A
 Frequencies --   1431.6972              1434.7135              1439.6817
 Red. masses --      1.2833                 1.3022                 1.3134
 Frc consts  --      1.5499                 1.5792                 1.6040
 IR Inten    --     15.2442                22.7251                 8.4856

                     76                     77                     78
                      A                      A                      A
 Frequencies --   1510.8767              1512.7847              1514.0098
 Red. masses --      1.0638                 1.0728                 1.0531
 Frc consts  --      1.4307                 1.4465                 1.4223
 IR Inten    --      3.0500                 0.3537                 4.2033

                     79                     80                     81
                      A                      A                      A
 Frequencies --   1515.9386              1516.1817              1521.9438
 Red. masses --      1.0809                 1.0856                 1.0745
 Frc consts  --      1.4635                 1.4704                 1.4664
 IR Inten    --      0.9119                 3.4369                 8.6299

                     82                     83                     84
                      A                      A                      A
 Frequencies --   1522.6190              1526.4601              1527.9261
 Red. masses --      1.0717                 1.0691                 1.0616
 Frc consts  --      1.4639                 1.4677                 1.4602
 IR Inten    --      5.1946                 0.7815                 4.5561

                     85                     86                     87
                      A                      A                      A
 Frequencies --   1531.2710              1540.8372              1546.8851
 Red. masses --      1.0661                 1.0952                 1.0516
 Frc consts  --      1.4729                 1.5320                 1.4825
 IR Inten    --      1.0020                 0.4422                 1.8122

                     88                     89                     90
                      A                      A                      A
 Frequencies --   3019.0129              3019.7948              3023.6361
 Red. masses --      1.0725                 1.0669                 1.0784
 Frc consts  --      5.7596                 5.7325                 5.8086
 IR Inten    --     16.3496                24.1505                17.6926

                     91                     92                     93
                      A                      A                      A
 Frequencies --   3026.2142              3028.1194              3048.6373
 Red. masses --      1.0613                 1.0833                 1.0656
 Frc consts  --      5.7265                 5.8527                 5.8352
 IR Inten    --     44.8749                32.8453                 4.9739

                     94                     95                     96
                      A                      A                      A
 Frequencies --   3054.0429              3055.8894              3056.3246
 Red. masses --      1.0649                 1.0480                 1.0475
 Frc consts  --      5.8519                 5.7661                 5.7650
 IR Inten    --     28.9828                 6.8970                 7.0499

                     97                     98                     99
                      A                      A                      A
 Frequencies --   3059.3268              3069.6767              3070.4718
 Red. masses --      1.0601                 1.0921                 1.0849
 Frc consts  --      5.8457                 6.0632                 6.0264
 IR Inten    --     29.8247                56.6610                73.6082

                    100                    101                    102
                      A                      A                      A
 Frequencies --   3071.0757              3075.6365              3077.0167
 Red. masses --      1.0819                 1.0502                 1.0880
 Frc consts  --      6.0121                 5.8531                 6.0695
 IR Inten    --     51.5479                25.3060                58.3159

                    103                    104                    105
                      A                      A                      A
 Frequencies --   3100.9647              3103.1711              3120.3545
 Red. masses --      1.1000                 1.1028                 1.0965
 Frc consts  --      6.2320                 6.2572                 6.2901
 IR Inten    --     43.3633                38.3121                33.9075

                    106                    107                    108
                      A                      A                      A
 Frequencies --   3122.4829              3127.5092              3139.0788
 Red. masses --      1.1004                 1.1013                 1.1033
 Frc consts  --      6.3212                 6.3469                 6.4055
 IR Inten    --     28.9258                33.7959                39.7750

                    109                    110                    111
                      A                      A                      A
 Frequencies --   3151.1774              3159.7596              3172.7939
 Red. masses --      1.0982                 1.0999                 1.1024
 Frc consts  --      6.4254                 6.4703                 6.5386
 IR Inten    --     25.5343                10.5642                23.6043

 - Thermochemistry -
 -------------------
 Temperature   298.150 Kelvin.  Pressure   1.00000 Atm.
 Atom     1 has atomic number  6 and mass  12.00000

 Molecular mass:   212.17763 amu.
 Principal axes and moments of inertia in atomic units:
                           1         2         3
     Eigenvalues --  1683.617464548.535175031.09415
           X            1.00000   0.00029   0.00008
           Y           -0.00029   0.99969  -0.02472
           Z           -0.00009   0.02472   0.99969
 This molecule is an asymmetric top.
 Rotational symmetry number  1.
 Warning -- assumption of classical behavior for rotation
           may cause significant error
 Rotational temperatures (Kelvin)      0.05145     0.01904     0.01722
 Rotational constants (GHZ):           1.07194     0.39677     0.35872
 Zero-point vibrational energy     942560.5 (Joules/Mol)
                                  225.27736 (Kcal/Mol)
 Warning -- explicit consideration of  24 degrees of freedom as
           vibrations may cause significant error
 Vibrational temperatures:     47.41   102.11   138.04   161.81   226.74
          (Kelvin)            261.69   311.52   318.58   333.61   371.04
                              391.00   418.61   450.92   464.91   492.77
                              527.14   576.03   596.35   625.41   642.79
                              703.08   716.90   742.79   825.33   916.00
                             1041.83  1126.61  1142.22  1158.95  1190.83
                             1209.11  1245.63  1299.14  1312.52  1316.66
                             1334.61  1349.94  1359.39  1419.27  1448.15
                             1492.21  1499.57  1522.53  1533.78  1546.85
                             1581.98  1587.93  1601.18  1608.91  1676.86
                             1687.34  1700.42  1721.59  1728.19  1769.19
                             1790.01  1845.45  1853.25  1877.65  1893.88
                             1921.34  1944.13  1949.17  1993.90  2001.46
                             2003.95  2010.78  2020.78  2022.95  2031.40
                             2034.76  2048.98  2059.89  2064.23  2071.38
                             2173.81  2176.56  2178.32  2181.10  2181.45
                             2189.74  2190.71  2196.24  2198.34  2203.16
                             2216.92  2225.62  4343.69  4344.81  4350.34
                             4354.05  4356.79  4386.31  4394.09  4396.74
                             4397.37  4401.69  4416.58  4417.72  4418.59
                             4425.15  4427.14  4461.60  4464.77  4489.49
                             4492.56  4499.79  4516.43  4533.84  4546.19
                             4564.94

 Zero-point correction=                           0.359002 (Hartree/Particle)
 Thermal correction to Energy=                    0.374244
 Thermal correction to Enthalpy=                  0.375189
 Thermal correction to Gibbs Free Energy=         0.317673
 Sum of electronic and zero-point Energies=           -660.001196
 Sum of electronic and thermal Energies=              -659.985954
 Sum of electronic and thermal Enthalpies=            -659.985010
 Sum of electronic and thermal Free Energies=         -660.042526

                     E (Thermal)             CV                S
                      KCal/Mol        Cal/Mol-Kelvin    Cal/Mol-Kelvin
 Total                  234.842             61.262            121.053
 Electronic               0.000              0.000              0.000
 Translational            0.889              2.981             41.960
 Rotational               0.889              2.981             32.022
 Vibrational            233.064             55.300             47.071
 Vibration     1          0.594              1.983              5.643
 Vibration     2          0.598              1.968              4.126
 Vibration     3          0.603              1.952              3.535
 Vibration     4          0.607              1.939              3.226
 Vibration     5          0.621              1.894              2.578
 Vibration     6          0.630              1.864              2.309
 Vibration     7          0.645              1.816              1.988
 Vibration     8          0.648              1.808              1.947
 Vibration     9          0.653              1.792              1.864
 Vibration    10          0.667              1.749              1.676
 Vibration    11          0.675              1.725              1.585
 Vibration    12          0.687              1.691              1.468
 Vibration    13          0.701              1.648              1.344
 Vibration    14          0.708              1.629              1.294
 Vibration    15          0.722              1.591              1.201
 Vibration    16          0.739              1.541              1.095
 Vibration    17          0.766              1.469              0.961
 Vibration    18          0.778              1.439              0.911
 Vibration    19          0.795              1.395              0.843
 Vibration    20          0.806              1.368              0.806
 Vibration    21          0.845              1.275              0.687
 Vibration    22          0.854              1.254              0.662
 Vibration    23          0.871              1.214              0.619
 Vibration    24          0.930              1.088              0.497

                           ! Non-Optimized Parameters !
 Normal termination of Gaussian 16 at Thu Dec 10 15:00:16 2020.

 ----------------------------------------------------------------------
 # B3LYP/6-311++G(d,p) empiricaldispersion=gd3bj scf=xqc pop=npa geom=c
 heck
 ----------------------------------------------------------------------

 --------------------------------------
 CID_15584976_JID_5075_Energie_neutraal
 --------------------------------------
 Structure from the checkpoint file:  "JID_5075.chk"
 Charge =  0 Multiplicity = 1

 SCF Done:  E(RB3LYP) =  -660.541274300     A.U. after   14 cycles
 Normal termination of Gaussian 16 at Thu Dec 10 15:07:10 2020.

 ----------------------------------------------------------------------
 # B3LYP/6-311++G(d,p) empiricaldispersion=gd3bj scf=xqc pop=npa geom=c
 heck
 ----------------------------------------------------------------------

 ------------------------------------
 CID_15584976_JID_5075_Energie_kation
 ------------------------------------
 Structure from the checkpoint file:  "JID_5075.chk"
 Charge =  1 Multiplicity = 2

 SCF Done:  E(UB3LYP) =  -660.235343327     A.U. after   21 cycles
 Normal termination of Gaussian 16 at Thu Dec 10 15:23:22 2020.
 Gaussian 16:  ES64L-G16RevA.03 25-Dec-2016

 ----------------------------------------------------------------------
 # B3LYP/6-311++G(d,p) empiricaldispersion=gd3bj scf=xqc pop=npa geom=c
 heck
 ----------------------------------------------------------------------

 -----------------------------------
 CID_15584976_JID_5075_Energie_anion
 -----------------------------------
 Structure from the checkpoint file:  "JID_5075.chk"
 Charge = -1 Multiplicity = 2

                         Standard orientation:
 ---------------------------------------------------------------------
 Center     Atomic      Atomic             Coordinates (Angstroms)
 Number     Number       Type             X           Y           Z
 ---------------------------------------------------------------------
      1          6           0       -3.025641    1.363320    0.890817
      2          6           0       -1.870469    0.491489    1.389438
      3          6           0       -2.031118   -1.005361    1.113256
      4          6           0       -1.824370   -1.323523   -0.382035
      5          8           0       -1.229102   -0.227189   -1.093031
      6          6           0       -0.306342    0.670373   -0.477497
      7          8           0       -0.591539    0.906595    0.901820
      8          6           0       -0.486362    1.973677   -1.265422
      9          6           0        1.154897    0.151881   -0.561602
     10          6           0        1.382878   -1.156083    0.216538
     11          6           0        2.835474   -1.644243    0.129895
     12          6           0        3.820396   -0.574774    0.609830
     13          6           0        3.618950    0.724112   -0.175841
     14          6           0        2.168423    1.217227   -0.093428
     15          6           0       -3.125557   -1.624363   -1.117605
     16          1           0       -2.805746    2.418028    1.084185
     17          1           0       -3.947506    1.100377    1.423126
     18          1           0       -3.199772    1.236052   -0.179351
     19          1           0       -1.784341    0.637260    2.471728
     20          1           0       -1.282703   -1.534082    1.712008
     21          1           0       -3.016896   -1.353512    1.443611
     22          1           0       -1.176885   -2.204402   -0.475396
     23          1           0        0.028748    2.796379   -0.766526
     24          1           0       -0.093155    1.866586   -2.281589
     25          1           0       -1.548165    2.216106   -1.331459
     26          1           0        1.331813   -0.049393   -1.628322
     27          1           0        1.116406   -0.987097    1.267360
     28          1           0        0.725196   -1.942325   -0.162809
     29          1           0        3.068103   -1.905334   -0.913077
     30          1           0        2.951322   -2.565172    0.715310
     31          1           0        4.853820   -0.929709    0.509794
     32          1           0        3.653092   -0.381455    1.679500
     33          1           0        3.882257    0.550504   -1.229806
     34          1           0        4.296869    1.505101    0.190913
     35          1           0        2.068497    2.128252   -0.691917
     36          1           0        1.929267    1.490202    0.942661
     37          1           0       -2.929864   -1.776230   -2.183481
     38          1           0       -3.584393   -2.533610   -0.712786
     39          1           0       -3.837788   -0.800155   -1.012062
 ---------------------------------------------------------------------

 SCF Done:  E(UB3LYP) =  -660.525446495     A.U. after   27 cycles

 The electronic state is 2-A.
 Alpha  occ. eigenvalues --  -19.02459 -19.02179 -10.17767 -10.12606 -10.12587
 Alpha  occ. eigenvalues --  -10.07214 -10.06808 -10.06660 -10.06572 -10.06477
 Alpha  occ. eigenvalues --  -10.06394 -10.06152 -10.06071 -10.06041 -10.05943
 Alpha  occ. eigenvalues --   -0.97047  -0.90343  -0.74104  -0.71552  -0.65775
 Alpha  occ. eigenvalues --   -0.65111  -0.64358  -0.62178  -0.59538  -0.54249
 Alpha  occ. eigenvalues --   -0.52502  -0.51077  -0.50084  -0.45742  -0.42515
 Alpha  occ. eigenvalues --   -0.41673  -0.39678  -0.38216  -0.36839  -0.35321
 Alpha  occ. eigenvalues --   -0.34309  -0.34106  -0.33119  -0.32636  -0.32146
 Alpha  occ. eigenvalues --   -0.31464  -0.29876  -0.29452  -0.29038  -0.28355
 Alpha  occ. eigenvalues --   -0.27571  -0.26608  -0.26416  -0.25537  -0.24970
 Alpha  occ. eigenvalues --   -0.24632  -0.24451  -0.23975  -0.22014  -0.21874
 Alpha  occ. eigenvalues --   -0.20131  -0.19238  -0.17459  -0.14574   0.04417
 Alpha virt. eigenvalues --    0.06142   0.07031   0.07286   0.08193   0.08251
 Alpha virt. eigenvalues --    0.08621   0.09601   0.09768   0.10227   0.10768
 Alpha virt. eigenvalues --    0.11111   0.11332   0.11580   0.12566   0.12634

  Beta  occ. eigenvalues --  -19.02452 -19.02177 -10.17765 -10.12594 -10.12575
  Beta  occ. eigenvalues --  -10.07210 -10.06796 -10.06638 -10.06558 -10.06462
  Beta  occ. eigenvalues --  -10.06387 -10.06126 -10.06062 -10.06015 -10.05932
  Beta  occ. eigenvalues --   -0.97038  -0.90333  -0.74085  -0.71524  -0.65749
  Beta  occ. eigenvalues --   -0.65079  -0.64332  -0.62157  -0.59489  -0.54222
  Beta  occ. eigenvalues --   -0.52457  -0.51041  -0.50050  -0.45700  -0.42482
  Beta  occ. eigenvalues --   -0.41649  -0.39618  -0.38178  -0.36806  -0.35298
  Beta  occ. eigenvalues --   -0.34288  -0.34085  -0.33097  -0.32612  -0.32119
  Beta  occ. eigenvalues --   -0.31428  -0.29854  -0.29426  -0.29008  -0.28326
  Beta  occ. eigenvalues --   -0.27543  -0.26587  -0.26392  -0.25515  -0.24942
  Beta  occ. eigenvalues --   -0.24602  -0.24425  -0.23948  -0.21990  -0.21844
  Beta  occ. eigenvalues --   -0.20106  -0.19217  -0.17438  -0.14555
  Beta virt. eigenvalues --    0.06355   0.07079   0.07545   0.07693   0.08644
  Beta virt. eigenvalues --    0.08768   0.08992   0.09987   0.10083   0.10685
  Beta virt. eigenvalues --    0.11092   0.11423   0.11627   0.11791   0.12960

 Mulliken charges and spin densities:
               1          2
     1  C    0.876713  -1.506515
     2  C   -0.560135   0.916287
     3  C    0.457051  -1.096862
     4  C   -0.570330   1.011400
     5  O    0.028253   0.024885
     6  C   -1.131161  -0.531885
     7  O    0.091161   0.014905
     8  C    0.257016  -0.511450
     9  C    0.853191  -0.098645
    10  C   -0.231234  -0.035236
    11  C   -0.147687  -0.232113
    12  C   -0.099547  -0.326421
    13  C    0.179731  -0.524132
    14  C   -0.471121   0.164155
    15  C    1.267765  -1.934566
    16  H    0.045574   0.108543
    17  H   -0.321280   0.483640
    18  H    0.045888   0.130448
    19  H   -0.423806   0.636356
    20  H   -0.205528   0.362031
    21  H   -0.557871   0.759336
    22  H   -0.156867   0.360264
    23  H   -0.029874   0.203798
    24  H    0.052388   0.101492
    25  H    0.206072  -0.071034
    26  H    0.125360   0.090887
    27  H    0.258555  -0.072645
    28  H    0.072818   0.043129
    29  H   -0.009698   0.136088
    30  H   -0.325867   0.500537
    31  H   -0.214920   0.389315
    32  H    0.021712   0.096963
    33  H   -0.008075   0.127015
    34  H   -0.169721   0.334455
    35  H    0.078330   0.036847
    36  H    0.083562   0.118831
    37  H   -0.050790   0.191397
    38  H   -0.242458   0.391583
    39  H   -0.073170   0.206919
 Sum of Mulliken charges =  -1.00000   1.00000

 Dipole moment (field-independent basis, Debye):
    X=              2.0665    Y=              3.0838    Z=             -3.1373  Tot=              4.8604
 Quadrupole moment (field-independent basis, Debye-Ang):
   XX=           -179.7407   YY=           -141.5317   ZZ=           -134.3876
   XY=             -3.3795   XZ=              5.6082   YZ=              0.9206

 Summary of Natural Population Analysis:

                                       Natural Population
                Natural  -----------------------------------------------
    Atom  No    Charge         Core      Valence    Rydberg      Total
 -----------------------------------------------------------------------
      C    1   -0.30036      0.99964     2.29484    0.00588     3.30036
      C    2    0.06731      0.99954     1.91703    0.01613     2.93269
      C    3   -0.21442      0.99958     2.20490    0.00993     3.21442
      C    4    0.06886      0.99954     1.91796    0.01365     2.93114
      O    5   -0.32296      0.99986     3.31304    0.01006     4.32296
      C    6    0.31239      0.99951     1.66749    0.02062     2.68761
      O    7   -0.32061      0.99986     3.31145    0.00930     4.32061
      C    8   -0.29718      0.99959     2.29146    0.00613     3.29718
      C    9   -0.12203      0.99952     2.11150    0.01101     3.12203
      C   10   -0.19402      0.99960     2.18467    0.00974     3.19402
      C   11   -0.18579      0.99963     2.17775    0.00841     3.18579
      C   12   -0.18935      0.99963     2.18203    0.00770     3.18935
      C   13   -0.18738      0.99963     2.17955    0.00820     3.18738
      C   14   -0.19228      0.99961     2.18387    0.00880     3.19228
      C   15   -0.28534      0.99963     2.27980    0.00591     3.28534
      H   16    0.10134      0.00000     0.39773    0.00093     0.39866
      H   17    0.10290      0.00000     0.39578    0.00132     0.39710
      H   18    0.10036      0.00000     0.39836    0.00128     0.39964
      H   19    0.09297      0.00000     0.40555    0.00149     0.40703
      H   20    0.10577      0.00000     0.39236    0.00187     0.39423
      H   21    0.10600      0.00000     0.39203    0.00197     0.39400
      H   22    0.08050      0.00000     0.41713    0.00237     0.41950
      H   23    0.10295      0.00000     0.39606    0.00099     0.39705
      H   24    0.09993      0.00000     0.39918    0.00088     0.40007
      H   25    0.10515      0.00000     0.39385    0.00100     0.39485
      H   26    0.09702      0.00000     0.40142    0.00156     0.40298
      H   27    0.10043      0.00000     0.39774    0.00183     0.39957
      H   28    0.09999      0.00000     0.39826    0.00174     0.40001
      H   29    0.09048      0.00000     0.40829    0.00122     0.40952
      H   30    0.09952      0.00000     0.39941    0.00106     0.40048
      H   31    0.09686      0.00000     0.40206    0.00108     0.40314
      H   32    0.09285      0.00000     0.40585    0.00129     0.40715
      H   33    0.09051      0.00000     0.40828    0.00121     0.40949
      H   34    0.09724      0.00000     0.40182    0.00094     0.40276
      H   35    0.09810      0.00000     0.40094    0.00096     0.40190
      H   36    0.10158      0.00000     0.39688    0.00154     0.39842
      H   37    0.10131      0.00000     0.39769    0.00100     0.39869
      H   38    0.10109      0.00000     0.39767    0.00124     0.39891
      H   39    0.09828      0.00000     0.40046    0.00126     0.40172
 =======================================================================
   * Total *    0.00000     14.99437    43.82217    0.18346    59.00000

 Normal termination of Gaussian 16 at Thu Dec 10 15:44:32 2020.
