 Gaussian 16, Revision A.03,

 -----------------------------------------------------------
 # opt freq B3LYP/6-31G(d) empiricaldispersion=gd3bj scf=xqc
 -----------------------------------------------------------

 ----------------------------
 CID_19380340_JID_33_neutraal
 ----------------------------
 Symbolic Z-matrix:
 Charge =  0 Multiplicity = 1

 SCF Done:  E(RB3LYP) =  -464.918791134     A.U. after   13 cycles
 SCF Done:  E(RB3LYP) =  -464.922855407     A.U. after   11 cycles
 SCF Done:  E(RB3LYP) =  -464.923312904     A.U. after   10 cycles
 SCF Done:  E(RB3LYP) =  -464.923411682     A.U. after   10 cycles
 SCF Done:  E(RB3LYP) =  -464.923429145     A.U. after    9 cycles
 SCF Done:  E(RB3LYP) =  -464.923447203     A.U. after   10 cycles
 SCF Done:  E(RB3LYP) =  -464.923449971     A.U. after    9 cycles
 SCF Done:  E(RB3LYP) =  -464.923451126     A.U. after    8 cycles
 SCF Done:  E(RB3LYP) =  -464.923451206     A.U. after    6 cycles
 Optimization completed.
    -- Stationary point found.

 1\1\GINC-NODE350\FOpt\RB3LYP\6-31G(d)\C8H16O2\VSC10255\08-Dec-2020\0\\
 # opt freq B3LYP/6-31G(d) empiricaldispersion=gd3bj scf=xqc\\CID_19380
 340_JID_33_neutraal\\0,1\C,0.6567499942,0.0938434913,-0.134951602\C,1.
 1021814081,1.3602604848,0.6046031307\C,1.255258348,2.5284240107,-0.338
 4598556\C,0.1539541208,3.4615516421,-0.6114575606\O,1.2526480861,3.847
 186649,0.2328367507\C,0.0224423105,4.172966447,-1.9367663805\C,-0.7028
 961763,3.329617188,-3.0001700424\C,-2.1253895131,2.8813529273,-2.62722
 39184\C,-3.0769301935,4.0325626068,-2.2919853828\O,-3.2179426998,4.965

 Normal termination of Gaussian 16 at Tue Dec  8 10:15:14 2020.

 --------------------------------------------------------------------
 #N Geom=AllCheck Guess=TCheck SCRF=Check GenChk RB3LYP/6-31G(d) Freq
 --------------------------------------------------------------------

 Structure from the checkpoint file:  "JID_33.chk"
 ----------------------------
 CID_19380340_JID_33_neutraal
 ----------------------------
 Charge =  0 Multiplicity = 1

 SCF Done:  E(RB3LYP) =  -464.923451206     A.U. after    1 cycles

  Exact polarizability: 103.848   2.503  83.543   0.944  -1.858  78.959
 Approx polarizability: 129.074   1.079 118.289   2.262  -0.796 115.665

                      1                      2                      3
                      A                      A                      A
 Frequencies --     30.6842                44.9918                80.4928
 Red. masses --      3.7547                 4.2812                 2.9571
 Frc consts  --      0.0021                 0.0051                 0.0113
 IR Inten    --      0.3780                 1.3220                 1.2767

                      4                      5                      6
                      A                      A                      A
 Frequencies --     94.4315               112.0641               182.7201
 Red. masses --      2.5524                 3.0664                 1.8544
 Frc consts  --      0.0134                 0.0227                 0.0365
 IR Inten    --      0.4349                 5.1279                 0.7649

                      7                      8                      9
                      A                      A                      A
 Frequencies --    211.6305               228.6459               294.5246
 Red. masses --      2.4393                 1.3558                 2.3318
 Frc consts  --      0.0644                 0.0418                 0.1192
 IR Inten    --      8.2145                 5.4661                 0.9703

                     10                     11                     12
                      A                      A                      A
 Frequencies --    310.9173               332.3742               375.5844
 Red. masses --      1.3494                 1.5750                 2.6837
 Frc consts  --      0.0769                 0.1025                 0.2230
 IR Inten    --     85.7943                23.9369                 3.5785

                     13                     14                     15
                      A                      A                      A
 Frequencies --    432.1790               474.8973               488.8176
 Red. masses --      2.5205                 2.3940                 4.3170
 Frc consts  --      0.2774                 0.3181                 0.6077
 IR Inten    --      2.3391                 4.2647                 9.5569

                     16                     17                     18
                      A                      A                      A
 Frequencies --    559.3252               728.4789               784.3338
 Red. masses --      2.9106                 1.3686                 1.3385
 Frc consts  --      0.5365                 0.4279                 0.4851
 IR Inten    --      3.1059                 5.2528                 2.4699

                     19                     20                     21
                      A                      A                      A
 Frequencies --    814.4499               838.1408               863.8064
 Red. masses --      2.3071                 3.5656                 1.7576
 Frc consts  --      0.9017                 1.4758                 0.7727
 IR Inten    --      5.5050                 6.5414                 9.1617

                     22                     23                     24
                      A                      A                      A
 Frequencies --    924.6136               938.9479               948.5678
 Red. masses --      2.3565                 2.2288                 1.9583
 Frc consts  --      1.1870                 1.1577                 1.0382
 IR Inten    --     28.5436                30.7644                 0.6367

                     25                     26                     27
                      A                      A                      A
 Frequencies --    993.6864              1021.6262              1048.2175
 Red. masses --      1.4832                 1.9573                 1.4642
 Frc consts  --      0.8629                 1.2036                 0.9479
 IR Inten    --     15.6251                 9.7145                33.0876

                     28                     29                     30
                      A                      A                      A
 Frequencies --   1065.7184              1090.8495              1109.2438
 Red. masses --      2.3998                 1.8692                 1.3995
 Frc consts  --      1.6059                 1.3105                 1.0146
 IR Inten    --      1.2502                30.6511                30.6068

                     31                     32                     33
                      A                      A                      A
 Frequencies --   1113.8511              1144.5792              1163.6262
 Red. masses --      3.0008                 2.2930                 1.5720
 Frc consts  --      2.1935                 1.7699                 1.2541
 IR Inten    --     14.5556                 5.1082                 6.4263

                     34                     35                     36
                      A                      A                      A
 Frequencies --   1192.9432              1204.5369              1220.0151
 Red. masses --      1.5337                 1.6250                 1.2726
 Frc consts  --      1.2860                 1.3891                 1.1160
 IR Inten    --      3.7104                 7.4266                 5.0108

                     37                     38                     39
                      A                      A                      A
 Frequencies --   1261.4269              1283.9013              1306.3520
 Red. masses --      1.3087                 1.2677                 1.2925
 Frc consts  --      1.2269                 1.2312                 1.2996
 IR Inten    --      8.3256                 2.7142                 1.2281

                     40                     41                     42
                      A                      A                      A
 Frequencies --   1325.7706              1357.8400              1379.5287
 Red. masses --      1.1962                 1.3174                 1.4408
 Frc consts  --      1.2388                 1.4311                 1.6155
 IR Inten    --      5.3599                10.4262                 0.4049

                     43                     44                     45
                      A                      A                      A
 Frequencies --   1391.4967              1404.8330              1410.7284
 Red. masses --      1.4785                 1.3027                 1.1941
 Frc consts  --      1.6867                 1.5148                 1.4001
 IR Inten    --      7.5675                 6.3560                24.8445

                     46                     47                     48
                      A                      A                      A
 Frequencies --   1416.9308              1441.0747              1441.2426
 Red. masses --      1.4251                 1.2465                 1.2846
 Frc consts  --      1.6858                 1.5252                 1.5722
 IR Inten    --      0.4171                13.1938                22.6868

                     49                     50                     51
                      A                      A                      A
 Frequencies --   1510.0270              1518.2273              1518.7585
 Red. masses --      1.0846                 1.1408                 1.0777
 Frc consts  --      1.4571                 1.5492                 1.4646
 IR Inten    --      2.7407                 1.0724                 3.0040

                     52                     53                     54
                      A                      A                      A
 Frequencies --   1525.7018              1529.6870              1532.7978
 Red. masses --      1.5355                 1.0513                 1.2452
 Frc consts  --      2.1060                 1.4494                 1.7236
 IR Inten    --      7.9723                 6.2935                10.4991

                     55                     56                     57
                      A                      A                      A
 Frequencies --   1540.3531              1540.9099              2999.2554
 Red. masses --      1.2008                 1.1365                 1.0721
 Frc consts  --      1.6787                 1.5899                 5.6820
 IR Inten    --      7.2547                 0.2741                50.7587

                     58                     59                     60
                      A                      A                      A
 Frequencies --   3032.7940              3038.9425              3041.9744
 Red. masses --      1.0677                 1.0628                 1.0638
 Frc consts  --      5.7859                 5.7829                 5.8000
 IR Inten    --     40.6763                14.4712                14.2281

                     61                     62                     63
                      A                      A                      A
 Frequencies --   3045.8964              3048.4444              3076.0801
 Red. masses --      1.0501                 1.0476                 1.0965
 Frc consts  --      5.7401                 5.7360                 6.1130
 IR Inten    --      9.0056                41.1829                30.7571

                     64                     65                     66
                      A                      A                      A
 Frequencies --   3080.0841              3084.8999              3088.0283
 Red. masses --      1.0974                 1.0959                 1.1009
 Frc consts  --      6.1341                 6.1445                 6.1852
 IR Inten    --      2.9554                36.1683                49.7348

                     67                     68                     69
                      A                      A                      A
 Frequencies --   3096.1163              3103.9432              3112.0167
 Red. masses --      1.0922                 1.0936                 1.0979
 Frc consts  --      6.1685                 6.2076                 6.2647
 IR Inten    --     10.7164                51.8817                 8.7862

                     70                     71                     72
                      A                      A                      A
 Frequencies --   3117.0104              3123.5240              3754.4789
 Red. masses --      1.0932                 1.1017                 1.0661
 Frc consts  --      6.2581                 6.3327                 8.8538
 IR Inten    --    103.0669                37.6665                 7.6177

 - Thermochemistry -
 -------------------
 Temperature   298.150 Kelvin.  Pressure   1.00000 Atm.
 Atom     1 has atomic number  6 and mass  12.00000

 Molecular mass:   144.11503 amu.
 Principal axes and moments of inertia in atomic units:
                           1         2         3
     Eigenvalues --   805.149923020.414783407.59928
           X            0.99974   0.02258   0.00048
           Y           -0.02256   0.99945  -0.02448
           Z           -0.00103   0.02446   0.99970
 This molecule is an asymmetric top.
 Rotational symmetry number  1.
 Warning -- assumption of classical behavior for rotation
           may cause significant error
 Rotational temperatures (Kelvin)      0.10757     0.02868     0.02542
 Rotational constants (GHZ):           2.24150     0.59751     0.52962
 Zero-point vibrational energy     615751.4 (Joules/Mol)
                                  147.16811 (Kcal/Mol)
 Warning -- explicit consideration of  16 degrees of freedom as
           vibrations may cause significant error
 Vibrational temperatures:     44.15    64.73   115.81   135.87   161.24
          (Kelvin)            262.89   304.49   328.97   423.76   447.34
                              478.21   540.38   621.81   683.27   703.30
                              804.74  1048.12  1128.48  1171.81  1205.90
                             1242.82  1330.31  1350.94  1364.78  1429.69
                             1469.89  1508.15  1533.33  1569.49  1595.95
                             1602.58  1646.79  1674.20  1716.38  1733.06
                             1755.33  1814.91  1847.25  1879.55  1907.49
                             1953.63  1984.83  2002.05  2021.24  2029.72
                             2038.65  2073.39  2073.63  2172.59  2184.39
                             2185.15  2195.14  2200.88  2205.35  2216.22
                             2217.03  4315.26  4363.51  4372.36  4376.72
                             4382.37  4386.03  4425.79  4431.55  4438.48
                             4442.98  4454.62  4465.88  4477.50  4484.68
                             4494.05  5401.86

 Zero-point correction=                           0.234527 (Hartree/Particle)
 Thermal correction to Energy=                    0.246410
 Thermal correction to Enthalpy=                  0.247354
 Thermal correction to Gibbs Free Energy=         0.195388
 Sum of electronic and zero-point Energies=           -464.688924
 Sum of electronic and thermal Energies=              -464.677041
 Sum of electronic and thermal Enthalpies=            -464.676097
 Sum of electronic and thermal Free Energies=         -464.728063

                     E (Thermal)             CV                S
                      KCal/Mol        Cal/Mol-Kelvin    Cal/Mol-Kelvin
 Total                  154.625             42.677            109.373
 Electronic               0.000              0.000              0.000
 Translational            0.889              2.981             40.807
 Rotational               0.889              2.981             30.495
 Vibrational            152.847             36.715             38.071
 Vibration     1          0.594              1.984              5.785
 Vibration     2          0.595              1.979              5.026
 Vibration     3          0.600              1.962              3.879
 Vibration     4          0.603              1.953              3.566
 Vibration     5          0.607              1.939              3.233
 Vibration     6          0.630              1.863              2.300
 Vibration     7          0.643              1.823              2.030
 Vibration     8          0.651              1.797              1.890
 Vibration     9          0.689              1.684              1.448
 Vibration    10          0.700              1.653              1.357
 Vibration    11          0.714              1.611              1.249
 Vibration    12          0.746              1.522              1.057
 Vibration    13          0.793              1.400              0.852
 Vibration    14          0.832              1.306              0.724
 Vibration    15          0.845              1.275              0.687
 Vibration    16          0.915              1.119              0.525

                           ! Non-Optimized Parameters !

 1\1\GINC-NODE350\Freq\RB3LYP\6-31G(d)\C8H16O2\VSC10255\08-Dec-2020\0\\
 #N Geom=AllCheck Guess=TCheck SCRF=Check GenChk RB3LYP/6-31G(d) Freq\\
 CID_19380340_JID_33_neutraal\\0,1\C,0.6567499942,0.0938434913,-0.13495
 1602\C,1.1021814081,1.3602604848,0.6046031307\C,1.255258348,2.52842401
 07,-0.3384598556\C,0.1539541208,3.4615516421,-0.6114575606\O,1.2526480
 861,3.847186649,0.2328367507\C,0.0224423105,4.172966447,-1.9367663805\
 C,-0.7028961763,3.329617188,-3.0001700424\C,-2.1253895131,2.8813529273
 ,-2.6272239184\C,-3.0769301935,4.0325626068,-2.2919853828\O,-3.2179426

 Normal termination of Gaussian 16 at Tue Dec  8 10:19:34 2020.

 ----------------------------------------------------------------------
 # B3LYP/6-311++G(d,p) empiricaldispersion=gd3bj scf=xqc pop=npa geom=c
 heck
 ----------------------------------------------------------------------

 ------------------------------------
 CID_19380340_JID_33_Energie_neutraal
 ------------------------------------
 Structure from the checkpoint file:  "JID_33.chk"
 Charge =  0 Multiplicity = 1

 SCF Done:  E(RB3LYP) =  -465.069276320     A.U. after   14 cycles
 Normal termination of Gaussian 16 at Tue Dec  8 10:21:17 2020.

 ----------------------------------------------------------------------
 # B3LYP/6-311++G(d,p) empiricaldispersion=gd3bj scf=xqc pop=npa geom=c
 heck
 ----------------------------------------------------------------------

 ----------------------------------
 CID_19380340_JID_33_Energie_kation
 ----------------------------------
 Structure from the checkpoint file:  "JID_33.chk"
 Charge =  1 Multiplicity = 2

 SCF Done:  E(UB3LYP) =  -464.722251611     A.U. after   27 cycles
 Normal termination of Gaussian 16 at Tue Dec  8 10:25:18 2020.
 Gaussian 16:  ES64L-G16RevA.03 25-Dec-2016

 ---------------------------------
 CID_19380340_JID_33_Energie_anion
 ---------------------------------
 Structure from the checkpoint file:  "JID_33.chk"
 Charge = -1 Multiplicity = 2

                         Standard orientation:
 ---------------------------------------------------------------------
 Center     Atomic      Atomic             Coordinates (Angstroms)
 Number     Number       Type             X           Y           Z
 ---------------------------------------------------------------------
      1          6           0        2.903695    1.777173    0.129678
      2          6           0        3.008528    0.353666   -0.428712
      3          6           0        2.019377   -0.575362    0.231510
      4          6           0        0.675544   -0.803044   -0.316579
      5          8           0        1.703051   -1.800617   -0.449819
      6          6           0       -0.499662   -1.140348    0.569404
      7          6           0       -1.178450    0.105879    1.164675
      8          6           0       -1.710332    1.119446    0.138370
      9          6           0       -2.716993    0.534555   -0.855428
     10          8           0       -3.859979   -0.030046   -0.221123
     11          1           0        1.904910    2.194678   -0.044418
     12          1           0        3.634685    2.442035   -0.341694
     13          1           0        3.086466    1.794569    1.210775
     14          1           0        2.823656    0.349358   -1.509492
     15          1           0        4.024346   -0.035891   -0.281523
     16          1           0        2.141621   -0.695600    1.311933
     17          1           0        0.436605   -0.304818   -1.258731
     18          1           0       -1.220601   -1.739700   -0.004250
     19          1           0       -0.140968   -1.785304    1.379801
     20          1           0       -2.007474   -0.213855    1.809440
     21          1           0       -0.463926    0.614900    1.823591
     22          1           0       -2.193320    1.942857    0.678158
     23          1           0       -0.876994    1.558693   -0.427250
     24          1           0       -3.102644    1.329366   -1.501443
     25          1           0       -2.227586   -0.203093   -1.511405
     26          1           0       -3.573588   -0.834681    0.236530
 ---------------------------------------------------------------------

 SCF Done:  E(UB3LYP) =  -465.054658068     A.U. after   28 cycles

 The electronic state is 2-A.
 Alpha  occ. eigenvalues --  -19.03073 -19.02124 -10.12291 -10.12166 -10.11514
 Alpha  occ. eigenvalues --  -10.07294 -10.07231 -10.06815 -10.06569 -10.05911
 Alpha  occ. eigenvalues --   -0.97207  -0.92206  -0.70402  -0.68049  -0.63791
 Alpha  occ. eigenvalues --   -0.57232  -0.56166  -0.51698  -0.49020  -0.46640
 Alpha  occ. eigenvalues --   -0.41507  -0.38655  -0.38157  -0.36660  -0.34993
 Alpha  occ. eigenvalues --   -0.33709  -0.32342  -0.31450  -0.30526  -0.28885
 Alpha  occ. eigenvalues --   -0.26977  -0.25993  -0.25524  -0.24736  -0.24525
 Alpha  occ. eigenvalues --   -0.23368  -0.22242  -0.19410  -0.17595  -0.17063
 Alpha  occ. eigenvalues --    0.04629
 Alpha virt. eigenvalues --    0.06407   0.07394   0.08086   0.08957   0.09822
 Alpha virt. eigenvalues --    0.09945   0.10773   0.11188   0.11626   0.12516
 Alpha virt. eigenvalues --    0.13316   0.13365   0.14520   0.15079   0.15812

  Beta  occ. eigenvalues --  -19.03060 -19.02086 -10.12286 -10.12152 -10.11496
  Beta  occ. eigenvalues --  -10.07281 -10.07210 -10.06784 -10.06551 -10.05858
  Beta  occ. eigenvalues --   -0.97179  -0.92123  -0.70356  -0.68010  -0.63739
  Beta  occ. eigenvalues --   -0.57168  -0.56088  -0.51637  -0.48951  -0.46572
  Beta  occ. eigenvalues --   -0.41447  -0.38617  -0.38106  -0.36617  -0.34932
  Beta  occ. eigenvalues --   -0.33666  -0.32298  -0.31396  -0.30489  -0.28839
  Beta  occ. eigenvalues --   -0.26922  -0.25950  -0.25482  -0.24692  -0.24480
  Beta  occ. eigenvalues --   -0.23320  -0.22207  -0.19373  -0.17544  -0.17044
  Beta virt. eigenvalues --    0.07038   0.07579   0.07989   0.08605   0.09583
  Beta virt. eigenvalues --    0.10260   0.10392   0.11315   0.11507   0.12199
  Beta virt. eigenvalues --    0.12971   0.13679   0.13721   0.14770   0.15356

 Mulliken charges and spin densities:
               1          2
     1  C    1.926530  -2.551555
     2  C   -0.962929   0.814171
     3  C   -0.148865   0.172161
     4  C   -0.009495  -0.439336
     5  O   -0.133205   0.017263
     6  C    0.436773  -0.436810
     7  C    0.272975  -0.690071
     8  C   -0.419518   0.313772
     9  C    1.127396  -1.664412
    10  O   -0.285849   0.047897
    11  H   -0.439819   0.584333
    12  H   -0.519317   0.663305
    13  H   -0.380101   0.530053
    14  H   -0.048490   0.185802
    15  H   -0.095131   0.239297
    16  H   -0.289376   0.489439
    17  H    0.058113   0.147258
    18  H   -0.125302   0.268209
    19  H   -0.123803   0.310317
    20  H   -0.520880   0.703338
    21  H    0.006444   0.122210
    22  H   -0.274877   0.452291
    23  H    0.130275  -0.036439
    24  H   -0.097352   0.270242
    25  H   -0.020991   0.170201
    26  H   -0.063209   0.317063
 Sum of Mulliken charges =  -1.00000   1.00000

 Dipole moment (field-independent basis, Debye):
    X=             -0.2919    Y=             -2.3444    Z=             -2.3452  Tot=              3.3289
 Quadrupole moment (field-independent basis, Debye-Ang):
   XX=           -139.7084   YY=           -107.1437   ZZ=            -95.7050
   XY=            -10.7058   XZ=              1.0288   YZ=             -0.5423

 Summary of Natural Population Analysis:

                                       Natural Population
                Natural  -----------------------------------------------
    Atom  No    Charge         Core      Valence    Rydberg      Total
 -----------------------------------------------------------------------
      C    1   -0.28497      0.99966     2.28013    0.00518     3.28497
      C    2   -0.20160      0.99963     2.19238    0.00959     3.20160
      C    3    0.04816      0.99951     1.93812    0.01421     2.95184
      C    4    0.04566      0.99951     1.94174    0.01309     2.95434
      O    5   -0.28638      0.99992     3.27951    0.00695     4.28638
      C    6   -0.20559      0.99962     2.19479    0.01118     3.20559
      C    7   -0.19384      0.99962     2.18424    0.00998     3.19384
      C    8   -0.20513      0.99963     2.19664    0.00887     3.20513
      C    9   -0.00943      0.99960     1.99785    0.01198     3.00943
      O   10   -0.37007      0.99990     3.36321    0.00696     4.37007
      H   11    0.09865      0.00000     0.39961    0.00174     0.40135
      H   12    0.10171      0.00000     0.39636    0.00193     0.39829
      H   13    0.09942      0.00000     0.39865    0.00193     0.40058
      H   14    0.09835      0.00000     0.40024    0.00141     0.40165
      H   15    0.09736      0.00000     0.40150    0.00114     0.40264
      H   16    0.08881      0.00000     0.40976    0.00143     0.41119
      H   17    0.08734      0.00000     0.41100    0.00167     0.41266
      H   18    0.09603      0.00000     0.40257    0.00140     0.40397
      H   19    0.10653      0.00000     0.39197    0.00150     0.39347
      H   20    0.09931      0.00000     0.39869    0.00200     0.40069
      H   21    0.10254      0.00000     0.39568    0.00179     0.39746
      H   22    0.10107      0.00000     0.39769    0.00124     0.39893
      H   23    0.09780      0.00000     0.40056    0.00164     0.40220
      H   24    0.08559      0.00000     0.41309    0.00132     0.41441
      H   25    0.07328      0.00000     0.42529    0.00143     0.42672
      H   26    0.22942      0.00000     0.26609    0.00449     0.27058
 =======================================================================
   * Total *   -0.00000      9.99659    29.87734    0.12606    40.00000

 Normal termination of Gaussian 16 at Tue Dec  8 10:29:25 2020.
