 Gaussian 16, Revision A.03,

 -----------------------------------------------------------
 # opt freq B3LYP/6-31G(d) empiricaldispersion=gd3bj scf=xqc
 -----------------------------------------------------------

 ------------------------------
 CID_21782560_JID_4271_neutraal
 ------------------------------
 Symbolic Z-matrix:
 Charge =  0 Multiplicity = 1

 SCF Done:  E(RB3LYP) =  -738.656727061     A.U. after   16 cycles
 SCF Done:  E(RB3LYP) =  -738.660909211     A.U. after   13 cycles
 SCF Done:  E(RB3LYP) =  -738.660643984     A.U. after   13 cycles
 SCF Done:  E(RB3LYP) =  -738.660353045     A.U. after   14 cycles
 SCF Done:  E(RB3LYP) =  -738.660001742     A.U. after   13 cycles
 SCF Done:  E(RB3LYP) =  -738.661158890     A.U. after    9 cycles
 SCF Done:  E(RB3LYP) =  -738.661435914     A.U. after   13 cycles
 SCF Done:  E(RB3LYP) =  -738.661536890     A.U. after   12 cycles
 SCF Done:  E(RB3LYP) =  -738.661618370     A.U. after   11 cycles
 SCF Done:  E(RB3LYP) =  -738.661633567     A.U. after   11 cycles
 SCF Done:  E(RB3LYP) =  -738.661635065     A.U. after    9 cycles
 SCF Done:  E(RB3LYP) =  -738.661635779     A.U. after    9 cycles
 SCF Done:  E(RB3LYP) =  -738.661635878     A.U. after    8 cycles
 Optimization completed.
    -- Stationary point found.
 Normal termination of Gaussian 16 at Thu Dec 10 09:19:05 2020.

 --------------------------------------------------------------------
 #N Geom=AllCheck Guess=TCheck SCRF=Check GenChk RB3LYP/6-31G(d) Freq
 --------------------------------------------------------------------

 Structure from the checkpoint file:  "JID_4271.chk"
 ------------------------------
 CID_21782560_JID_4271_neutraal
 ------------------------------
 Charge =  0 Multiplicity = 1

 SCF Done:  E(RB3LYP) =  -738.661635878     A.U. after    1 cycles

  Exact polarizability: 166.375   3.483 105.035   0.162   1.154  44.081
 Approx polarizability: 251.825   4.587 206.201   3.750   6.777  69.289

                      1                      2                      3
                      A                      A                      A
 Frequencies --     58.2988                61.2704               128.8038
 Red. masses --     11.6818                12.3254                 3.3198
 Frc consts  --      0.0234                 0.0273                 0.0325
 IR Inten    --      0.1759                 3.9855                 6.9020

                      4                      5                      6
                      A                      A                      A
 Frequencies --    145.1513               184.3598               243.8085
 Red. masses --      7.9139                 9.8961                 5.8188
 Frc consts  --      0.0982                 0.1982                 0.2038
 IR Inten    --      3.5725                 2.5038                 4.6569

                      7                      8                      9
                      A                      A                      A
 Frequencies --    309.0247               347.5754               360.9745
 Red. masses --     12.2826                 7.3879                 7.9437
 Frc consts  --      0.6911                 0.5259                 0.6099
 IR Inten    --      0.1187                 0.5065                 1.1402

                     10                     11                     12
                      A                      A                      A
 Frequencies --    434.5834               476.9114               496.8374
 Red. masses --      4.4133                 3.4826                 6.5411
 Frc consts  --      0.4911                 0.4667                 0.9513
 IR Inten    --      4.3534                 9.9213                 4.0633

                     13                     14                     15
                      A                      A                      A
 Frequencies --    520.2947               560.1729               572.5048
 Red. masses --      7.4115                 6.5359                 5.2337
 Frc consts  --      1.1821                 1.2084                 1.0107
 IR Inten    --      2.6107                 4.3269                 1.7495

                     16                     17                     18
                      A                      A                      A
 Frequencies --    594.6712               621.0359               702.7101
 Red. masses --      4.4433                 7.3420                 5.5164
 Frc consts  --      0.9258                 1.6684                 1.6049
 IR Inten    --      6.2680                 4.4767                 1.8525

                     19                     20                     21
                      A                      A                      A
 Frequencies --    726.2872               752.1637               808.6145
 Red. masses --      7.2710                 5.2458                 8.3654
 Frc consts  --      2.2598                 1.7486                 3.2227
 IR Inten    --      4.2240                28.8134                25.9703

                     22                     23                     24
                      A                      A                      A
 Frequencies --    840.0273               854.1557               913.7068
 Red. masses --      2.2160                 2.6932                 4.2884
 Frc consts  --      0.9213                 1.1577                 2.1094
 IR Inten    --     32.8423                29.5837                29.0854

                     25                     26                     27
                      A                      A                      A
 Frequencies --    918.4758               952.2066               966.8846
 Red. masses --      1.5511                 6.3319                 1.2919
 Frc consts  --      0.7710                 3.3826                 0.7116
 IR Inten    --     27.5877                48.9619                 0.0628

                     28                     29                     30
                      A                      A                      A
 Frequencies --   1030.8947              1074.7823              1110.1117
 Red. masses --      2.3193                 2.7624                 2.7389
 Frc consts  --      1.4522                 1.8801                 1.9887
 IR Inten    --     11.0638                59.9967                26.5018

                     31                     32                     33
                      A                      A                      A
 Frequencies --   1151.0095              1203.4748              1241.3146
 Red. masses --      1.4374                 3.8304                 2.5970
 Frc consts  --      1.1220                 3.2687                 2.3577
 IR Inten    --     15.8265               140.0877                57.9914

                     34                     35                     36
                      A                      A                      A
 Frequencies --   1277.7919              1285.5349              1327.5693
 Red. masses --      1.5070                 1.5632                 3.2833
 Frc consts  --      1.4497                 1.5220                 3.4094
 IR Inten    --      5.4902                32.5547               627.8561

                     37                     38                     39
                      A                      A                      A
 Frequencies --   1385.9642              1398.7954              1400.3185
 Red. masses --      4.1607                 3.6487                 2.8313
 Frc consts  --      4.7089                 4.2063                 3.2711
 IR Inten    --      8.7611               204.3673               101.9628

                     40                     41                     42
                      A                      A                      A
 Frequencies --   1478.7143              1506.0001              1540.7912
 Red. masses --      3.5719                 1.1986                 3.1071
 Frc consts  --      4.6017                 1.6016                 4.3460
 IR Inten    --      6.4012                10.2134               178.4326

                     43                     44                     45
                      A                      A                      A
 Frequencies --   1629.9802              1655.5670              1679.5309
 Red. masses --     11.7608                 7.4957                 9.3807
 Frc consts  --     18.4099                12.1047                15.5906
 IR Inten    --    199.3310                45.1615                21.5734

                     46                     47                     48
                      A                      A                      A
 Frequencies --   1893.6152              3027.3243              3183.2439
 Red. masses --     12.6092                 1.0712                 1.0943
 Frc consts  --     26.6392                 5.7843                 6.5333
 IR Inten    --    428.8299                26.1000                 3.5184

                     49                     50                     51
                      A                      A                      A
 Frequencies --   3231.3143              3264.5779              3264.8346
 Red. masses --      1.0913                 1.0930                 1.0918
 Frc consts  --      6.7138                 6.8632                 6.8564
 IR Inten    --      0.4796                 3.5676                 7.6875

 - Thermochemistry -
 -------------------
 Temperature   298.150 Kelvin.  Pressure   1.00000 Atm.
 Atom     1 has atomic number  6 and mass  12.00000

 Molecular mass:   195.01677 amu.
 Principal axes and moments of inertia in atomic units:
                           1         2         3
     Eigenvalues --   835.008154766.353665556.92934
           X            0.99994   0.01055  -0.00307
           Y           -0.01057   0.99993  -0.00585
           Z            0.00301   0.00588   0.99998
 This molecule is an asymmetric top.
 Rotational symmetry number  1.
 Warning -- assumption of classical behavior for rotation
           may cause significant error
 Rotational temperatures (Kelvin)      0.10373     0.01817     0.01559
 Rotational constants (GHZ):           2.16135     0.37864     0.32477
 Zero-point vibrational energy     339706.9 (Joules/Mol)
                                   81.19191 (Kcal/Mol)
 Warning -- explicit consideration of  16 degrees of freedom as
           vibrations may cause significant error
 Vibrational temperatures:     83.88    88.15   185.32   208.84   265.25
          (Kelvin)            350.79   444.62   500.08   519.36   625.27
                              686.17   714.84   748.59   805.96   823.71
                              855.60   893.53  1011.04  1044.97  1082.20
                             1163.42  1208.61  1228.94  1314.62  1321.48
                             1370.01  1391.13  1483.23  1546.37  1597.20
                             1656.05  1731.53  1785.97  1838.46  1849.60
                             1910.08  1994.09  2012.55  2014.75  2127.54
                             2166.80  2216.85  2345.18  2381.99  2416.47
                             2724.49  4355.64  4579.98  4649.14  4697.00
                             4697.37

 Zero-point correction=                           0.129388 (Hartree/Particle)
 Thermal correction to Energy=                    0.139929
 Thermal correction to Enthalpy=                  0.140873
 Thermal correction to Gibbs Free Energy=         0.092100
 Sum of electronic and zero-point Energies=           -738.532248
 Sum of electronic and thermal Energies=              -738.521707
 Sum of electronic and thermal Enthalpies=            -738.520763
 Sum of electronic and thermal Free Energies=         -738.569535

                     E (Thermal)             CV                S
                      KCal/Mol        Cal/Mol-Kelvin    Cal/Mol-Kelvin
 Total                   87.807             40.171            102.650
 Electronic               0.000              0.000              0.000
 Translational            0.889              2.981             41.709
 Rotational               0.889              2.981             31.470
 Vibrational             86.029             34.209             29.471
 Vibration     1          0.596              1.974              4.514
 Vibration     2          0.597              1.973              4.416
 Vibration     3          0.611              1.924              2.964
 Vibration     4          0.617              1.908              2.735
 Vibration     5          0.631              1.861              2.284
 Vibration     6          0.659              1.773              1.775
 Vibration     7          0.698              1.657              1.368
 Vibration     8          0.725              1.580              1.177
 Vibration     9          0.735              1.553              1.118
 Vibration    10          0.795              1.395              0.844
 Vibration    11          0.833              1.301              0.718
 Vibration    12          0.852              1.257              0.666
 Vibration    13          0.875              1.205              0.609
 Vibration    14          0.916              1.117              0.523
 Vibration    15          0.929              1.091              0.499
 Vibration    16          0.952              1.043              0.459

 Optimization completed.
    -- Stationary point found.
 Normal termination of Gaussian 16 at Thu Dec 10 09:23:39 2020.

 ----------------------------------------------------------------------
 # B3LYP/6-311++G(d,p) empiricaldispersion=gd3bj scf=xqc pop=npa geom=c
 heck
 ----------------------------------------------------------------------

 --------------------------------------
 CID_21782560_JID_4271_Energie_neutraal
 --------------------------------------
 Structure from the checkpoint file:  "JID_4271.chk"
 Charge =  0 Multiplicity = 1

 SCF Done:  E(RB3LYP) =  -738.871703127     A.U. after   16 cycles
 Normal termination of Gaussian 16 at Thu Dec 10 09:25:30 2020.

 ----------------------------------------------------------------------
 # B3LYP/6-311++G(d,p) empiricaldispersion=gd3bj scf=xqc pop=npa geom=c
 heck
 ----------------------------------------------------------------------

 ------------------------------------
 CID_21782560_JID_4271_Energie_kation
 ------------------------------------
 Structure from the checkpoint file:  "JID_4271.chk"
 Charge =  1 Multiplicity = 2

 SCF Done:  E(UB3LYP) =  -738.525544834     A.U. after   29 cycles
 Normal termination of Gaussian 16 at Thu Dec 10 09:30:07 2020.
 Gaussian 16:  ES64L-G16RevA.03 25-Dec-2016

 ----------------------------------------------------------------------
 # B3LYP/6-311++G(d,p) empiricaldispersion=gd3bj scf=xqc pop=npa geom=c
 heck
 ----------------------------------------------------------------------

 -----------------------------------
 CID_21782560_JID_4271_Energie_anion
 -----------------------------------
 Structure from the checkpoint file:  "JID_4271.chk"
 Charge = -1 Multiplicity = 2

                         Standard orientation:
 ---------------------------------------------------------------------
 Center     Atomic      Atomic             Coordinates (Angstroms)
 Number     Number       Type             X           Y           Z
 ---------------------------------------------------------------------
      1          6           0       -2.634234   -1.260949    0.405820
      2          6           0       -3.155158    0.114500    0.020120
      3          8           0       -4.315408    0.395873   -0.086245
      4          8           0       -2.194508    1.079627   -0.154532
      5          6           0       -0.860350    0.737091   -0.054733
      6          6           0       -0.460982   -0.604647   -0.116814
      7          8           0       -1.399097   -1.590968   -0.227351
      8          6           0        0.889482   -0.925993   -0.095676
      9          6           0        1.812265    0.113754   -0.008498
     10          6           0        1.431094    1.452094    0.071443
     11          6           0        0.075238    1.761998    0.048486
     12          7           0        3.241998   -0.220787    0.013122
     13          8           0        3.550683   -1.409807   -0.057306
     14          8           0        4.042949    0.709112    0.100623
     15          1           0       -2.521671   -1.296136    1.500097
     16          1           0       -3.363413   -2.008495    0.097511
     17          1           0        1.214742   -1.956493   -0.149062
     18          1           0        2.188435    2.221093    0.143818
     19          1           0       -0.273142    2.787748    0.093390
 ---------------------------------------------------------------------

 SCF Done:  E(UB3LYP) =  -738.920285129     A.U. after   21 cycles

 The electronic state is 2-A.
 Alpha  occ. eigenvalues --  -19.08352 -19.06188 -19.02218 -18.95207 -18.95181
 Alpha  occ. eigenvalues --  -14.33091 -10.21048 -10.15626 -10.12109 -10.11312
 Alpha  occ. eigenvalues --  -10.07143 -10.06185 -10.04903 -10.04859  -1.03306
 Alpha  occ. eigenvalues --   -1.02540  -0.97668  -0.94438  -0.86195  -0.74793
 Alpha  occ. eigenvalues --   -0.67258  -0.65434  -0.61636  -0.57321  -0.52716
 Alpha  occ. eigenvalues --   -0.48533  -0.46969  -0.43265  -0.41171  -0.39835
 Alpha  occ. eigenvalues --   -0.37660  -0.36116  -0.35567  -0.35319  -0.34155
 Alpha  occ. eigenvalues --   -0.32607  -0.31740  -0.30585  -0.30139  -0.29561
 Alpha  occ. eigenvalues --   -0.26389  -0.24735  -0.23500  -0.21947  -0.18619
 Alpha  occ. eigenvalues --   -0.14581  -0.13454  -0.13007  -0.11912  -0.10961
 Alpha  occ. eigenvalues --    0.01817
 Alpha virt. eigenvalues --    0.07114   0.07953   0.09687   0.10393   0.10677
 Alpha virt. eigenvalues --    0.11757   0.12536   0.13523   0.14094   0.14490
 Alpha virt. eigenvalues --    0.16111   0.16648   0.17320   0.17479   0.18776

  Beta  occ. eigenvalues --  -19.08395 -19.06185 -19.02102 -18.94754 -18.94706
  Beta  occ. eigenvalues --  -14.32519 -10.20943 -10.15630 -10.12181 -10.11019
  Beta  occ. eigenvalues --  -10.07027 -10.06237 -10.04793 -10.04690  -1.02445
  Beta  occ. eigenvalues --   -1.02315  -0.97644  -0.94296  -0.85320  -0.74529
  Beta  occ. eigenvalues --   -0.67046  -0.65042  -0.61399  -0.56740  -0.52359
  Beta  occ. eigenvalues --   -0.48156  -0.46864  -0.43095  -0.40948  -0.39607
  Beta  occ. eigenvalues --   -0.37096  -0.35902  -0.35112  -0.33849  -0.32781
  Beta  occ. eigenvalues --   -0.32508  -0.31207  -0.30544  -0.29701  -0.29345
  Beta  occ. eigenvalues --   -0.26165  -0.24476  -0.23372  -0.21386  -0.18510
  Beta  occ. eigenvalues --   -0.12922  -0.12534  -0.11236  -0.10710  -0.10491
  Beta virt. eigenvalues --    0.07293   0.07853   0.09276   0.09700   0.10749
  Beta virt. eigenvalues --    0.11007   0.11832   0.12556   0.13516   0.14312
  Beta virt. eigenvalues --    0.16006   0.16606   0.16738   0.17361   0.17568

 Mulliken charges and spin densities:
               1          2
     1  C   -0.171603  -0.006076
     2  C    0.166973   0.057072
     3  O   -0.336228   0.038437
     4  O   -0.135720  -0.018319
     5  C    0.314936   0.163396
     6  C   -0.011687  -0.047907
     7  O   -0.122136  -0.001271
     8  C   -0.429063   0.183196
     9  C   -0.332816  -0.019448
    10  C    0.055108   0.130314
    11  C   -0.368454  -0.011132
    12  N   -0.242944   0.190466
    13  O   -0.183892   0.174960
    14  O   -0.189037   0.181302
    15  H    0.169267   0.001212
    16  H    0.192555  -0.000622
    17  H    0.241979  -0.010246
    18  H    0.221388  -0.007522
    19  H    0.161371   0.002189
 Sum of Mulliken charges =  -1.00000   1.00000

 Dipole moment (field-independent basis, Debye):
    X=             -7.8582    Y=             -0.2137    Z=              1.0827  Tot=              7.9353
 Quadrupole moment (field-independent basis, Debye-Ang):
   XX=           -159.7392   YY=            -88.8195   ZZ=            -82.3922
   XY=             11.5685   XZ=             -3.5489   YZ=             -1.1500

 Summary of Natural Population Analysis:

                                       Natural Population
                Natural  -----------------------------------------------
    Atom  No    Charge         Core      Valence    Rydberg      Total
 -----------------------------------------------------------------------
      C    1   -0.06095      0.99955     2.05135    0.01005     3.06095
      C    2    0.40446      0.99970     1.57222    0.02363     2.59554
      O    3   -0.28136      0.99986     3.27441    0.00708     4.28136
      O    4   -0.26747      0.99984     3.25795    0.00968     4.26747
      C    5    0.16007      0.99933     1.82822    0.01238     2.83993
      C    6    0.10606      0.99935     1.88101    0.01358     2.89394
      O    7   -0.27606      0.99986     3.26577    0.01044     4.27606
      C    8   -0.07907      0.99950     2.06962    0.00995     3.07907
      C    9    0.06258      0.99941     1.92680    0.01121     2.93742
      C   10   -0.08002      0.99954     2.07080    0.00968     3.08002
      C   11   -0.13206      0.99955     2.12379    0.00873     3.13206
      N   12    0.29882      0.99972     2.17397    0.02748     3.20118
      O   13   -0.19514      0.99990     3.18731    0.00794     4.19514
      O   14   -0.19205      0.99990     3.18424    0.00791     4.19205
      H   15    0.09290      0.00000     0.40565    0.00145     0.40710
      H   16    0.10268      0.00000     0.39629    0.00103     0.39732
      H   17    0.11982      0.00000     0.37887    0.00130     0.38018
      H   18    0.11489      0.00000     0.38385    0.00126     0.38511
      H   19    0.10190      0.00000     0.39713    0.00097     0.39810
 =======================================================================
   * Total *    0.00000     13.99500    35.82924    0.17576    50.00000

 Normal termination of Gaussian 16 at Thu Dec 10 09:33:29 2020.
