 Gaussian 16, Revision A.03,

 -----------------------------------------------------------
 # opt freq B3LYP/6-31G(d) empiricaldispersion=gd3bj scf=xqc
 -----------------------------------------------------------

 -------------------------------
 CID_149321162_JID_2045_neutraal
 -------------------------------
 Symbolic Z-matrix:
 Charge =  0 Multiplicity = 1

 SCF Done:  E(RB3LYP) =  -857.891777127     A.U. after   15 cycles
 SCF Done:  E(RB3LYP) =  -857.898759992     A.U. after   12 cycles
 SCF Done:  E(RB3LYP) =  -857.900436487     A.U. after   12 cycles
 SCF Done:  E(RB3LYP) =  -857.901531292     A.U. after   12 cycles
 SCF Done:  E(RB3LYP) =  -857.901825475     A.U. after   11 cycles
 SCF Done:  E(RB3LYP) =  -857.901908580     A.U. after   11 cycles
 SCF Done:  E(RB3LYP) =  -857.901944091     A.U. after   10 cycles
 SCF Done:  E(RB3LYP) =  -857.901949826     A.U. after    9 cycles
 SCF Done:  E(RB3LYP) =  -857.901951495     A.U. after    8 cycles
 SCF Done:  E(RB3LYP) =  -857.901951857     A.U. after    7 cycles
 SCF Done:  E(RB3LYP) =  -857.901952181     A.U. after    8 cycles
 Optimization completed.
    -- Stationary point found.
 Normal termination of Gaussian 16 at Wed Dec  9 16:46:01 2020.

 --------------------------------------------------------------------
 #N Geom=AllCheck Guess=TCheck SCRF=Check GenChk RB3LYP/6-31G(d) Freq
 --------------------------------------------------------------------

 Structure from the checkpoint file:  "JID_2045.chk"
 -------------------------------
 CID_149321162_JID_2045_neutraal
 -------------------------------
 Charge =  0 Multiplicity = 1

 SCF Done:  E(RB3LYP) =  -857.901952181     A.U. after    1 cycles

  Exact polarizability: 171.011   0.880 119.235  -2.384   4.002  73.024
 Approx polarizability: 256.181   3.336 205.559  -5.685  13.352 112.598

                      1                      2                      3
                      A                      A                      A
 Frequencies --     81.2450               101.1038               198.5760
 Red. masses --      3.5056                 4.8851                 2.6388
 Frc consts  --      0.0136                 0.0294                 0.0613
 IR Inten    --      0.0532                 1.3459                 1.6182

                      4                      5                      6
                      A                      A                      A
 Frequencies --    218.5256               242.0607               254.5007
 Red. masses --      1.1264                 1.7305                 1.5538
 Frc consts  --      0.0317                 0.0597                 0.0593
 IR Inten    --      0.0879                 1.1146                 1.0449

                      7                      8                      9
                      A                      A                      A
 Frequencies --    266.7578               288.7779               308.3447
 Red. masses --      2.8005                 1.2205                 2.2732
 Frc consts  --      0.1174                 0.0600                 0.1273
 IR Inten    --      1.0130                 0.7325                 1.5993

                     10                     11                     12
                      A                      A                      A
 Frequencies --    330.2515               364.5852               383.5345
 Red. masses --      2.5714                 3.3232                 2.9352
 Frc consts  --      0.1652                 0.2603                 0.2544
 IR Inten    --      4.0946                 9.7312                10.5835

                     13                     14                     15
                      A                      A                      A
 Frequencies --    427.5417               470.3031               496.5290
 Red. masses --      3.9501                 3.5237                 4.9156
 Frc consts  --      0.4254                 0.4592                 0.7140
 IR Inten    --      4.1480                11.1829                 1.7777

                     16                     17                     18
                      A                      A                      A
 Frequencies --    523.3754               539.4006               592.2541
 Red. masses --      3.3942                 2.4363                 2.5228
 Frc consts  --      0.5478                 0.4176                 0.5214
 IR Inten    --      5.7517               106.1297                 8.6420

                     19                     20                     21
                      A                      A                      A
 Frequencies --    620.9836               634.7555               657.1314
 Red. masses --      3.7768                 1.9124                 4.8150
 Frc consts  --      0.8581                 0.4540                 1.2250
 IR Inten    --     11.9455                24.9700                 7.4093

                     22                     23                     24
                      A                      A                      A
 Frequencies --    709.5405               723.2155               791.2017
 Red. masses --      4.1204                 4.2106                 5.2465
 Frc consts  --      1.2222                 1.2976                 1.9351
 IR Inten    --      3.9943                 9.8391                 1.7206

                     25                     26                     27
                      A                      A                      A
 Frequencies --    842.1876               883.5514               900.2986
 Red. masses --      4.1865                 1.2886                 2.2049
 Frc consts  --      1.7495                 0.5927                 1.0530
 IR Inten    --     15.8960                 3.3805                 5.4359

                     28                     29                     30
                      A                      A                      A
 Frequencies --    944.8820               971.4984              1021.0867
 Red. masses --      1.5960                 2.0080                 1.4817
 Frc consts  --      0.8395                 1.1166                 0.9102
 IR Inten    --      4.0678                 5.2541                 7.9055

                     31                     32                     33
                      A                      A                      A
 Frequencies --   1029.4356              1052.3319              1067.6695
 Red. masses --      1.5666                 2.1348                 1.7004
 Frc consts  --      0.9781                 1.3929                 1.1420
 IR Inten    --      6.3121                 1.4146                 1.9211

                     34                     35                     36
                      A                      A                      A
 Frequencies --   1112.6734              1172.4133              1202.5799
 Red. masses --      1.2545                 2.7537                 2.7337
 Frc consts  --      0.9151                 2.2301                 2.3293
 IR Inten    --     12.4785                16.7266                25.0008

                     37                     38                     39
                      A                      A                      A
 Frequencies --   1245.2299              1253.6427              1283.4203
 Red. masses --      2.9643                 1.7775                 2.8133
 Frc consts  --      2.7081                 1.6459                 2.7302
 IR Inten    --     19.4247                 2.1583                10.7008

                     40                     41                     42
                      A                      A                      A
 Frequencies --   1319.1610              1419.5334              1422.4796
 Red. masses --      4.3136                 1.2729                 1.5960
 Frc consts  --      4.4227                 1.5113                 1.9027
 IR Inten    --     24.7924                 8.0010                 5.4765

                     43                     44                     45
                      A                      A                      A
 Frequencies --   1443.5836              1445.7034              1482.3235
 Red. masses --      1.4556                 1.9104                 1.7201
 Frc consts  --      1.7872                 2.3525                 2.2268
 IR Inten    --     29.0642                 2.4228                33.6907

                     46                     47                     48
                      A                      A                      A
 Frequencies --   1500.9303              1506.7093              1514.4038
 Red. masses --      1.0923                 1.0503                 1.0496
 Frc consts  --      1.4498                 1.4048                 1.4182
 IR Inten    --      7.1972                 8.0339                 1.9044

                     49                     50                     51
                      A                      A                      A
 Frequencies --   1516.2086              1527.9578              1533.5760
 Red. masses --      1.1351                 2.8552                 1.0769
 Frc consts  --      1.5375                 3.9274                 1.4922
 IR Inten    --     13.6041                62.3038                 1.6320

                     52                     53                     54
                      A                      A                      A
 Frequencies --   1542.6652              1579.6035              1681.9517
 Red. masses --      1.3214                 4.7935                 8.5805
 Frc consts  --      1.8528                 7.0468                14.3018
 IR Inten    --     31.8875                15.2632                 9.6764

                     55                     56                     57
                      A                      A                      A
 Frequencies --   3036.4011              3044.4779              3052.7538
 Red. masses --      1.0410                 1.0379                 1.0409
 Frc consts  --      5.6547                 5.6679                 5.7153
 IR Inten    --     25.7408                14.9539                35.2785

                     58                     59                     60
                      A                      A                      A
 Frequencies --   3084.6378              3112.2459              3120.3977
 Red. masses --      1.0979                 1.0991                 1.0958
 Frc consts  --      6.1549                 6.2724                 6.2862
 IR Inten    --     16.5310                11.2255                31.4827

                     61                     62                     63
                      A                      A                      A
 Frequencies --   3137.7766              3149.8642              3160.7373
 Red. masses --      1.1023                 1.1033                 1.0987
 Frc consts  --      6.3945                 6.4497                 6.4670
 IR Inten    --     14.2245                19.5222                 9.2871

                     64                     65                     66
                      A                      A                      A
 Frequencies --   3232.5188              3282.7057              3569.6596
 Red. masses --      1.0913                 1.0971                 1.0758
 Frc consts  --      6.7187                 6.9658                 8.0769
 IR Inten    --      5.1584                 1.0038                10.8450

 - Thermochemistry -
 -------------------
 Temperature   298.150 Kelvin.  Pressure   1.00000 Atm.
 Atom     1 has atomic number  6 and mass  12.00000

 Molecular mass:   180.07212 amu.
 Principal axes and moments of inertia in atomic units:
                           1         2         3
     Eigenvalues --  1087.878372861.355843516.52604
           X            0.99978  -0.02101  -0.00270
           Y            0.02099   0.99974  -0.00868
           Z            0.00288   0.00863   0.99996
 This molecule is an asymmetric top.
 Rotational symmetry number  1.
 Warning -- assumption of classical behavior for rotation
           may cause significant error
 Rotational temperatures (Kelvin)      0.07962     0.03027     0.02463
 Rotational constants (GHZ):           1.65895     0.63073     0.51322
 Zero-point vibrational energy     518152.7 (Joules/Mol)
                                  123.84146 (Kcal/Mol)
 Warning -- explicit consideration of  18 degrees of freedom as
           vibrations may cause significant error
 Vibrational temperatures:    116.89   145.47   285.71   314.41   348.27
          (Kelvin)            366.17   383.81   415.49   443.64   475.16
                              524.56   551.82   615.14   676.66   714.39
                              753.02   776.08   852.12   893.46   913.27
                              945.47  1020.87  1040.55  1138.36  1211.72
                             1271.23  1295.33  1359.47  1397.77  1469.12
                             1481.13  1514.07  1536.14  1600.89  1686.84
                             1730.24  1791.61  1803.71  1846.56  1897.98
                             2042.39  2046.63  2076.99  2080.04  2132.73
                             2159.50  2167.82  2178.89  2181.49  2198.39
                             2206.47  2219.55  2272.70  2419.95  4368.70
                             4380.32  4392.23  4438.11  4477.83  4489.56
                             4514.56  4531.95  4547.60  4650.87  4723.08
                             5135.94

 Zero-point correction=                           0.197354 (Hartree/Particle)
 Thermal correction to Energy=                    0.208734
 Thermal correction to Enthalpy=                  0.209678
 Thermal correction to Gibbs Free Energy=         0.161076
 Sum of electronic and zero-point Energies=           -857.704598
 Sum of electronic and thermal Energies=              -857.693218
 Sum of electronic and thermal Enthalpies=            -857.692274
 Sum of electronic and thermal Free Energies=         -857.740876

                     E (Thermal)             CV                S
                      KCal/Mol        Cal/Mol-Kelvin    Cal/Mol-Kelvin
 Total                  130.983             45.500            102.292
 Electronic               0.000              0.000              0.000
 Translational            0.889              2.981             41.471
 Rotational               0.889              2.981             30.771
 Vibrational            129.205             39.539             30.050
 Vibration     1          0.600              1.962              3.861
 Vibration     2          0.604              1.948              3.433
 Vibration     3          0.637              1.842              2.146
 Vibration     4          0.646              1.813              1.971
 Vibration     5          0.658              1.776              1.788
 Vibration     6          0.665              1.755              1.699
 Vibration     7          0.672              1.734              1.617
 Vibration     8          0.685              1.695              1.481
 Vibration     9          0.698              1.658              1.371
 Vibration    10          0.713              1.615              1.259
 Vibration    11          0.738              1.545              1.102
 Vibration    12          0.753              1.505              1.025
 Vibration    13          0.789              1.410              0.867
 Vibration    14          0.827              1.316              0.737
 Vibration    15          0.852              1.258              0.667
 Vibration    16          0.878              1.198              0.602
 Vibration    17          0.894              1.163              0.567
 Vibration    18          0.950              1.048              0.463

 Optimization completed.
    -- Stationary point found.
 Normal termination of Gaussian 16 at Wed Dec  9 16:51:38 2020.

 ----------------------------------------------------------------------
 # B3LYP/6-311++G(d,p) empiricaldispersion=gd3bj scf=xqc pop=npa geom=c
 heck
 ----------------------------------------------------------------------

 ---------------------------------------
 CID_149321162_JID_2045_Energie_neutraal
 ---------------------------------------
 Structure from the checkpoint file:  "JID_2045.chk"
 Charge =  0 Multiplicity = 1

 SCF Done:  E(RB3LYP) =  -858.053146589     A.U. after   16 cycles
 Normal termination of Gaussian 16 at Wed Dec  9 16:53:48 2020.

 ----------------------------------------------------------------------
 # B3LYP/6-311++G(d,p) empiricaldispersion=gd3bj scf=xqc pop=npa geom=c
 heck
 ----------------------------------------------------------------------

 -------------------------------------
 CID_149321162_JID_2045_Energie_kation
 -------------------------------------
 Structure from the checkpoint file:  "JID_2045.chk"
 Charge =  1 Multiplicity = 2

 SCF Done:  E(UB3LYP) =  -857.796361957     A.U. after   21 cycles
 Normal termination of Gaussian 16 at Wed Dec  9 16:57:39 2020.
 Gaussian 16:  ES64L-G16RevA.03 25-Dec-2016

 ----------------------------------------------------------------------
 # B3LYP/6-311++G(d,p) empiricaldispersion=gd3bj scf=xqc pop=npa geom=c
 heck
 ----------------------------------------------------------------------

 ------------------------------------
 CID_149321162_JID_2045_Energie_anion
 ------------------------------------
 Structure from the checkpoint file:  "JID_2045.chk"
 Charge = -1 Multiplicity = 2

                         Standard orientation:
 ---------------------------------------------------------------------
 Center     Atomic      Atomic             Coordinates (Angstroms)
 Number     Number       Type             X           Y           Z
 ---------------------------------------------------------------------
      1          6           0        2.810915    1.610192   -0.280464
      2          6           0        1.493371    0.904371   -0.130992
      3          7           0        0.415996    1.607840   -0.102850
      4          6           0       -0.800898    0.931203   -0.005409
      5          6           0       -0.876774   -0.428550   -0.231160
      6          7           0        0.259538   -1.151134   -0.531043
      7          6           0        1.498548   -0.628912    0.084794
      8          6           0        2.670194   -1.327139   -0.610808
      9          6           0        1.531241   -0.897945    1.604891
     10         16           0       -2.516257   -1.008969   -0.189836
     11          6           0       -3.105726    0.618525    0.142619
     12          6           0       -2.088919    1.521807    0.204764
     13          1           0        3.320595    1.320762   -1.208093
     14          1           0        3.494585    1.367695    0.544448
     15          1           0        2.638223    2.687859   -0.294097
     16          1           0        0.178842   -2.160665   -0.494507
     17          1           0        3.628537   -1.011389   -0.190278
     18          1           0        2.592267   -2.412619   -0.471174
     19          1           0        2.665392   -1.119640   -1.684743
     20          1           0        0.656102   -0.453484    2.088016
     21          1           0        1.528077   -1.977594    1.801128
     22          1           0        2.431816   -0.471876    2.060016
     23          1           0       -4.167464    0.775563    0.264130
     24          1           0       -2.227315    2.580649    0.390375
 ---------------------------------------------------------------------

 SCF Done:  E(UB3LYP) =  -858.041294695     A.U. after   33 cycles
 SCF Done:  E(UB3LYP) =  -858.041294695     a.u. after    1 cycles

 The electronic state is 2-A.
 Alpha  occ. eigenvalues --  -88.76873 -14.22016 -14.19163 -10.11731 -10.11489
 Alpha  occ. eigenvalues --  -10.10021 -10.08652 -10.07741 -10.07087 -10.05645
 Alpha  occ. eigenvalues --  -10.05041 -10.04900  -7.85454  -5.81762  -5.81412
 Alpha  occ. eigenvalues --   -5.81004  -0.86092  -0.79626  -0.75926  -0.68051
 Alpha  occ. eigenvalues --   -0.63827  -0.60678  -0.58454  -0.58198  -0.51507
 Alpha  occ. eigenvalues --   -0.47804  -0.46574  -0.42514  -0.38696  -0.36030
 Alpha  occ. eigenvalues --   -0.34304  -0.33940  -0.33259  -0.31040  -0.30352
 Alpha  occ. eigenvalues --   -0.29177  -0.28342  -0.27672  -0.27096  -0.26259
 Alpha  occ. eigenvalues --   -0.25655  -0.24552  -0.24223  -0.21577  -0.19197
 Alpha  occ. eigenvalues --   -0.14534  -0.13222  -0.07981   0.04862
 Alpha virt. eigenvalues --    0.07586   0.07730   0.07865   0.09284   0.09329
 Alpha virt. eigenvalues --    0.10234   0.10343   0.11174   0.11643   0.12240
 Alpha virt. eigenvalues --    0.12544   0.13157   0.13758   0.14239   0.15198

  Beta  occ. eigenvalues --  -88.76867 -14.21938 -14.19124 -10.11635 -10.11483
  Beta  occ. eigenvalues --  -10.09936 -10.08636 -10.07755 -10.07087 -10.05622
  Beta  occ. eigenvalues --  -10.04987 -10.04864  -7.85447  -5.81756  -5.81409
  Beta  occ. eigenvalues --   -5.80990  -0.85988  -0.79514  -0.75862  -0.67974
  Beta  occ. eigenvalues --   -0.63763  -0.60614  -0.58359  -0.58109  -0.51374
  Beta  occ. eigenvalues --   -0.47695  -0.46508  -0.42451  -0.38593  -0.35924
  Beta  occ. eigenvalues --   -0.34227  -0.33812  -0.33173  -0.30925  -0.30285
  Beta  occ. eigenvalues --   -0.29117  -0.28230  -0.27605  -0.27039  -0.26177
  Beta  occ. eigenvalues --   -0.25587  -0.24486  -0.24157  -0.21351  -0.19036
  Beta  occ. eigenvalues --   -0.14452  -0.13127  -0.07744
  Beta virt. eigenvalues --    0.07618   0.07819   0.08402   0.08961   0.09581
  Beta virt. eigenvalues --    0.09885   0.10523   0.10705   0.11650   0.12328
  Beta virt. eigenvalues --    0.12580   0.12872   0.13280   0.14218   0.14256

 Mulliken charges and spin densities:
               1          2
     1  C    0.974468  -1.425645
     2  C   -0.884962   0.602337
     3  N   -0.054635   0.086796
     4  C    0.901945  -1.325579
     5  C   -0.956212   0.832747
     6  N    0.016253   0.162721
     7  C   -1.139661   1.387989
     8  C    1.457953  -1.833630
     9  C    0.713042  -1.330203
    10  S   -0.685338   0.336128
    11  C   -0.353663  -0.116141
    12  C    0.881524  -0.329291
    13  H   -0.105803   0.270581
    14  H   -0.351437   0.523889
    15  H    0.195406  -0.046129
    16  H   -0.206843   0.481122
    17  H   -0.265379   0.422764
    18  H   -0.869957   1.036120
    19  H   -0.074714   0.235217
    20  H   -0.042867   0.198755
    21  H   -0.269792   0.438574
    22  H   -0.228369   0.380765
    23  H    0.215316  -0.003542
    24  H    0.133725   0.013656
 Sum of Mulliken charges =  -1.00000   1.00000

 Dipole moment (field-independent basis, Debye):
    X=             -6.8216    Y=              4.2082    Z=             -0.7642  Tot=              8.0515
 Quadrupole moment (field-independent basis, Debye-Ang):
   XX=           -131.5663   YY=           -124.6476   ZZ=           -106.3076
   XY=              6.5077   XZ=             -5.4345   YZ=              0.0394

 Summary of Natural Population Analysis:

                                       Natural Population
                Natural  -----------------------------------------------
    Atom  No    Charge         Core      Valence    Rydberg      Total
 -----------------------------------------------------------------------
      C    1   -0.30869      0.99962     2.30257    0.00651     3.30869
      C    2    0.16370      0.99955     1.81928    0.01747     2.83630
      N    3   -0.23524      0.99963     2.72480    0.01081     3.73524
      C    4   -0.00441      0.99935     1.98977    0.01528     3.00441
      C    5    0.02794      0.99939     1.95656    0.01611     2.97206
      N    6   -0.31478      0.99964     2.80012    0.01502     3.81478
      C    7    0.03994      0.99953     1.94526    0.01527     2.96006
      C    8   -0.28845      0.99962     2.28079    0.00804     3.28845
      C    9   -0.29282      0.99961     2.28645    0.00676     3.29282
      S   10    0.18479      4.99944     2.79358    0.02219     7.81521
      C   11   -0.21161      0.99954     2.20214    0.00994     3.21161
      C   12   -0.11213      0.99950     2.10330    0.00932     3.11213
      H   13    0.10494      0.00000     0.39407    0.00099     0.39506
      H   14    0.10818      0.00000     0.38974    0.00207     0.39182
      H   15    0.10771      0.00000     0.39098    0.00131     0.39229
      H   16    0.19511      0.00000     0.29872    0.00618     0.30489
      H   17    0.10639      0.00000     0.39154    0.00207     0.39361
      H   18    0.10618      0.00000     0.39038    0.00345     0.39382
      H   19    0.10312      0.00000     0.39542    0.00146     0.39688
      H   20    0.10342      0.00000     0.39509    0.00149     0.39658
      H   21    0.10272      0.00000     0.39587    0.00141     0.39728
      H   22    0.10491      0.00000     0.39344    0.00166     0.39509
      H   23    0.10347      0.00000     0.39576    0.00078     0.39653
      H   24    0.10563      0.00000     0.39336    0.00101     0.39437
 =======================================================================
   * Total *    0.00000     15.99442    31.82898    0.17660    48.00000

 Normal termination of Gaussian 16 at Wed Dec  9 17:03:35 2020.
