 Gaussian 16, Revision A.03,

 -----------------------------------------------------------
 # opt freq B3LYP/6-31G(d) empiricaldispersion=gd3bj scf=xqc
 -----------------------------------------------------------

 ------------------------------
 CID_63002022_JID_6078_neutraal
 ------------------------------
 Symbolic Z-matrix:
 Charge =  0 Multiplicity = 1

 SCF Done:  E(RB3LYP) =  -1028.79158690     A.U. after   14 cycles
 SCF Done:  E(RB3LYP) =  -1028.79535967     A.U. after   12 cycles
 SCF Done:  E(RB3LYP) =  -1028.79598716     A.U. after   12 cycles
 SCF Done:  E(RB3LYP) =  -1028.79639454     A.U. after   12 cycles
 SCF Done:  E(RB3LYP) =  -1028.79665074     A.U. after   12 cycles
 SCF Done:  E(RB3LYP) =  -1028.79690079     A.U. after   12 cycles
 SCF Done:  E(RB3LYP) =  -1028.79679465     A.U. after   12 cycles
 SCF Done:  E(RB3LYP) =  -1028.79733472     A.U. after   13 cycles
 SCF Done:  E(RB3LYP) =  -1028.79745488     A.U. after   10 cycles
 SCF Done:  E(RB3LYP) =  -1028.79750785     A.U. after   11 cycles
 SCF Done:  E(RB3LYP) =  -1028.79754555     A.U. after    9 cycles
 SCF Done:  E(RB3LYP) =  -1028.79754776     A.U. after    9 cycles
 SCF Done:  E(RB3LYP) =  -1028.79754811     A.U. after    9 cycles
 SCF Done:  E(RB3LYP) =  -1028.79754815     A.U. after    8 cycles
 SCF Done:  E(RB3LYP) =  -1028.79754818     A.U. after    7 cycles
 Optimization completed.
    -- Stationary point found.
 Normal termination of Gaussian 16 at Thu Dec 10 21:11:28 2020.

 --------------------------------------------------------------------
 #N Geom=AllCheck Guess=TCheck SCRF=Check GenChk RB3LYP/6-31G(d) Freq
 --------------------------------------------------------------------

 Structure from the checkpoint file:  "JID_6078.chk"
 ------------------------------
 CID_63002022_JID_6078_neutraal
 ------------------------------
 Charge =  0 Multiplicity = 1

 SCF Done:  E(RB3LYP) =  -1028.79754818     A.U. after    1 cycles

  Exact polarizability: 217.956   0.782 151.220 -11.335  -5.568 109.765
 Approx polarizability: 277.819  10.193 257.698 -25.327 -18.763 183.798

                      1                      2                      3
                      A                      A                      A
 Frequencies --     19.9929                23.1674                34.2709
 Red. masses --      3.8713                 5.2859                 3.5312
 Frc consts  --      0.0009                 0.0017                 0.0024
 IR Inten    --      1.6372                 2.3393                 3.3481

                      4                      5                      6
                      A                      A                      A
 Frequencies --     40.4928                58.2078                89.9833
 Red. masses --      3.9269                 5.5923                 5.4212
 Frc consts  --      0.0038                 0.0112                 0.0259
 IR Inten    --      2.7227                 0.8716                 2.0369

                      7                      8                      9
                      A                      A                      A
 Frequencies --    152.5388               180.7307               188.8065
 Red. masses --      3.3859                 3.6080                 3.3488
 Frc consts  --      0.0464                 0.0694                 0.0703
 IR Inten    --      0.4597                 4.3798                 1.0472

                     10                     11                     12
                      A                      A                      A
 Frequencies --    228.4447               240.8069               309.4204
 Red. masses --      4.1022                 1.1960                 3.4141
 Frc consts  --      0.1261                 0.0409                 0.1926
 IR Inten    --      1.2667                 0.0533                 0.1825

                     13                     14                     15
                      A                      A                      A
 Frequencies --    335.4516               347.0225               371.0273
 Red. masses --      2.6696                 3.7289                 3.4233
 Frc consts  --      0.1770                 0.2646                 0.2777
 IR Inten    --      0.5575                 0.1676                 9.8251

                     16                     17                     18
                      A                      A                      A
 Frequencies --    416.2645               423.9458               476.8943
 Red. masses --      3.1006                 4.3626                 3.1239
 Frc consts  --      0.3165                 0.4620                 0.4186
 IR Inten    --      1.4128                 7.5887                16.1683

                     19                     20                     21
                      A                      A                      A
 Frequencies --    508.6223               529.0193               649.7656
 Red. masses --      1.7279                 2.6964                 3.5062
 Frc consts  --      0.2634                 0.4446                 0.8722
 IR Inten    --     59.9210                17.2116                 4.9602

                     22                     23                     24
                      A                      A                      A
 Frequencies --    652.9138               672.8726               681.8348
 Red. masses --      6.0295                 4.3375                 3.0934
 Frc consts  --      1.5144                 1.1571                 0.8473
 IR Inten    --      1.9611                 1.7355                 1.5884

                     25                     26                     27
                      A                      A                      A
 Frequencies --    722.9475               727.8248               733.0688
 Red. masses --      3.7324                 2.6194                 5.2594
 Frc consts  --      1.1493                 0.8175                 1.6652
 IR Inten    --     14.7089                22.7674                 6.9080

                     28                     29                     30
                      A                      A                      A
 Frequencies --    791.8765               808.5015               823.5609
 Red. masses --      1.3551                 1.6178                 1.7496
 Frc consts  --      0.5007                 0.6231                 0.6992
 IR Inten    --     24.2192                72.0017                50.7653

                     31                     32                     33
                      A                      A                      A
 Frequencies --    843.3812               847.9560               852.4284
 Red. masses --      1.5280                 1.5039                 1.9920
 Frc consts  --      0.6403                 0.6371                 0.8528
 IR Inten    --      0.7180                17.6058                21.8845

                     34                     35                     36
                      A                      A                      A
 Frequencies --    923.4186               938.8428               950.8242
 Red. masses --      2.2457                 5.8417                 1.3109
 Frc consts  --      1.1282                 3.0337                 0.6982
 IR Inten    --      3.7634                 9.1132                 1.5782

                     37                     38                     39
                      A                      A                      A
 Frequencies --    973.8467               991.5448               993.2386
 Red. masses --      1.3064                 1.2035                 1.8161
 Frc consts  --      0.7300                 0.6971                 1.0556
 IR Inten    --      3.4929                 6.3283                23.2626

                     40                     41                     42
                      A                      A                      A
 Frequencies --   1005.4678              1026.9028              1040.9240
 Red. masses --      1.4272                 3.2404                 3.1792
 Frc consts  --      0.8501                 2.0133                 2.0296
 IR Inten    --      1.5936                 2.5997                14.0465

                     43                     44                     45
                      A                      A                      A
 Frequencies --   1093.2443              1115.2942              1118.8350
 Red. masses --      1.8789                 3.8953                 1.6026
 Frc consts  --      1.3231                 2.8547                 1.1820
 IR Inten    --     13.7516                29.2366                12.6671

                     46                     47                     48
                      A                      A                      A
 Frequencies --   1127.6876              1154.1970              1155.0275
 Red. masses --      4.2852                 2.2077                 1.3778
 Frc consts  --      3.2107                 1.7328                 1.0830
 IR Inten    --     80.5479                15.1982                 4.9234

                     49                     50                     51
                      A                      A                      A
 Frequencies --   1217.9743              1221.7785              1248.4737
 Red. masses --      1.2596                 1.1821                 2.4409
 Frc consts  --      1.1009                 1.0397                 2.2417
 IR Inten    --      5.8057                 2.6870                 0.9065

                     52                     53                     54
                      A                      A                      A
 Frequencies --   1264.0969              1286.7933              1311.4217
 Red. masses --      2.2055                 1.5397                 1.5054
 Frc consts  --      2.0765                 1.5021                 1.5254
 IR Inten    --     12.2858                 2.0494                 2.8602

                     55                     56                     57
                      A                      A                      A
 Frequencies --   1337.9408              1356.1674              1381.4444
 Red. masses --      2.2711                 1.7653                 1.3668
 Frc consts  --      2.3953                 1.9129                 1.5368
 IR Inten    --      1.9586                 9.0310                18.0082

                     58                     59                     60
                      A                      A                      A
 Frequencies --   1388.8803              1399.5282              1416.3349
 Red. masses --      1.1878                 2.6796                 1.5287
 Frc consts  --      1.3500                 3.0923                 1.8068
 IR Inten    --      1.1375                24.7048                19.4676

                     61                     62                     63
                      A                      A                      A
 Frequencies --   1443.7873              1456.6580              1492.2036
 Red. masses --      2.8046                 2.4129                 1.1040
 Frc consts  --      3.4445                 3.0165                 1.4483
 IR Inten    --     16.9748                10.9214                 1.2115

                     64                     65                     66
                      A                      A                      A
 Frequencies --   1499.4969              1509.2670              1515.9800
 Red. masses --      1.0517                 1.6331                 2.0758
 Frc consts  --      1.3932                 2.1917                 2.8107
 IR Inten    --      8.9285                38.4244                32.5618

                     67                     68                     69
                      A                      A                      A
 Frequencies --   1518.3058              1543.0480              1550.3251
 Red. masses --      1.0635                 1.3050                 1.6703
 Frc consts  --      1.4444                 1.8307                 2.3653
 IR Inten    --     27.0551                26.7057                23.7676

                     70                     71                     72
                      A                      A                      A
 Frequencies --   1618.4759              1622.8301              1666.4251
 Red. masses --      4.3033                 6.0893                 5.6413
 Frc consts  --      6.6414                 9.4486                 9.2300
 IR Inten    --      6.3780                 2.3963                20.0213

                     73                     74                     75
                      A                      A                      A
 Frequencies --   2984.9617              3026.3186              3043.3499
 Red. masses --      1.0652                 1.0951                 1.0642
 Frc consts  --      5.5918                 5.9093                 5.8076
 IR Inten    --     35.1797                31.7980                49.2259

                     76                     77                     78
                      A                      A                      A
 Frequencies --   3064.4237              3096.1625              3146.9918
 Red. masses --      1.0302                 1.1003                 1.1081
 Frc consts  --      5.6999                 6.2146                 6.4660
 IR Inten    --     21.0758                16.4472                 9.8819

                     79                     80                     81
                      A                      A                      A
 Frequencies --   3160.6014              3179.8869              3186.1684
 Red. masses --      1.1038                 1.0890                 1.0885
 Frc consts  --      6.4965                 6.4879                 6.5106
 IR Inten    --      5.6171                16.2579                 5.1185

                     82                     83                     84
                      A                      A                      A
 Frequencies --   3212.2189              3224.6803              3255.5118
 Red. masses --      1.0928                 1.0907                 1.0958
 Frc consts  --      6.6438                 6.6822                 6.8427
 IR Inten    --      8.7531                 9.8222                 8.8700

                     85                     86                     87
                      A                      A                      A
 Frequencies --   3265.6757              3475.5588              3640.1262
 Red. masses --      1.0976                 1.0740                 1.0806
 Frc consts  --      6.8967                 7.6438                 8.4359
 IR Inten    --      2.2920                 1.0324                33.7580

 - Thermochemistry -
 -------------------
 Temperature   298.150 Kelvin.  Pressure   1.00000 Atm.
 Atom     1 has atomic number  6 and mass  12.00000

 Molecular mass:   233.09867 amu.
 Principal axes and moments of inertia in atomic units:
                           1         2         3
     Eigenvalues --  1329.56894********************
           X            0.99993  -0.01188   0.00207
           Y            0.01188   0.99993   0.00245
           Z           -0.00210  -0.00243   0.99999
 This molecule is an asymmetric top.
 Rotational symmetry number  1.
 Warning -- assumption of classical behavior for rotation
           may cause significant error
 Rotational temperatures (Kelvin)      0.06514     0.00751     0.00708
 Rotational constants (GHZ):           1.35739     0.15655     0.14750
 Zero-point vibrational energy     673638.8 (Joules/Mol)
                                  161.00354 (Kcal/Mol)
 Warning -- explicit consideration of  20 degrees of freedom as
           vibrations may cause significant error
 Vibrational temperatures:     28.77    33.33    49.31    58.26    83.75
          (Kelvin)            129.47   219.47   260.03   271.65   328.68
                              346.47   445.19   482.64   499.29   533.83
                              598.91   609.96   686.14   731.79   761.14
                              934.87   939.40   968.11   981.01  1040.16
                             1047.18  1054.72  1139.33  1163.25  1184.92
                             1213.44  1220.02  1226.45  1328.59  1350.79
                             1368.02  1401.15  1426.61  1429.05  1446.64
                             1477.48  1497.66  1572.93  1604.66  1609.75
                             1622.49  1660.63  1661.83  1752.39  1757.87
                             1796.28  1818.75  1851.41  1886.84  1925.00
                             1951.22  1987.59  1998.29  2013.61  2037.79
                             2077.29  2095.81  2146.95  2157.44  2171.50
                             2181.16  2184.50  2220.10  2230.57  2328.63
                             2334.89  2397.61  4294.69  4354.20  4378.70
                             4409.02  4454.69  4527.82  4547.40  4575.15
                             4584.19  4621.67  4639.60  4683.96  4698.58
                             5000.55  5237.33

 Zero-point correction=                           0.256575 (Hartree/Particle)
 Thermal correction to Energy=                    0.271971
 Thermal correction to Enthalpy=                  0.272915
 Thermal correction to Gibbs Free Energy=         0.210056
 Sum of electronic and zero-point Energies=          -1028.540973
 Sum of electronic and thermal Energies=             -1028.525577
 Sum of electronic and thermal Enthalpies=           -1028.524633
 Sum of electronic and thermal Free Energies=        -1028.587492

                     E (Thermal)             CV                S
                      KCal/Mol        Cal/Mol-Kelvin    Cal/Mol-Kelvin
 Total                  170.664             57.182            132.298
 Electronic               0.000              0.000              0.000
 Translational            0.889              2.981             42.241
 Rotational               0.889              2.981             33.594
 Vibrational            168.887             51.220             56.464
 Vibration     1          0.593              1.986              6.635
 Vibration     2          0.593              1.985              6.342
 Vibration     3          0.594              1.983              5.565
 Vibration     4          0.594              1.981              5.235
 Vibration     5          0.596              1.974              4.517
 Vibration     6          0.602              1.956              3.660
 Vibration     7          0.619              1.900              2.640
 Vibration     8          0.630              1.866              2.321
 Vibration     9          0.633              1.855              2.240
 Vibration    10          0.651              1.798              1.891
 Vibration    11          0.658              1.778              1.797
 Vibration    12          0.699              1.656              1.365
 Vibration    13          0.717              1.605              1.234
 Vibration    14          0.725              1.581              1.180
 Vibration    15          0.743              1.532              1.076
 Vibration    16          0.779              1.435              0.905
 Vibration    17          0.786              1.418              0.879
 Vibration    18          0.833              1.301              0.718
 Vibration    19          0.864              1.231              0.637
 Vibration    20          0.884              1.186              0.589

                           ! Non-Optimized Parameters !
 Normal termination of Gaussian 16 at Thu Dec 10 21:19:56 2020.

 ----------------------------------------------------------------------
 # B3LYP/6-311++G(d,p) empiricaldispersion=gd3bj scf=xqc pop=npa geom=c
 heck
 ----------------------------------------------------------------------

 --------------------------------------
 CID_63002022_JID_6078_Energie_neutraal
 --------------------------------------
 Structure from the checkpoint file:  "JID_6078.chk"
 Charge =  0 Multiplicity = 1

 SCF Done:  E(RB3LYP) =  -1028.99749630     A.U. after   15 cycles
 Normal termination of Gaussian 16 at Thu Dec 10 21:23:43 2020.

 ----------------------------------------------------------------------
 # B3LYP/6-311++G(d,p) empiricaldispersion=gd3bj scf=xqc pop=npa geom=c
 heck
 ----------------------------------------------------------------------

 ------------------------------------
 CID_63002022_JID_6078_Energie_kation
 ------------------------------------
 Structure from the checkpoint file:  "JID_6078.chk"
 Charge =  1 Multiplicity = 2

 SCF Done:  E(UB3LYP) =  -1028.72534297     A.U. after   26 cycles
 Normal termination of Gaussian 16 at Thu Dec 10 21:32:48 2020.
 Gaussian 16:  ES64L-G16RevA.03 25-Dec-2016

 ----------------------------------------------------------------------
 # B3LYP/6-311++G(d,p) empiricaldispersion=gd3bj scf=xqc pop=npa geom=c
 heck
 ----------------------------------------------------------------------

 -----------------------------------
 CID_63002022_JID_6078_Energie_anion
 -----------------------------------
 Structure from the checkpoint file:  "JID_6078.chk"
 Charge = -1 Multiplicity = 2

                         Standard orientation:
 ---------------------------------------------------------------------
 Center     Atomic      Atomic             Coordinates (Angstroms)
 Number     Number       Type             X           Y           Z
 ---------------------------------------------------------------------
      1          6           0       -5.404554    1.683530    0.086825
      2         16           0       -4.993015   -0.060964    0.404416
      3          6           0       -3.251532   -0.136387    0.037327
      4          6           0       -2.638255   -1.395901    0.147763
      5          6           0       -1.283490   -1.545435   -0.116892
      6          6           0       -0.497478   -0.448673   -0.499562
      7          6           0       -1.112193    0.799371   -0.599262
      8          6           0       -2.474680    0.963312   -0.338969
      9          6           0        0.972206   -0.620208   -0.800176
     10          7           0        1.628229   -1.418274    0.239782
     11          6           0        3.073469   -1.582896    0.029761
     12          6           0        3.890621   -0.324757    0.039010
     13          6           0        4.354738    0.498490   -0.961868
     14          7           0        4.997809    1.604761   -0.446566
     15          6           0        4.926133    1.466046    0.859425
     16          7           0        4.262869    0.321450    1.209149
     17          1           0       -6.476516    1.776927    0.276250
     18          1           0       -5.202257    1.958186   -0.951918
     19          1           0       -4.866024    2.353115    0.762863
     20          1           0       -3.231145   -2.258495    0.440496
     21          1           0       -0.813879   -2.519340   -0.018741
     22          1           0       -0.520067    1.665743   -0.884955
     23          1           0       -2.912293    1.950944   -0.426647
     24          1           0        1.104653   -1.164619   -1.747107
     25          1           0        1.436585    0.369242   -0.946725
     26          1           0        1.462036   -0.970188    1.140501
     27          1           0        3.440558   -2.280411    0.793946
     28          1           0        3.210512   -2.078092   -0.938011
     29          1           0        4.263512    0.348004   -2.029531
     30          1           0        5.332036    2.148258    1.594344
     31          1           0        4.108260   -0.018361    2.147742
 ---------------------------------------------------------------------

 SCF Done:  E(UB3LYP) =  -1028.99216731     A.U. after   33 cycles
 SCF Done:  E(UB3LYP) =  -1028.99216731     a.u. after    1 cycles

 The electronic state is 2-A.
 Alpha  occ. eigenvalues --  -88.76813 -14.27023 -14.21542 -14.20344 -10.13198
 Alpha  occ. eigenvalues --  -10.12559 -10.11967 -10.11379 -10.11140 -10.11126
 Alpha  occ. eigenvalues --  -10.09517 -10.09478 -10.09367 -10.09287 -10.09175
 Alpha  occ. eigenvalues --  -10.09033  -7.85414  -5.81818  -5.81418  -5.80807
 Alpha  occ. eigenvalues --   -0.92200  -0.82674  -0.78343  -0.77753  -0.72214
 Alpha  occ. eigenvalues --   -0.68058  -0.66859  -0.65755  -0.61017  -0.57414
 Alpha  occ. eigenvalues --   -0.54462  -0.52904  -0.51834  -0.50052  -0.49119
 Alpha  occ. eigenvalues --   -0.45169  -0.42827  -0.40064  -0.38434  -0.36982
 Alpha  occ. eigenvalues --   -0.36786  -0.35848  -0.35072  -0.35015  -0.34571
 Alpha  occ. eigenvalues --   -0.33587  -0.32601  -0.32076  -0.31681  -0.29920
 Alpha  occ. eigenvalues --   -0.29112  -0.28220  -0.27175  -0.26039  -0.23941
 Alpha  occ. eigenvalues --   -0.20194  -0.19453  -0.18724  -0.17607  -0.15173
 Alpha  occ. eigenvalues --   -0.13837  -0.12694   0.03553
 Alpha virt. eigenvalues --    0.04664   0.06347   0.06558   0.07310   0.07320
 Alpha virt. eigenvalues --    0.07862   0.08060   0.09080   0.09197   0.09940
 Alpha virt. eigenvalues --    0.10086   0.10408   0.10855   0.11172   0.11453

  Beta  occ. eigenvalues --  -88.76806 -14.26944 -14.21523 -14.20347 -10.13184
  Beta  occ. eigenvalues --  -10.12557 -10.11947 -10.11317 -10.11137 -10.11127
  Beta  occ. eigenvalues --  -10.09519 -10.09479 -10.09356 -10.09282 -10.09166
  Beta  occ. eigenvalues --  -10.09024  -7.85408  -5.81806  -5.81405  -5.80803
  Beta  occ. eigenvalues --   -0.92149  -0.82642  -0.78324  -0.77684  -0.72177
  Beta  occ. eigenvalues --   -0.68020  -0.66845  -0.65718  -0.60977  -0.57359
  Beta  occ. eigenvalues --   -0.54414  -0.52885  -0.51690  -0.50018  -0.49099
  Beta  occ. eigenvalues --   -0.45110  -0.42796  -0.40045  -0.38393  -0.36960
  Beta  occ. eigenvalues --   -0.36757  -0.35815  -0.35017  -0.34968  -0.34535
  Beta  occ. eigenvalues --   -0.33556  -0.32556  -0.32059  -0.31655  -0.29880
  Beta  occ. eigenvalues --   -0.29087  -0.28193  -0.27149  -0.26022  -0.23889
  Beta  occ. eigenvalues --   -0.20171  -0.19413  -0.18710  -0.17590  -0.15151
  Beta  occ. eigenvalues --   -0.13819  -0.12672
  Beta virt. eigenvalues --    0.05679   0.06209   0.06546   0.06840   0.07549
  Beta virt. eigenvalues --    0.07712   0.07817   0.08449   0.09491   0.09654
  Beta virt. eigenvalues --    0.09975   0.10358   0.10507   0.10799   0.11651

 Mulliken charges and spin densities:
               1          2
     1  C    0.312574  -0.789237
     2  S   -0.348003  -0.447001
     3  C    0.442998   0.419355
     4  C   -0.733982  -0.019588
     5  C   -0.683227   0.221846
     6  C    1.882708  -1.109198
     7  C    0.218588  -0.716633
     8  C   -0.424137   0.709950
     9  C   -1.070201   0.344050
    10  N    0.051584   0.030758
    11  C    0.275956  -1.356259
    12  C    1.141932  -0.455939
    13  C   -0.821337   0.448905
    14  N   -0.122572  -0.015103
    15  C    0.143385  -0.105293
    16  N   -0.039567  -0.093856
    17  H   -0.541695   0.732091
    18  H   -0.155256   0.340302
    19  H   -0.141899   0.333722
    20  H    0.146666   0.012675
    21  H    0.080322   0.118180
    22  H   -0.118232   0.290225
    23  H    0.021123   0.129831
    24  H    0.062325   0.066187
    25  H    0.370495  -0.222972
    26  H    0.069294   0.132627
    27  H   -0.255634   0.450844
    28  H    0.147648   0.017392
    29  H    0.049000   0.073567
    30  H   -0.284574   0.440611
    31  H   -0.676279   1.017961
 Sum of Mulliken charges =  -1.00000   1.00000

 Dipole moment (field-independent basis, Debye):
    X=             -1.9029    Y=             -3.3440    Z=             -4.6078  Tot=              6.0030
 Quadrupole moment (field-independent basis, Debye-Ang):
   XX=           -239.5858   YY=           -137.7689   ZZ=           -141.4086
   XY=              8.1397   XZ=            -15.9490   YZ=              4.8426

 Summary of Natural Population Analysis:

                                       Natural Population
                Natural  -----------------------------------------------
    Atom  No    Charge         Core      Valence    Rydberg      Total
 -----------------------------------------------------------------------
      C    1   -0.35396      0.99963     2.34778    0.00656     3.35396
      S    2    0.12826      4.99954     2.85083    0.02137     7.87174
      C    3   -0.08848      0.99942     2.07682    0.01224     3.08848
      C    4   -0.10896      0.99951     2.10023    0.00922     3.10896
      C    5   -0.08924      0.99952     2.08129    0.00843     3.08924
      C    6   -0.02961      0.99950     2.02084    0.00926     3.02961
      C    7   -0.08896      0.99952     2.08097    0.00848     3.08896
      C    8   -0.11945      0.99949     2.10945    0.01051     3.11945
      C    9   -0.09451      0.99959     2.08537    0.00955     3.09451
      N   10   -0.33205      0.99975     2.82099    0.01130     3.83205
      C   11   -0.10473      0.99959     2.09215    0.01300     3.10473
      C   12    0.04051      0.99952     1.94650    0.01346     2.95949
      C   13   -0.03551      0.99950     2.02351    0.01251     3.03551
      N   14   -0.26014      0.99973     2.75019    0.01022     3.76014
      C   15    0.10227      0.99965     1.87936    0.01871     2.89773
      N   16   -0.27011      0.99966     2.75792    0.01253     3.77011
      H   17    0.11321      0.00000     0.38533    0.00146     0.38679
      H   18    0.10530      0.00000     0.39279    0.00191     0.39470
      H   19    0.10539      0.00000     0.39265    0.00196     0.39461
      H   20    0.10168      0.00000     0.39739    0.00093     0.39832
      H   21    0.10853      0.00000     0.39037    0.00110     0.39147
      H   22    0.10206      0.00000     0.39687    0.00107     0.39794
      H   23    0.10477      0.00000     0.39393    0.00130     0.39523
      H   24    0.09284      0.00000     0.40601    0.00115     0.40716
      H   25    0.08901      0.00000     0.40816    0.00283     0.41099
      H   26    0.17493      0.00000     0.32201    0.00306     0.32507
      H   27    0.10506      0.00000     0.39373    0.00121     0.39494
      H   28    0.09803      0.00000     0.40096    0.00102     0.40197
      H   29    0.09511      0.00000     0.40392    0.00097     0.40489
      H   30    0.09394      0.00000     0.40470    0.00136     0.40606
      H   31    0.21482      0.00000     0.24908    0.03610     0.28518
 =======================================================================
   * Total *    0.00000     19.99312    41.76211    0.24476    62.00000

 Normal termination of Gaussian 16 at Thu Dec 10 21:44:53 2020.
