 Gaussian 16, Revision A.03,

 -----------------------------------------------------------
 # opt freq B3LYP/6-31G(d) empiricaldispersion=gd3bj scf=xqc
 -----------------------------------------------------------

 ------------------------------
 CID_20494710_JID_1557_neutraal
 ------------------------------
 Symbolic Z-matrix:
 Charge =  0 Multiplicity = 1

 SCF Done:  E(RB3LYP) =  -553.486898073     A.U. after   13 cycles
 SCF Done:  E(RB3LYP) =  -553.490752328     A.U. after   12 cycles
 SCF Done:  E(RB3LYP) =  -553.488770649     A.U. after   13 cycles
 SCF Done:  E(RB3LYP) =  -553.491903538     A.U. after   12 cycles
 SCF Done:  E(RB3LYP) =  -553.493128843     A.U. after   12 cycles
 SCF Done:  E(RB3LYP) =  -553.493038445     A.U. after   12 cycles
 SCF Done:  E(RB3LYP) =  -553.493606337     A.U. after   11 cycles
 SCF Done:  E(RB3LYP) =  -553.493757705     A.U. after   10 cycles
 SCF Done:  E(RB3LYP) =  -553.493813669     A.U. after   10 cycles
 SCF Done:  E(RB3LYP) =  -553.493839471     A.U. after   10 cycles
 SCF Done:  E(RB3LYP) =  -553.493877274     A.U. after   10 cycles
 SCF Done:  E(RB3LYP) =  -553.493881623     A.U. after   10 cycles
 SCF Done:  E(RB3LYP) =  -553.493883691     A.U. after   10 cycles
 SCF Done:  E(RB3LYP) =  -553.493884339     A.U. after    9 cycles
 SCF Done:  E(RB3LYP) =  -553.493884367     A.U. after    7 cycles
 SCF Done:  E(RB3LYP) =  -553.493884372     A.U. after    7 cycles
 Optimization completed.
    -- Stationary point found.
 Normal termination of Gaussian 16 at Tue Dec  8 20:25:41 2020.

 --------------------------------------------------------------------
 #N Geom=AllCheck Guess=TCheck SCRF=Check GenChk RB3LYP/6-31G(d) Freq
 --------------------------------------------------------------------

 Structure from the checkpoint file:  "JID_1557.chk"
 ------------------------------
 CID_20494710_JID_1557_neutraal
 ------------------------------
 Charge =  0 Multiplicity = 1

 SCF Done:  E(RB3LYP) =  -553.493884372     A.U. after    1 cycles

  Exact polarizability: 109.622  -2.122  96.967  -1.996   1.118  79.878
 Approx polarizability: 137.874  -3.852 130.533  -1.803  -0.163 120.236

                      1                      2                      3
                      A                      A                      A
 Frequencies --     16.8516                49.1564                74.1475
 Red. masses --      3.9877                 3.3343                 6.4644
 Frc consts  --      0.0007                 0.0047                 0.0209
 IR Inten    --      1.6458                 0.2189                 2.6532

                      4                      5                      6
                      A                      A                      A
 Frequencies --    100.5096               159.6034               201.8244
 Red. masses --      3.0108                 2.7388                 2.2929
 Frc consts  --      0.0179                 0.0411                 0.0550
 IR Inten    --      2.7825                 0.8581                 0.2055

                      7                      8                      9
                      A                      A                      A
 Frequencies --    225.8450               238.0085               250.9438
 Red. masses --      2.1580                 1.6046                 1.1986
 Frc consts  --      0.0649                 0.0536                 0.0445
 IR Inten    --      2.3543                 1.8513                 7.2520

                     10                     11                     12
                      A                      A                      A
 Frequencies --    267.2692               291.4640               310.4086
 Red. masses --      1.4383                 1.3715                 1.3302
 Frc consts  --      0.0605                 0.0686                 0.0755
 IR Inten    --      5.7189                38.1209                74.4169

                     13                     14                     15
                      A                      A                      A
 Frequencies --    341.1489               359.7353               381.4930
 Red. masses --      2.8885                 2.7565                 2.5459
 Frc consts  --      0.1981                 0.2102                 0.2183
 IR Inten    --     24.9351                 1.4422                 1.8874

                     16                     17                     18
                      A                      A                      A
 Frequencies --    426.4392               455.9999               511.0717
 Red. masses --      2.4819                 2.1144                 3.2516
 Frc consts  --      0.2659                 0.2590                 0.5004
 IR Inten    --     10.0902                 4.2145                 4.1065

                     19                     20                     21
                      A                      A                      A
 Frequencies --    535.9980               584.9253               594.5622
 Red. masses --      2.9039                 4.0812                 2.2773
 Frc consts  --      0.4915                 0.8227                 0.4743
 IR Inten    --      1.5158                29.9022                44.0710

                     22                     23                     24
                      A                      A                      A
 Frequencies --    706.6451               819.9707               842.1076
 Red. masses --      1.3213                 3.2472                 4.4407
 Frc consts  --      0.3887                 1.2864                 1.8554
 IR Inten    --     97.9589                12.5363                44.9171

                     25                     26                     27
                      A                      A                      A
 Frequencies --    854.5183               902.9916               912.9741
 Red. masses --      2.0934                 1.3924                 1.4338
 Frc consts  --      0.9006                 0.6689                 0.7041
 IR Inten    --     30.0789                24.2535               112.8222

                     28                     29                     30
                      A                      A                      A
 Frequencies --    929.8583               950.7515               963.5086
 Red. masses --      1.6453                 2.5201                 2.0114
 Frc consts  --      0.8382                 1.3422                 1.1002
 IR Inten    --     19.9069                38.1382                21.4622

                     31                     32                     33
                      A                      A                      A
 Frequencies --    964.7256               977.9185              1044.2322
 Red. masses --      1.9555                 1.6853                 1.4642
 Frc consts  --      1.0723                 0.9496                 0.9407
 IR Inten    --     22.7703                17.2732                 3.4122

                     34                     35                     36
                      A                      A                      A
 Frequencies --   1056.5540              1070.6827              1118.1552
 Red. masses --      3.1138                 2.1155                 2.3424
 Frc consts  --      2.0480                 1.4288                 1.7255
 IR Inten    --      5.1075                49.2525                15.8641

                     37                     38                     39
                      A                      A                      A
 Frequencies --   1124.5771              1144.2122              1190.1558
 Red. masses --      2.0042                 2.2105                 2.2174
 Frc consts  --      1.4934                 1.7051                 1.8505
 IR Inten    --     52.8814                18.6136                20.7516

                     40                     41                     42
                      A                      A                      A
 Frequencies --   1210.8145              1259.0879              1281.5880
 Red. masses --      1.8965                 1.1990                 1.5999
 Frc consts  --      1.6382                 1.1199                 1.5483
 IR Inten    --     11.0700                 6.8708                 3.6719

                     43                     44                     45
                      A                      A                      A
 Frequencies --   1313.2612              1328.0481              1357.4311
 Red. masses --      1.3427                 1.2534                 1.4355
 Frc consts  --      1.3644                 1.3025                 1.5584
 IR Inten    --      4.9081                 3.9233                 3.6317

                     46                     47                     48
                      A                      A                      A
 Frequencies --   1381.5409              1400.4313              1417.8446
 Red. masses --      1.2941                 1.4766                 1.2435
 Frc consts  --      1.4553                 1.7062                 1.4728
 IR Inten    --     16.1969                 2.6963                10.3823

                     49                     50                     51
                      A                      A                      A
 Frequencies --   1424.6583              1436.5151              1443.6934
 Red. masses --      1.2552                 1.2493                 1.2700
 Frc consts  --      1.5011                 1.5190                 1.5595
 IR Inten    --     11.9475                19.0568                45.0802

                     52                     53                     54
                      A                      A                      A
 Frequencies --   1450.2034              1491.0685              1508.3443
 Red. masses --      1.3881                 1.1516                 1.1203
 Frc consts  --      1.7199                 1.5085                 1.5017
 IR Inten    --     14.4567                24.3573                 6.3755

                     55                     56                     57
                      A                      A                      A
 Frequencies --   1517.5161              1524.8389              1527.6888
 Red. masses --      1.0593                 1.0633                 1.0661
 Frc consts  --      1.4373                 1.4567                 1.4659
 IR Inten    --      8.7066                 1.2838                 2.1657

                     58                     59                     60
                      A                      A                      A
 Frequencies --   1530.7925              1541.1365              1556.5488
 Red. masses --      1.0738                 1.0571                 1.1723
 Frc consts  --      1.4825                 1.4792                 1.6735
 IR Inten    --     13.0472                 2.5058                72.3876

                     61                     62                     63
                      A                      A                      A
 Frequencies --   1705.4914              2983.6793              3024.7181
 Red. masses --      1.0923                 1.0697                 1.0673
 Frc consts  --      1.8720                 5.6105                 5.7534
 IR Inten    --     23.1565                63.9843                21.7281

                     64                     65                     66
                      A                      A                      A
 Frequencies --   3035.7464              3045.6803              3047.3108
 Red. masses --      1.0851                 1.0389                 1.0383
 Frc consts  --      5.8916                 5.6777                 5.6807
 IR Inten    --     48.3931                20.2501                21.1749

                     67                     68                     69
                      A                      A                      A
 Frequencies --   3064.1030              3075.1618              3108.2215
 Red. masses --      1.0846                 1.0906                 1.1015
 Frc consts  --      5.9994                 6.0765                 6.2700
 IR Inten    --      5.7766                37.8818                43.5522

                     70                     71                     72
                      A                      A                      A
 Frequencies --   3111.8655              3124.4286              3128.1899
 Red. masses --      1.0999                 1.0993                 1.0991
 Frc consts  --      6.2754                 6.3230                 6.3370
 IR Inten    --     21.2413                17.7130                36.7478

                     73                     74                     75
                      A                      A                      A
 Frequencies --   3143.1816              3328.8934              3461.1714
 Red. masses --      1.1000                 1.0672                 1.0494
 Frc consts  --      6.4031                 6.9681                 7.4066
 IR Inten    --     22.5908               577.6681                 1.7009

                     76                     77                     78
                      A                      A                      A
 Frequencies --   3489.2972              3545.0761              3728.6164
 Red. masses --      1.0735                 1.0919                 1.0674
 Frc consts  --      7.7008                 8.0850                 8.7434
 IR Inten    --      0.7905                 2.5028                33.1775

 - Thermochemistry -
 -------------------
 Temperature   298.150 Kelvin.  Pressure   1.00000 Atm.
 Atom     1 has atomic number  6 and mass  12.00000

 Molecular mass:   163.13208 amu.
 Principal axes and moments of inertia in atomic units:
                           1         2         3
     Eigenvalues --  1274.602252783.781823622.78652
           X            0.99972   0.02263  -0.00740
           Y           -0.02261   0.99974   0.00330
           Z            0.00747  -0.00314   0.99997
 This molecule is an asymmetric top.
 Rotational symmetry number  1.
 Warning -- assumption of classical behavior for rotation
           may cause significant error
 Rotational temperatures (Kelvin)      0.06795     0.03111     0.02391
 Rotational constants (GHZ):           1.41593     0.64831     0.49816
 Zero-point vibrational energy     657981.0 (Joules/Mol)
                                  157.26123 (Kcal/Mol)
 Warning -- explicit consideration of  21 degrees of freedom as
           vibrations may cause significant error
 Vibrational temperatures:     24.25    70.73   106.68   144.61   229.63
          (Kelvin)            290.38   324.94   342.44   361.05   384.54
                              419.35   446.61   490.84   517.58   548.88
                              613.55   656.08   735.32   771.18   841.58
                              855.44  1016.70  1179.75  1211.61  1229.46
                             1299.20  1313.57  1337.86  1367.92  1386.27
                             1388.02  1407.01  1502.42  1520.15  1540.47
                             1608.78  1618.02  1646.27  1712.37  1742.09
                             1811.55  1843.92  1889.49  1910.77  1953.04
                             1987.73  2014.91  2039.96  2049.77  2066.82
                             2077.15  2086.52  2145.31  2170.17  2183.37
                             2193.90  2198.00  2202.47  2217.35  2239.53
                             2453.82  4292.85  4351.89  4367.76  4382.05
                             4384.40  4408.56  4424.47  4472.04  4477.28
                             4495.36  4500.77  4522.34  4789.54  4979.85
                             5020.32  5100.57  5364.65

 Zero-point correction=                           0.250612 (Hartree/Particle)
 Thermal correction to Energy=                    0.264006
 Thermal correction to Enthalpy=                  0.264950
 Thermal correction to Gibbs Free Energy=         0.210023
 Sum of electronic and zero-point Energies=           -553.243273
 Sum of electronic and thermal Energies=              -553.229878
 Sum of electronic and thermal Enthalpies=            -553.228934
 Sum of electronic and thermal Free Energies=         -553.283861

                     E (Thermal)             CV                S
                      KCal/Mol        Cal/Mol-Kelvin    Cal/Mol-Kelvin
 Total                  165.666             49.746            115.603
 Electronic               0.000              0.000              0.000
 Translational            0.889              2.981             41.177
 Rotational               0.889              2.981             30.931
 Vibrational            163.889             43.784             43.496
 Vibration     1          0.593              1.986              6.974
 Vibration     2          0.595              1.978              4.851
 Vibration     3          0.599              1.966              4.040
 Vibration     4          0.604              1.949              3.444
 Vibration     5          0.621              1.892              2.554
 Vibration     6          0.639              1.837              2.116
 Vibration     7          0.650              1.802              1.912
 Vibration     8          0.656              1.782              1.818
 Vibration     9          0.663              1.761              1.724
 Vibration    10          0.672              1.733              1.614
 Vibration    11          0.687              1.690              1.465
 Vibration    12          0.699              1.654              1.360
 Vibration    13          0.721              1.593              1.207
 Vibration    14          0.734              1.555              1.123
 Vibration    15          0.751              1.510              1.033
 Vibration    16          0.788              1.413              0.870
 Vibration    17          0.814              1.348              0.778
 Vibration    18          0.866              1.225              0.631
 Vibration    19          0.891              1.170              0.574
 Vibration    20          0.942              1.064              0.476
 Vibration    21          0.952              1.043              0.459

 Optimization completed.
    -- Stationary point found.
 Normal termination of Gaussian 16 at Tue Dec  8 20:31:23 2020.

 ----------------------------------------------------------------------
 # B3LYP/6-311++G(d,p) empiricaldispersion=gd3bj scf=xqc pop=npa geom=c
 heck
 ----------------------------------------------------------------------

 --------------------------------------
 CID_20494710_JID_1557_Energie_neutraal
 --------------------------------------
 Structure from the checkpoint file:  "JID_1557.chk"
 Charge =  0 Multiplicity = 1

 SCF Done:  E(RB3LYP) =  -553.684964282     A.U. after   14 cycles
 Normal termination of Gaussian 16 at Tue Dec  8 20:34:25 2020.

 ----------------------------------------------------------------------
 # B3LYP/6-311++G(d,p) empiricaldispersion=gd3bj scf=xqc pop=npa geom=c
 heck
 ----------------------------------------------------------------------

 ------------------------------------
 CID_20494710_JID_1557_Energie_kation
 ------------------------------------
 Structure from the checkpoint file:  "JID_1557.chk"
 Charge =  1 Multiplicity = 2

 SCF Done:  E(UB3LYP) =  -553.381030994     A.U. after   26 cycles
 Normal termination of Gaussian 16 at Tue Dec  8 20:40:42 2020.
 Gaussian 16:  ES64L-G16RevA.03 25-Dec-2016

 ----------------------------------------------------------------------
 # B3LYP/6-311++G(d,p) empiricaldispersion=gd3bj scf=xqc pop=npa geom=c
 heck
 ----------------------------------------------------------------------

 -----------------------------------
 CID_20494710_JID_1557_Energie_anion
 -----------------------------------
 Structure from the checkpoint file:  "JID_1557.chk"
 Charge = -1 Multiplicity = 2

                         Standard orientation:
 ---------------------------------------------------------------------
 Center     Atomic      Atomic             Coordinates (Angstroms)
 Number     Number       Type             X           Y           Z
 ---------------------------------------------------------------------
      1          6           0       -3.043656   -0.489247    1.167890
      2          6           0       -2.703364   -0.238323   -0.303046
      3          6           0       -1.678121    0.905338   -0.467171
      4          7           0       -0.420099    0.601281    0.222203
      5          6           0        0.790948    1.264707   -0.299641
      6          6           0        0.863745    2.756109    0.047073
      7          6           0        2.045699    0.523307    0.181075
      8          7           0        2.054040   -0.856833   -0.331016
      9          8           0        3.319829   -1.364493    0.064703
     10          8           0        1.114836   -1.612587    0.488344
     11          7           0       -2.304009   -1.504079   -0.923284
     12          1           0       -2.167862   -0.864123    1.712067
     13          1           0       -3.828842   -1.245418    1.247356
     14          1           0       -3.385798    0.428698    1.660256
     15          1           0       -3.618247    0.091564   -0.814738
     16          1           0       -1.450653    1.018008   -1.534101
     17          1           0       -2.122791    1.857812   -0.133624
     18          1           0       -0.509624    0.807354    1.216324
     19          1           0        0.750610    1.147399   -1.389132
     20          1           0        0.925056    2.898969    1.133398
     21          1           0        1.745142    3.226221   -0.402857
     22          1           0       -0.023457    3.285541   -0.315180
     23          1           0        2.933491    1.012061   -0.229145
     24          1           0        2.120196    0.517419    1.278926
     25          1           0        3.428575   -2.126622   -0.527866
     26          1           0        0.299311   -1.061373    0.358440
     27          1           0       -2.099205   -1.355908   -1.910892
     28          1           0       -1.434248   -1.834890   -0.506005
 ---------------------------------------------------------------------

 SCF Done:  E(UB3LYP) =  -553.673384360     A.U. after   26 cycles

 The electronic state is 2-A.
 Alpha  occ. eigenvalues --  -19.06698 -19.02993 -14.31380 -14.21441 -14.18924
 Alpha  occ. eigenvalues --  -10.11138 -10.10136 -10.09721 -10.09032 -10.05996
 Alpha  occ. eigenvalues --  -10.05754  -1.01350  -0.90319  -0.82492  -0.78225
 Alpha  occ. eigenvalues --   -0.72156  -0.65835  -0.63070  -0.58011  -0.55612
 Alpha  occ. eigenvalues --   -0.50094  -0.47860  -0.42978  -0.42466  -0.40179
 Alpha  occ. eigenvalues --   -0.38967  -0.37567  -0.35730  -0.35322  -0.33163
 Alpha  occ. eigenvalues --   -0.31780  -0.30879  -0.30415  -0.29216  -0.28177
 Alpha  occ. eigenvalues --   -0.27287  -0.26793  -0.25549  -0.24251  -0.24066
 Alpha  occ. eigenvalues --   -0.23734  -0.20974  -0.15391  -0.13846  -0.13366
 Alpha  occ. eigenvalues --    0.04487
 Alpha virt. eigenvalues --    0.07083   0.07331   0.07660   0.09063   0.09571
 Alpha virt. eigenvalues --    0.10065   0.10674   0.11289   0.12137   0.12734
 Alpha virt. eigenvalues --    0.12808   0.13666   0.14104   0.14809   0.15620

  Beta  occ. eigenvalues --  -19.06695 -19.02992 -14.31369 -14.21425 -14.18907
  Beta  occ. eigenvalues --  -10.11123 -10.10126 -10.09708 -10.08993 -10.05938
  Beta  occ. eigenvalues --  -10.05725  -1.01339  -0.90313  -0.82458  -0.78187
  Beta  occ. eigenvalues --   -0.72132  -0.65784  -0.63015  -0.57929  -0.55555
  Beta  occ. eigenvalues --   -0.50036  -0.47800  -0.42964  -0.42432  -0.40120
  Beta  occ. eigenvalues --   -0.38928  -0.37527  -0.35691  -0.35280  -0.33118
  Beta  occ. eigenvalues --   -0.31733  -0.30826  -0.30382  -0.29178  -0.28150
  Beta  occ. eigenvalues --   -0.27236  -0.26746  -0.25498  -0.24227  -0.24021
  Beta  occ. eigenvalues --   -0.23694  -0.20965  -0.15365  -0.13816  -0.13339
  Beta virt. eigenvalues --    0.06893   0.07528   0.08174   0.08452   0.09810
  Beta virt. eigenvalues --    0.10139   0.10581   0.11133   0.11885   0.12540
  Beta virt. eigenvalues --    0.13086   0.13228   0.13943   0.14479   0.15186

 Mulliken charges and spin densities:
               1          2
     1  C    0.635922  -1.247716
     2  C    0.361240  -0.504819
     3  C    0.059011  -0.484258
     4  N   -0.387949   0.132091
     5  C   -0.988495   0.983789
     6  C    2.196774  -2.787325
     7  C   -0.376623  -0.191815
     8  N   -0.362589   0.002395
     9  O   -0.064873   0.026377
    10  O   -0.118115   0.007993
    11  N   -0.299801   0.033730
    12  H   -0.044415   0.185795
    13  H    0.002349   0.156264
    14  H   -0.299793   0.450905
    15  H   -0.450159   0.644417
    16  H   -0.291030   0.453580
    17  H   -0.303168   0.474951
    18  H    0.255335   0.035404
    19  H   -0.026877   0.244638
    20  H   -0.324704   0.468247
    21  H   -0.446195   0.587005
    22  H   -0.720025   0.897634
    23  H    0.015026   0.171725
    24  H    0.140179   0.038213
    25  H    0.207059   0.060306
    26  H    0.364036  -0.023655
    27  H    0.049812   0.180312
    28  H    0.218065   0.003814
 Sum of Mulliken charges =  -1.00000   1.00000

 Dipole moment (field-independent basis, Debye):
    X=              3.8872    Y=             -5.3524    Z=              0.1900  Tot=              6.6178
 Quadrupole moment (field-independent basis, Debye-Ang):
   XX=           -127.5500   YY=           -126.6106   ZZ=           -100.9398
   XY=             -0.7567   XZ=             -2.7212   YZ=              3.1495

 Summary of Natural Population Analysis:

                                       Natural Population
                Natural  -----------------------------------------------
    Atom  No    Charge         Core      Valence    Rydberg      Total
 -----------------------------------------------------------------------
      C    1   -0.29096      0.99964     2.28459    0.00673     3.29096
      C    2   -0.01805      0.99962     2.00575    0.01267     3.01805
      C    3   -0.08930      0.99959     2.07759    0.01211     3.08930
      N    4   -0.36340      0.99974     2.84971    0.01395     3.86340
      C    5   -0.01506      0.99959     2.00186    0.01362     3.01506
      C    6   -0.29310      0.99964     2.28727    0.00619     3.29310
      C    7   -0.10360      0.99958     2.09021    0.01381     3.10360
      N    8    0.01420      0.99974     2.47095    0.01511     3.48580
      O    9   -0.28628      0.99990     3.27987    0.00651     4.28628
      O   10   -0.31989      0.99990     3.31278    0.00722     4.31989
      N   11   -0.42333      0.99977     2.91329    0.01027     3.92333
      H   12    0.09459      0.00000     0.40430    0.00111     0.40541
      H   13    0.10360      0.00000     0.39543    0.00098     0.39640
      H   14    0.10265      0.00000     0.39611    0.00124     0.39735
      H   15    0.09176      0.00000     0.40615    0.00209     0.40824
      H   16    0.09503      0.00000     0.40262    0.00235     0.40497
      H   17    0.09359      0.00000     0.40302    0.00339     0.40641
      H   18    0.18173      0.00000     0.31543    0.00284     0.31827
      H   19    0.09653      0.00000     0.40034    0.00313     0.40347
      H   20    0.09832      0.00000     0.40000    0.00167     0.40168
      H   21    0.10342      0.00000     0.39476    0.00182     0.39658
      H   22    0.10868      0.00000     0.38899    0.00233     0.39132
      H   23    0.10727      0.00000     0.39114    0.00158     0.39273
      H   24    0.09510      0.00000     0.40353    0.00137     0.40490
      H   25    0.23080      0.00000     0.26640    0.00280     0.26920
      H   26    0.23845      0.00000     0.25672    0.00482     0.26155
      H   27    0.17394      0.00000     0.32424    0.00182     0.32606
      H   28    0.17331      0.00000     0.32415    0.00254     0.32669
 =======================================================================
   * Total *    0.00000     10.99671    33.84720    0.15608    45.00000

 Normal termination of Gaussian 16 at Tue Dec  8 20:46:33 2020.
