 Gaussian 16, Revision A.03,

 -----------------------------------------------------------
 # opt freq B3LYP/6-31G(d) empiricaldispersion=gd3bj scf=xqc
 -----------------------------------------------------------

 ------------------------------
 CID_64661413_JID_4998_neutraal
 ------------------------------
 Symbolic Z-matrix:
 Charge =  0 Multiplicity = 1

 SCF Done:  E(RB3LYP) =  -633.428834706     A.U. after   13 cycles
 SCF Done:  E(RB3LYP) =  -633.432462183     A.U. after   11 cycles
 SCF Done:  E(RB3LYP) =  -633.432741988     A.U. after   11 cycles
 SCF Done:  E(RB3LYP) =  -633.432779301     A.U. after   10 cycles
 SCF Done:  E(RB3LYP) =  -633.432786697     A.U. after    8 cycles
 SCF Done:  E(RB3LYP) =  -633.432789859     A.U. after    8 cycles
 SCF Done:  E(RB3LYP) =  -633.432790843     A.U. after    8 cycles
 SCF Done:  E(RB3LYP) =  -633.432791694     A.U. after    8 cycles
 SCF Done:  E(RB3LYP) =  -633.432791782     A.U. after    7 cycles
 Optimization completed.
    -- Stationary point found.
 Normal termination of Gaussian 16 at Thu Dec 10 11:01:31 2020.

 --------------------------------------------------------------------
 #N Geom=AllCheck Guess=TCheck SCRF=Check GenChk RB3LYP/6-31G(d) Freq
 --------------------------------------------------------------------

 Structure from the checkpoint file:  "JID_4998.chk"
 ------------------------------
 CID_64661413_JID_4998_neutraal
 ------------------------------
 Charge =  0 Multiplicity = 1

 SCF Done:  E(RB3LYP) =  -633.432791782     A.U. after    1 cycles

  Exact polarizability: 175.850   8.630 119.844  -3.809  10.889  84.921
 Approx polarizability: 231.063   9.476 193.934 -13.193  31.848 133.387

                      1                      2                      3
                      A                      A                      A
 Frequencies --     29.0470                68.8934                99.7460
 Red. masses --      3.9899                 3.1569                 2.5158
 Frc consts  --      0.0020                 0.0088                 0.0147
 IR Inten    --      0.7166                 3.4140                 0.1264

                      4                      5                      6
                      A                      A                      A
 Frequencies --    125.6391               139.6144               168.7108
 Red. masses --      2.2764                 3.6092                 3.9467
 Frc consts  --      0.0212                 0.0414                 0.0662
 IR Inten    --      0.7766                 1.6040                 1.6850

                      7                      8                      9
                      A                      A                      A
 Frequencies --    226.5081               232.0242               259.4706
 Red. masses --      2.7209                 1.3577                 1.4658
 Frc consts  --      0.0822                 0.0431                 0.0581
 IR Inten    --      2.3198                 2.4471                 0.7366

                     10                     11                     12
                      A                      A                      A
 Frequencies --    278.1696               298.5409               316.5568
 Red. masses --      1.9027                 1.9968                 1.5947
 Frc consts  --      0.0867                 0.1049                 0.0942
 IR Inten    --      3.5773                16.6809                40.7882

                     13                     14                     15
                      A                      A                      A
 Frequencies --    356.5802               384.4098               419.6012
 Red. masses --      3.2032                 5.3316                 5.3778
 Frc consts  --      0.2400                 0.4642                 0.5579
 IR Inten    --      5.5665                 0.1872                 1.7754

                     16                     17                     18
                      A                      A                      A
 Frequencies --    434.7512               496.9707               524.1950
 Red. masses --      3.3801                 3.8091                 2.7086
 Frc consts  --      0.3764                 0.5543                 0.4385
 IR Inten    --      2.5829                 2.9740                 4.3275

                     19                     20                     21
                      A                      A                      A
 Frequencies --    563.7472               613.6702               642.2464
 Red. masses --      3.8380                 3.8617                 4.2973
 Frc consts  --      0.7187                 0.8568                 1.0444
 IR Inten    --      4.2302                 2.5712                 4.5099

                     22                     23                     24
                      A                      A                      A
 Frequencies --    706.2431               732.6568               755.8685
 Red. masses --      3.9618                 5.7068                 3.5255
 Frc consts  --      1.1643                 1.8049                 1.1868
 IR Inten    --      3.6518                14.0666                19.3122

                     25                     26                     27
                      A                      A                      A
 Frequencies --    798.5976               816.5867               826.8604
 Red. masses --      1.8797                 1.5529                 3.0165
 Frc consts  --      0.7063                 0.6101                 1.2151
 IR Inten    --      4.2825                33.7806                13.6177

                     28                     29                     30
                      A                      A                      A
 Frequencies --    878.1081               890.4443               913.4101
 Red. masses --      1.5615                 1.4236                 1.4028
 Frc consts  --      0.7094                 0.6650                 0.6896
 IR Inten    --    120.4416                11.9627                12.5789

                     31                     32                     33
                      A                      A                      A
 Frequencies --    917.6918               931.9536               972.3734
 Red. masses --      1.8834                 3.7229                 2.4160
 Frc consts  --      0.9345                 1.9051                 1.3459
 IR Inten    --     47.8498                 3.0896                75.7106

                     34                     35                     36
                      A                      A                      A
 Frequencies --   1014.3200              1061.8140              1069.0524
 Red. masses --      2.8257                 2.2449                 2.3388
 Frc consts  --      1.7129                 1.4913                 1.5749
 IR Inten    --     27.0526                 2.0955                58.9033

                     37                     38                     39
                      A                      A                      A
 Frequencies --   1088.6761              1124.8621              1140.1236
 Red. masses --      3.0788                 1.9641                 2.2907
 Frc consts  --      2.1500                 1.4642                 1.7544
 IR Inten    --     30.9847                20.5158                 1.9102

                     40                     41                     42
                      A                      A                      A
 Frequencies --   1160.6889              1183.2163              1187.4369
 Red. masses --      1.4444                 1.7385                 1.2726
 Frc consts  --      1.1465                 1.4340                 1.0572
 IR Inten    --     15.3347                13.6859                 0.8584

                     43                     44                     45
                      A                      A                      A
 Frequencies --   1202.2660              1220.6559              1234.2597
 Red. masses --      1.7221                 1.4647                 1.7185
 Frc consts  --      1.4666                 1.2858                 1.5425
 IR Inten    --     10.5531                38.6661               131.2991

                     46                     47                     48
                      A                      A                      A
 Frequencies --   1289.5628              1296.4119              1307.1480
 Red. masses --      1.6080                 2.1043                 1.6370
 Frc consts  --      1.5755                 2.0837                 1.6480
 IR Inten    --    131.9524                 6.1273                42.7740

                     49                     50                     51
                      A                      A                      A
 Frequencies --   1320.8084              1323.5266              1371.9592
 Red. masses --      1.3381                 1.8587                 2.4510
 Frc consts  --      1.3754                 1.9183                 2.7182
 IR Inten    --     42.6764                25.5935                14.0686

                     52                     53                     54
                      A                      A                      A
 Frequencies --   1390.0205              1412.7371              1432.3694
 Red. masses --      2.3419                 1.4929                 1.3510
 Frc consts  --      2.6660                 1.7555                 1.6331
 IR Inten    --      7.1028                 4.7346                12.2593

                     55                     56                     57
                      A                      A                      A
 Frequencies --   1439.0296              1493.4439              1502.9896
 Red. masses --      1.2487                 1.9507                 1.8467
 Frc consts  --      1.5235                 2.5634                 2.4579
 IR Inten    --      7.3585                67.9051                11.0912

                     58                     59                     60
                      A                      A                      A
 Frequencies --   1508.5493              1520.0934              1527.1086
 Red. masses --      1.0891                 1.0481                 1.0497
 Frc consts  --      1.4603                 1.4268                 1.4422
 IR Inten    --      0.9701                 5.0299                 5.2673

                     61                     62                     63
                      A                      A                      A
 Frequencies --   1535.1982              1539.7903              1545.7463
 Red. masses --      1.3182                 1.0565                 1.7755
 Frc consts  --      1.8304                 1.4758                 2.4995
 IR Inten    --    171.3930                 5.3168               117.2065

                     64                     65                     66
                      A                      A                      A
 Frequencies --   1657.4506              1682.2053              1693.9397
 Red. masses --      7.4651                 2.0960                 1.7304
 Frc consts  --     12.0827                 3.4946                 2.9255
 IR Inten    --     11.5760                11.1015                17.2828

                     67                     68                     69
                      A                      A                      A
 Frequencies --   3017.1860              3032.1095              3050.3016
 Red. masses --      1.0353                 1.0609                 1.0406
 Frc consts  --      5.5532                 5.7465                 5.7048
 IR Inten    --     65.2139                14.8377                29.2548

                     70                     71                     72
                      A                      A                      A
 Frequencies --   3056.5659              3058.5849              3072.2448
 Red. masses --      1.0864                 1.0879                 1.1063
 Frc consts  --      5.9802                 5.9964                 6.1520
 IR Inten    --     12.5937                32.8036                49.4222

                     73                     74                     75
                      A                      A                      A
 Frequencies --   3076.5457              3113.9604              3140.2347
 Red. masses --      1.0964                 1.1007                 1.1014
 Frc consts  --      6.1142                 6.2886                 6.3993
 IR Inten    --     60.5372                43.0928                26.3917

                     76                     77                     78
                      A                      A                      A
 Frequencies --   3154.0934              3214.2756              3221.2906
 Red. masses --      1.0988                 1.0887                 1.0914
 Frc consts  --      6.4407                 6.6269                 6.6723
 IR Inten    --     30.3615                 9.7462                 2.1836

                     79                     80                     81
                      A                      A                      A
 Frequencies --   3231.9486              3453.5628              3546.1520
 Red. masses --      1.0925                 1.0490                 1.0932
 Frc consts  --      6.7238                 7.3712                 8.0996
 IR Inten    --     11.0826                 3.5051                 1.2073

 - Thermochemistry -
 -------------------
 Temperature   298.150 Kelvin.  Pressure   1.00000 Atm.
 Atom     1 has atomic number  6 and mass  12.00000

 Molecular mass:   193.11028 amu.
 Principal axes and moments of inertia in atomic units:
                           1         2         3
     Eigenvalues --  1223.951024708.996345385.90070
           X            0.99996   0.00450   0.00750
           Y           -0.00440   0.99989  -0.01428
           Z           -0.00757   0.01424   0.99987
 This molecule is an asymmetric top.
 Rotational symmetry number  1.
 Warning -- assumption of classical behavior for rotation
           may cause significant error
 Rotational temperatures (Kelvin)      0.07077     0.01839     0.01608
 Rotational constants (GHZ):           1.47452     0.38325     0.33509
 Zero-point vibrational energy     650388.1 (Joules/Mol)
                                  155.44649 (Kcal/Mol)
 Warning -- explicit consideration of  20 degrees of freedom as
           vibrations may cause significant error
 Vibrational temperatures:     41.79    99.12   143.51   180.77   200.87
          (Kelvin)            242.74   325.89   333.83   373.32   400.22
                              429.53   455.45   513.04   553.08   603.71
                              625.51   715.03   754.20   811.11   882.93
                              924.05  1016.13  1054.13  1087.53  1149.00
                             1174.89  1189.67  1263.40  1281.15  1314.19
                             1320.35  1340.87  1399.03  1459.38  1527.71
                             1538.13  1566.36  1618.43  1640.38  1669.97
                             1702.38  1708.46  1729.79  1756.25  1775.82
                             1855.39  1865.25  1880.69  1900.35  1904.26
                             1973.94  1999.93  2032.61  2060.86  2070.44
                             2148.73  2162.47  2170.47  2187.08  2197.17
                             2208.81  2215.41  2223.98  2384.70  2420.32
                             2437.20  4341.06  4362.53  4388.70  4397.72
                             4400.62  4420.28  4426.46  4480.29  4518.10
                             4538.04  4624.63  4634.72  4650.05  4968.91
                             5102.12

 Zero-point correction=                           0.247720 (Hartree/Particle)
 Thermal correction to Energy=                    0.261079
 Thermal correction to Enthalpy=                  0.262023
 Thermal correction to Gibbs Free Energy=         0.207532
 Sum of electronic and zero-point Energies=           -633.185072
 Sum of electronic and thermal Energies=              -633.171713
 Sum of electronic and thermal Enthalpies=            -633.170769
 Sum of electronic and thermal Free Energies=         -633.225260

                     E (Thermal)             CV                S
                      KCal/Mol        Cal/Mol-Kelvin    Cal/Mol-Kelvin
 Total                  163.829             51.354            114.686
 Electronic               0.000              0.000              0.000
 Translational            0.889              2.981             41.680
 Rotational               0.889              2.981             31.807
 Vibrational            162.052             45.392             41.199
 Vibration     1          0.593              1.984              5.893
 Vibration     2          0.598              1.969              4.185
 Vibration     3          0.604              1.949              3.459
 Vibration     4          0.611              1.927              3.012
 Vibration     5          0.615              1.914              2.809
 Vibration     6          0.625              1.881              2.450
 Vibration     7          0.650              1.801              1.906
 Vibration     8          0.653              1.792              1.863
 Vibration     9          0.668              1.747              1.665
 Vibration    10          0.679              1.714              1.545
 Vibration    11          0.692              1.676              1.425
 Vibration    12          0.703              1.642              1.328
 Vibration    13          0.732              1.562              1.137
 Vibration    14          0.753              1.503              1.022
 Vibration    15          0.782              1.428              0.893
 Vibration    16          0.795              1.394              0.843
 Vibration    17          0.852              1.257              0.666
 Vibration    18          0.879              1.196              0.600
 Vibration    19          0.920              1.110              0.516
 Vibration    20          0.973              1.003              0.427

                           ! Non-Optimized Parameters !
 Normal termination of Gaussian 16 at Thu Dec 10 11:09:39 2020.

 ----------------------------------------------------------------------
 # B3LYP/6-311++G(d,p) empiricaldispersion=gd3bj scf=xqc pop=npa geom=c
 heck
 ----------------------------------------------------------------------

 --------------------------------------
 CID_64661413_JID_4998_Energie_neutraal
 --------------------------------------
 Structure from the checkpoint file:  "JID_4998.chk"
 Charge =  0 Multiplicity = 1

 SCF Done:  E(RB3LYP) =  -633.612968440     A.U. after   14 cycles
 Normal termination of Gaussian 16 at Thu Dec 10 11:12:22 2020.

 ----------------------------------------------------------------------
 # B3LYP/6-311++G(d,p) empiricaldispersion=gd3bj scf=xqc pop=npa geom=c
 heck
 ----------------------------------------------------------------------

 ------------------------------------
 CID_64661413_JID_4998_Energie_kation
 ------------------------------------
 Structure from the checkpoint file:  "JID_4998.chk"
 Charge =  1 Multiplicity = 2

 SCF Done:  E(UB3LYP) =  -633.343196981     A.U. after   23 cycles
 Normal termination of Gaussian 16 at Thu Dec 10 11:18:22 2020.
 Gaussian 16:  ES64L-G16RevA.03 25-Dec-2016

 ----------------------------------------------------------------------
 # B3LYP/6-311++G(d,p) empiricaldispersion=gd3bj scf=xqc pop=npa geom=c
 heck
 ----------------------------------------------------------------------

 -----------------------------------
 CID_64661413_JID_4998_Energie_anion
 -----------------------------------
 Structure from the checkpoint file:  "JID_4998.chk"
 Charge = -1 Multiplicity = 2

                         Standard orientation:
 ---------------------------------------------------------------------
 Center     Atomic      Atomic             Coordinates (Angstroms)
 Number     Number       Type             X           Y           Z
 ---------------------------------------------------------------------
      1          6           0        4.039162   -1.439886    0.644169
      2          6           0        3.084653   -0.296098    0.988106
      3          6           0        2.344175    0.258295   -0.225058
      4          6           0        1.311442    1.375370    0.145308
      5          6           0        0.017872    0.601150    0.071508
      6          6           0        0.271022   -0.629271   -0.537702
      7          8           0        1.590965   -0.818651   -0.853782
      8          6           0       -0.748228   -1.533465   -0.793501
      9          6           0       -2.053601   -1.177622   -0.425605
     10          6           0       -2.316772    0.057874    0.180933
     11          6           0       -1.270488    0.962060    0.425368
     12          8           0       -3.562079    0.479207    0.570080
     13          6           0       -4.654254   -0.389123    0.337714
     14          7           0        1.253714    2.556583   -0.720051
     15          1           0        3.495076   -2.263778    0.173831
     16          1           0        4.536335   -1.822383    1.541907
     17          1           0        4.816623   -1.107784   -0.054894
     18          1           0        2.337945   -0.632260    1.720179
     19          1           0        3.634347    0.532041    1.456922
     20          1           0        3.055709    0.615958   -0.978693
     21          1           0        1.518328    1.735149    1.160634
     22          1           0       -0.542162   -2.487957   -1.265894
     23          1           0       -2.857080   -1.878394   -0.618249
     24          1           0       -1.491226    1.923949    0.875858
     25          1           0       -4.784084   -0.599816   -0.732863
     26          1           0       -4.538214   -1.339930    0.876177
     27          1           0       -5.538181    0.130650    0.711988
     28          1           0        2.166697    3.009823   -0.751741
     29          1           0        1.032906    2.268502   -1.672634
 ---------------------------------------------------------------------

 SCF Done:  E(UB3LYP) =  -633.599525837     A.U. after   33 cycles
 SCF Done:  E(UB3LYP) =  -633.599525837     a.u. after    1 cycles

 The electronic state is 2-A.
 Alpha  occ. eigenvalues --  -19.05391 -19.04814 -14.19872 -10.13191 -10.12855
 Alpha  occ. eigenvalues --  -10.12542 -10.12412 -10.11278 -10.07739 -10.07667
 Alpha  occ. eigenvalues --  -10.07655 -10.07569 -10.07402 -10.06645  -0.97008
 Alpha  occ. eigenvalues --   -0.96905  -0.79586  -0.75407  -0.69709  -0.66579
 Alpha  occ. eigenvalues --   -0.65634  -0.61470  -0.59464  -0.54622  -0.51167
 Alpha  occ. eigenvalues --   -0.50081  -0.47954  -0.43455  -0.41116  -0.40639
 Alpha  occ. eigenvalues --   -0.39639  -0.37453  -0.37202  -0.35454  -0.34676
 Alpha  occ. eigenvalues --   -0.33510  -0.32872  -0.31967  -0.30644  -0.29621
 Alpha  occ. eigenvalues --   -0.28911  -0.27405  -0.26744  -0.26523  -0.25202
 Alpha  occ. eigenvalues --   -0.24740  -0.24346  -0.22940  -0.19439  -0.15977
 Alpha  occ. eigenvalues --   -0.14909  -0.10612   0.04236
 Alpha virt. eigenvalues --    0.05513   0.06994   0.07432   0.07739   0.08414
 Alpha virt. eigenvalues --    0.09237   0.09518   0.09881   0.10467   0.10842
 Alpha virt. eigenvalues --    0.11281   0.11531   0.11954   0.12349   0.13309

  Beta  occ. eigenvalues --  -19.05385 -19.04814 -14.19829 -10.13201 -10.12842
  Beta  occ. eigenvalues --  -10.12499 -10.12416 -10.11271 -10.07705 -10.07654
  Beta  occ. eigenvalues --  -10.07630 -10.07549 -10.07368 -10.06627  -0.96999
  Beta  occ. eigenvalues --   -0.96895  -0.79512  -0.75364  -0.69668  -0.66511
  Beta  occ. eigenvalues --   -0.65593  -0.61423  -0.59397  -0.54555  -0.51117
  Beta  occ. eigenvalues --   -0.50039  -0.47908  -0.43417  -0.41089  -0.40601
  Beta  occ. eigenvalues --   -0.39571  -0.37414  -0.37173  -0.35415  -0.34637
  Beta  occ. eigenvalues --   -0.33467  -0.32840  -0.31929  -0.30605  -0.29590
  Beta  occ. eigenvalues --   -0.28851  -0.27357  -0.26711  -0.26493  -0.25172
  Beta  occ. eigenvalues --   -0.24711  -0.24309  -0.22910  -0.19378  -0.15819
  Beta  occ. eigenvalues --   -0.14847  -0.10539
  Beta virt. eigenvalues --    0.06431   0.06764   0.07421   0.07989   0.08203
  Beta virt. eigenvalues --    0.08799   0.09516   0.10022   0.10331   0.10801
  Beta virt. eigenvalues --    0.10976   0.11449   0.11701   0.12334   0.12612

 Mulliken charges and spin densities:
               1          2
     1  C    0.405957  -1.083070
     2  C   -0.019034  -0.105415
     3  C   -0.608308   0.533624
     4  C    0.680282  -0.255666
     5  C    1.293043  -0.256697
     6  C   -0.253944  -0.756762
     7  O   -0.082645   0.015310
     8  C   -0.351242  -0.311060
     9  C    0.505412  -0.164751
    10  C   -0.589176   0.026805
    11  C   -0.498283   0.091001
    12  O   -0.206456   0.048605
    13  C    0.881877  -1.210676
    14  N   -0.296855  -0.050089
    15  H    0.135734   0.016336
    16  H   -0.150327   0.281049
    17  H   -0.138657   0.274289
    18  H    0.087724   0.061535
    19  H   -0.393897   0.539041
    20  H   -0.174467   0.416905
    21  H   -0.106176   0.319618
    22  H   -0.041171   0.206431
    23  H   -0.145749   0.324224
    24  H    0.139964   0.036090
    25  H   -0.281508   0.431290
    26  H   -0.197674   0.344039
    27  H   -0.386744   0.555799
    28  H   -0.299146   0.543001
    29  H    0.091468   0.129197
 Sum of Mulliken charges =  -1.00000   1.00000

 Dipole moment (field-independent basis, Debye):
    X=              0.1724    Y=             -2.3208    Z=             -0.1273  Tot=              2.3307
 Quadrupole moment (field-independent basis, Debye-Ang):
   XX=           -184.2043   YY=           -126.6280   ZZ=           -111.3677
   XY=            -12.8902   XZ=             -1.0529   YZ=              1.0796

 Summary of Natural Population Analysis:

                                       Natural Population
                Natural  -----------------------------------------------
    Atom  No    Charge         Core      Valence    Rydberg      Total
 -----------------------------------------------------------------------
      C    1   -0.28672      0.99966     2.28133    0.00573     3.28672
      C    2   -0.19997      0.99961     2.19181    0.00855     3.19997
      C    3    0.06481      0.99952     1.91988    0.01579     2.93519
      C    4   -0.02664      0.99955     2.01294    0.01416     3.02664
      C    5   -0.04015      0.99946     2.03165    0.00904     3.04015
      C    6    0.14769      0.99931     1.83998    0.01301     2.85231
      O    7   -0.28325      0.99987     3.27512    0.00826     4.28325
      C    8   -0.11696      0.99953     2.10870    0.00873     3.11696
      C    9   -0.13234      0.99954     2.12441    0.00840     3.13234
      C   10    0.14601      0.99939     1.84125    0.01335     2.85399
      C   11   -0.09725      0.99948     2.08895    0.00882     3.09725
      O   12   -0.27651      0.99986     3.26685    0.00979     4.27651
      C   13   -0.10049      0.99961     2.09154    0.00935     3.10049
      N   14   -0.41459      0.99977     2.90448    0.01034     3.91459
      H   15    0.10247      0.00000     0.39632    0.00120     0.39753
      H   16    0.09735      0.00000     0.40187    0.00078     0.40265
      H   17    0.09696      0.00000     0.40202    0.00102     0.40304
      H   18    0.09736      0.00000     0.40130    0.00134     0.40264
      H   19    0.10127      0.00000     0.39672    0.00201     0.39873
      H   20    0.09116      0.00000     0.40708    0.00176     0.40884
      H   21    0.09963      0.00000     0.39851    0.00186     0.40037
      H   22    0.10363      0.00000     0.39502    0.00135     0.39637
      H   23    0.10523      0.00000     0.39349    0.00128     0.39477
      H   24    0.10885      0.00000     0.38964    0.00151     0.39115
      H   25    0.08456      0.00000     0.41352    0.00192     0.41544
      H   26    0.08309      0.00000     0.41514    0.00177     0.41691
      H   27    0.09329      0.00000     0.40545    0.00126     0.40671
      H   28    0.17805      0.00000     0.31801    0.00394     0.32195
      H   29    0.17346      0.00000     0.32459    0.00195     0.32654
 =======================================================================
   * Total *    0.00000     13.99415    37.83757    0.16828    52.00000

 Normal termination of Gaussian 16 at Thu Dec 10 11:27:06 2020.
