 Gaussian 16, Revision A.03,

 -----------------------------------------------------------
 # opt freq B3LYP/6-31G(d) empiricaldispersion=gd3bj scf=xqc
 -----------------------------------------------------------

 -------------------------------
 CID_104009224_JID_3419_neutraal
 -------------------------------
 Symbolic Z-matrix:
 Charge =  0 Multiplicity = 1

 SCF Done:  E(RB3LYP) =  -591.423309900     A.U. after   14 cycles
 SCF Done:  E(RB3LYP) =  -591.435455359     A.U. after   12 cycles
 SCF Done:  E(RB3LYP) =  -591.437123057     A.U. after   11 cycles
 SCF Done:  E(RB3LYP) =  -591.438370572     A.U. after   12 cycles
 SCF Done:  E(RB3LYP) =  -591.438931691     A.U. after   12 cycles
 SCF Done:  E(RB3LYP) =  -591.439131981     A.U. after   12 cycles
 SCF Done:  E(RB3LYP) =  -591.439339260     A.U. after   11 cycles
 SCF Done:  E(RB3LYP) =  -591.439424905     A.U. after   10 cycles
 SCF Done:  E(RB3LYP) =  -591.439445251     A.U. after    9 cycles
 SCF Done:  E(RB3LYP) =  -591.439449521     A.U. after    9 cycles
 SCF Done:  E(RB3LYP) =  -591.439455910     A.U. after    9 cycles
 SCF Done:  E(RB3LYP) =  -591.439457990     A.U. after   10 cycles
 SCF Done:  E(RB3LYP) =  -591.439461524     A.U. after    9 cycles
 SCF Done:  E(RB3LYP) =  -591.439462010     A.U. after    8 cycles
 SCF Done:  E(RB3LYP) =  -591.439462076     A.U. after    7 cycles
 Optimization completed.
    -- Stationary point found.
 Normal termination of Gaussian 16 at Wed Dec  9 23:13:28 2020.

 --------------------------------------------------------------------
 #N Geom=AllCheck Guess=TCheck SCRF=Check GenChk RB3LYP/6-31G(d) Freq
 --------------------------------------------------------------------

 Structure from the checkpoint file:  "JID_3419.chk"
 -------------------------------
 CID_104009224_JID_3419_neutraal
 -------------------------------
 Charge =  0 Multiplicity = 1

 SCF Done:  E(RB3LYP) =  -591.439462076     A.U. after    1 cycles

  Exact polarizability: 140.612  -7.411 100.778   6.471  10.877  93.925
 Approx polarizability: 173.287 -16.430 152.563  11.900  27.453 154.393

                      1                      2                      3
                      A                      A                      A
 Frequencies --     32.8997                42.7581                50.9142
 Red. masses --      4.3155                 3.1362                 3.3770
 Frc consts  --      0.0028                 0.0034                 0.0052
 IR Inten    --      0.8277                 0.4255                 1.1943

                      4                      5                      6
                      A                      A                      A
 Frequencies --     78.6985               104.5104               137.0744
 Red. masses --      3.2751                 2.7172                 3.9681
 Frc consts  --      0.0120                 0.0175                 0.0439
 IR Inten    --      0.3445                 1.2482                 0.8291

                      7                      8                      9
                      A                      A                      A
 Frequencies --    227.1345               270.8447               288.8544
 Red. masses --      1.4649                 3.0924                 2.6849
 Frc consts  --      0.0445                 0.1337                 0.1320
 IR Inten    --      1.1573                 0.4548                 0.3934

                     10                     11                     12
                      A                      A                      A
 Frequencies --    322.4777               346.3871               371.3424
 Red. masses --      2.7718                 3.1460                 2.7289
 Frc consts  --      0.1698                 0.2224                 0.2217
 IR Inten    --      5.5324                 4.2566                 1.0746

                     13                     14                     15
                      A                      A                      A
 Frequencies --    410.0469               437.7544               478.2109
 Red. masses --      1.4865                 2.7868                 1.9327
 Frc consts  --      0.1473                 0.3146                 0.2604
 IR Inten    --     57.1694                18.6593                 5.3906

                     16                     17                     18
                      A                      A                      A
 Frequencies --    514.3843               589.2572               642.0033
 Red. masses --      2.9044                 2.3890                 2.2557
 Frc consts  --      0.4528                 0.4887                 0.5478
 IR Inten    --      5.6325                71.2497                 1.9142

                     19                     20                     21
                      A                      A                      A
 Frequencies --    659.0957               685.9249               724.1436
 Red. masses --      2.1015                 2.3433                 1.9806
 Frc consts  --      0.5379                 0.6496                 0.6119
 IR Inten    --     23.3616                55.6914                 5.3318

                     22                     23                     24
                      A                      A                      A
 Frequencies --    778.0913               802.9154               815.9976
 Red. masses --      2.6361                 1.5402                 1.3562
 Frc consts  --      0.9403                 0.5850                 0.5321
 IR Inten    --      7.2112                 7.2640                 5.2952

                     25                     26                     27
                      A                      A                      A
 Frequencies --    822.0123               836.7923               894.1300
 Red. masses --      1.4127                 1.3677                 2.3915
 Frc consts  --      0.5624                 0.5643                 1.1265
 IR Inten    --      2.7981                34.1284                 2.5320

                     28                     29                     30
                      A                      A                      A
 Frequencies --    937.5793               951.4442               960.8822
 Red. masses --      1.8788                 5.5316                 2.9610
 Frc consts  --      0.9731                 2.9503                 1.6108
 IR Inten    --      1.5513                22.7701                 4.4201

                     31                     32                     33
                      A                      A                      A
 Frequencies --   1025.2508              1043.4102              1052.0017
 Red. masses --      2.5544                 2.2425                 1.6239
 Frc consts  --      1.5820                 1.4385                 1.0589
 IR Inten    --     20.5371                37.1225                 7.0674

                     34                     35                     36
                      A                      A                      A
 Frequencies --   1071.3675              1084.6594              1105.2238
 Red. masses --      2.8691                 2.7219                 2.2810
 Frc consts  --      1.9403                 1.8868                 1.6417
 IR Inten    --     17.4361                 8.4506                41.7849

                     37                     38                     39
                      A                      A                      A
 Frequencies --   1132.3979              1162.9633              1170.5501
 Red. masses --      2.4670                 2.5900                 2.0775
 Frc consts  --      1.8639                 2.0639                 1.6772
 IR Inten    --     27.7390               126.6513                10.2641

                     40                     41                     42
                      A                      A                      A
 Frequencies --   1186.0438              1215.0785              1223.4640
 Red. masses --      1.8925                 1.8998                 1.4596
 Frc consts  --      1.5685                 1.6526                 1.2873
 IR Inten    --     45.6800                 6.6024                26.7594

                     43                     44                     45
                      A                      A                      A
 Frequencies --   1239.6266              1271.2554              1272.6147
 Red. masses --      1.8519                 1.2577                 1.7234
 Frc consts  --      1.6766                 1.1976                 1.6445
 IR Inten    --     50.8170                 2.6124                36.2352

                     46                     47                     48
                      A                      A                      A
 Frequencies --   1289.6606              1319.4994              1343.2712
 Red. masses --      1.4621                 1.4479                 1.1935
 Frc consts  --      1.4327                 1.4852                 1.2688
 IR Inten    --     15.0158                 5.6280                50.9918

                     49                     50                     51
                      A                      A                      A
 Frequencies --   1346.0619              1361.8460              1406.1848
 Red. masses --      2.1861                 1.7773                 1.3737
 Frc consts  --      2.3337                 1.9421                 1.6003
 IR Inten    --     25.9369                11.4169                36.5586

                     52                     53                     54
                      A                      A                      A
 Frequencies --   1412.0810              1428.7313              1435.5529
 Red. masses --      2.1577                 1.5431                 2.2017
 Frc consts  --      2.5348                 1.8559                 2.6734
 IR Inten    --     25.1815                43.0089                12.1567

                     55                     56                     57
                      A                      A                      A
 Frequencies --   1448.0326              1492.1764              1497.7308
 Red. masses --      1.3468                 1.1192                 1.5249
 Frc consts  --      1.6639                 1.4683                 2.0154
 IR Inten    --     14.3917                 3.7515                12.0601

                     58                     59                     60
                      A                      A                      A
 Frequencies --   1518.6067              1519.4911              1523.1836
 Red. masses --      1.0457                 1.0648                 1.1434
 Frc consts  --      1.4209                 1.4485                 1.5630
 IR Inten    --      5.0256                 0.2604                 2.4533

                     61                     62                     63
                      A                      A                      A
 Frequencies --   1541.2842              1548.4099              1647.0844
 Red. masses --      1.1028                 1.8457                 5.2623
 Frc consts  --      1.5435                 2.6073                 8.4111
 IR Inten    --      8.4259                39.9494                76.2300

                     64                     65                     66
                      A                      A                      A
 Frequencies --   2991.0060              3004.4300              3055.1813
 Red. masses --      1.0723                 1.0838                 1.0360
 Frc consts  --      5.6518                 5.7642                 5.6976
 IR Inten    --     45.8672                63.4913                13.3638

                     67                     68                     69
                      A                      A                      A
 Frequencies --   3059.3709              3068.4242              3074.6850
 Red. masses --      1.0847                 1.0600                 1.0604
 Frc consts  --      5.9819                 5.8800                 5.9063
 IR Inten    --     17.9309                32.5888                 9.3579

                     70                     71                     72
                      A                      A                      A
 Frequencies --   3092.8237              3123.0406              3129.4155
 Red. masses --      1.0932                 1.1008                 1.1087
 Frc consts  --      6.1610                 6.3259                 6.3971
 IR Inten    --     25.4542                43.3381                16.4464

                     73                     74                     75
                      A                      A                      A
 Frequencies --   3135.8031              3137.2755              3254.1849
 Red. masses --      1.1054                 1.1038                 1.0957
 Frc consts  --      6.4045                 6.4008                 6.8363
 IR Inten    --     28.8400                58.8282                 6.3972

                     76                     77                     78
                      A                      A                      A
 Frequencies --   3291.8091              3535.0911              3677.3607
 Red. masses --      1.0970                 1.0747                 1.0814
 Frc consts  --      7.0037                 7.9126                 8.6164
 IR Inten    --      3.1333                 2.0376                73.5512

 - Thermochemistry -
 -------------------
 Temperature   298.150 Kelvin.  Pressure   1.00000 Atm.
 Atom     1 has atomic number  6 and mass  12.00000

 Molecular mass:   181.12151 amu.
 Principal axes and moments of inertia in atomic units:
                           1         2         3
     Eigenvalues --   909.116755617.790676105.99503
           X            0.99992   0.01265  -0.00050
           Y           -0.01265   0.99985   0.01150
           Z            0.00064  -0.01149   0.99993
 This molecule is an asymmetric top.
 Rotational symmetry number  1.
 Warning -- assumption of classical behavior for rotation
           may cause significant error
 Rotational temperatures (Kelvin)      0.09527     0.01542     0.01419
 Rotational constants (GHZ):           1.98516     0.32125     0.29557
 Zero-point vibrational energy     635093.0 (Joules/Mol)
                                  151.79087 (Kcal/Mol)
 Warning -- explicit consideration of  17 degrees of freedom as
           vibrations may cause significant error
 Vibrational temperatures:     47.34    61.52    73.25   113.23   150.37
          (Kelvin)            197.22   326.80   389.69   415.60   463.97
                              498.37   534.28   589.97   629.83   688.04
                              740.08   847.81   923.70   948.29   986.89
                             1041.88  1119.50  1155.22  1174.04  1182.69
                             1203.96  1286.45  1348.97  1368.92  1382.50
                             1475.11  1501.23  1513.60  1541.46  1560.58
                             1590.17  1629.27  1673.24  1684.16  1706.45
                             1748.23  1760.29  1783.55  1829.05  1831.01
                             1855.53  1898.47  1932.67  1936.68  1959.39
                             2023.19  2031.67  2055.63  2065.44  2083.40
                             2146.91  2154.90  2184.94  2186.21  2191.52
                             2217.56  2227.82  2369.79  4303.39  4322.70
                             4395.72  4401.75  4414.78  4423.79  4449.88
                             4493.36  4502.53  4511.72  4513.84  4682.05
                             4736.18  5086.21  5290.90

 Zero-point correction=                           0.241894 (Hartree/Particle)
 Thermal correction to Energy=                    0.254647
 Thermal correction to Enthalpy=                  0.255592
 Thermal correction to Gibbs Free Energy=         0.200954
 Sum of electronic and zero-point Energies=           -591.197568
 Sum of electronic and thermal Energies=              -591.184815
 Sum of electronic and thermal Enthalpies=            -591.183870
 Sum of electronic and thermal Free Energies=         -591.238508

                     E (Thermal)             CV                S
                      KCal/Mol        Cal/Mol-Kelvin    Cal/Mol-Kelvin
 Total                  159.794             47.955            114.995
 Electronic               0.000              0.000              0.000
 Translational            0.889              2.981             41.489
 Rotational               0.889              2.981             31.811
 Vibrational            158.016             41.993             41.695
 Vibration     1          0.594              1.983              5.646
 Vibration     2          0.595              1.980              5.127
 Vibration     3          0.595              1.977              4.782
 Vibration     4          0.600              1.963              3.923
 Vibration     5          0.605              1.946              3.368
 Vibration     6          0.614              1.916              2.844
 Vibration     7          0.651              1.800              1.901
 Vibration     8          0.675              1.727              1.591
 Vibration     9          0.685              1.694              1.481
 Vibration    10          0.707              1.630              1.298
 Vibration    11          0.724              1.583              1.183
 Vibration    12          0.743              1.531              1.074
 Vibration    13          0.774              1.448              0.926
 Vibration    14          0.798              1.388              0.834
 Vibration    15          0.835              1.298              0.715
 Vibration    16          0.869              1.218              0.623
 Vibration    17          0.947              1.055              0.469

                           ! Non-Optimized Parameters !
 Normal termination of Gaussian 16 at Wed Dec  9 23:19:26 2020.

 ----------------------------------------------------------------------
 # B3LYP/6-311++G(d,p) empiricaldispersion=gd3bj scf=xqc pop=npa geom=c
 heck
 ----------------------------------------------------------------------

 ---------------------------------------
 CID_104009224_JID_3419_Energie_neutraal
 ---------------------------------------
 Structure from the checkpoint file:  "JID_3419.chk"
 Charge =  0 Multiplicity = 1

 SCF Done:  E(RB3LYP) =  -591.610347042     A.U. after   14 cycles
 Normal termination of Gaussian 16 at Wed Dec  9 23:22:05 2020.

 ----------------------------------------------------------------------
 # B3LYP/6-311++G(d,p) empiricaldispersion=gd3bj scf=xqc pop=npa geom=c
 heck
 ----------------------------------------------------------------------

 -------------------------------------
 CID_104009224_JID_3419_Energie_kation
 -------------------------------------
 Structure from the checkpoint file:  "JID_3419.chk"
 Charge =  1 Multiplicity = 2

 SCF Done:  E(UB3LYP) =  -591.335370338     A.U. after   23 cycles
 Normal termination of Gaussian 16 at Wed Dec  9 23:28:13 2020.
 Gaussian 16:  ES64L-G16RevA.03 25-Dec-2016

 ----------------------------------------------------------------------
 # B3LYP/6-311++G(d,p) empiricaldispersion=gd3bj scf=xqc pop=npa geom=c
 heck
 ----------------------------------------------------------------------

 ------------------------------------
 CID_104009224_JID_3419_Energie_anion
 ------------------------------------
 Structure from the checkpoint file:  "JID_3419.chk"
 Charge = -1 Multiplicity = 2

                         Standard orientation:
 ---------------------------------------------------------------------
 Center     Atomic      Atomic             Coordinates (Angstroms)
 Number     Number       Type             X           Y           Z
 ---------------------------------------------------------------------
      1          6           0        3.763892    1.879314   -0.424977
      2          6           0        4.186788    0.442156   -0.129293
      3          8           0        3.189229   -0.525227   -0.424976
      4          6           0        2.104596   -0.559183    0.470305
      5          6           0        0.863220    0.338059    0.204460
      6          6           0       -0.023896   -0.904511    0.538505
      7          6           0        1.209804   -1.801652    0.300420
      8          7           0       -1.203383   -1.217756   -0.232992
      9          6           0       -2.286373   -0.333597   -0.137013
     10          6           0       -2.493834    0.686753    0.779928
     11          7           0       -3.726337    1.204928    0.489583
     12          7           0       -4.325291    0.607280   -0.553842
     13          6           0       -3.459448   -0.331781   -0.937641
     14          1           0        3.424495    1.970410   -1.461972
     15          1           0        4.610350    2.560017   -0.276226
     16          1           0        2.950601    2.204705    0.231262
     17          1           0        5.044206    0.167839   -0.752537
     18          1           0        4.497485    0.346687    0.924459
     19          1           0        2.462550   -0.450021    1.505821
     20          1           0        0.738237    1.249594    0.796613
     21          1           0        0.798994    0.584175   -0.860360
     22          1           0       -0.307392   -0.899846    1.597554
     23          1           0        1.255642   -2.132254   -0.743799
     24          1           0        1.369055   -2.661442    0.956182
     25          1           0       -0.976527   -1.439714   -1.197250
     26          1           0       -1.884909    1.069158    1.584125
     27          1           0       -4.203191    1.957878    0.959700
     28          1           0       -3.696839   -0.979895   -1.771169
 ---------------------------------------------------------------------

 SCF Done:  E(UB3LYP) =  -591.598412807     A.U. after   32 cycles

 The electronic state is 2-A.
 Alpha  occ. eigenvalues --  -19.03119 -14.28176 -14.23368 -14.22661 -10.12715
 Alpha  occ. eigenvalues --  -10.12257 -10.11264 -10.10488 -10.09897 -10.08939
 Alpha  occ. eigenvalues --  -10.07759 -10.06703 -10.06534  -0.94724  -0.94534
 Alpha  occ. eigenvalues --   -0.83888  -0.74426  -0.71552  -0.66831  -0.65505
 Alpha  occ. eigenvalues --   -0.57454  -0.56892  -0.52568  -0.50406  -0.48718
 Alpha  occ. eigenvalues --   -0.47750  -0.44969  -0.40989  -0.40431  -0.38141
 Alpha  occ. eigenvalues --   -0.36602  -0.35967  -0.34850  -0.34208  -0.33911
 Alpha  occ. eigenvalues --   -0.30236  -0.30197  -0.29761  -0.28999  -0.28464
 Alpha  occ. eigenvalues --   -0.25182  -0.24867  -0.23929  -0.21722  -0.20251
 Alpha  occ. eigenvalues --   -0.19841  -0.16442  -0.15831  -0.10604   0.04320
 Alpha virt. eigenvalues --    0.06150   0.07259   0.07420   0.08387   0.09045
 Alpha virt. eigenvalues --    0.09669   0.09950   0.10257   0.10593   0.11521
 Alpha virt. eigenvalues --    0.12106   0.12693   0.13045   0.13248   0.14577

  Beta  occ. eigenvalues --  -19.03109 -14.28136 -14.23367 -14.22659 -10.12700
  Beta  occ. eigenvalues --  -10.12235 -10.11255 -10.10489 -10.09871 -10.08936
  Beta  occ. eigenvalues --  -10.07753 -10.06685 -10.06505  -0.94692  -0.94516
  Beta  occ. eigenvalues --   -0.83879  -0.74402  -0.71504  -0.66797  -0.65464
  Beta  occ. eigenvalues --   -0.57422  -0.56850  -0.52506  -0.50366  -0.48674
  Beta  occ. eigenvalues --   -0.47700  -0.44908  -0.40955  -0.40378  -0.38100
  Beta  occ. eigenvalues --   -0.36561  -0.35931  -0.34811  -0.34182  -0.33874
  Beta  occ. eigenvalues --   -0.30209  -0.30172  -0.29734  -0.28965  -0.28432
  Beta  occ. eigenvalues --   -0.25153  -0.24835  -0.23905  -0.21685  -0.20232
  Beta  occ. eigenvalues --   -0.19829  -0.16402  -0.15809  -0.10591
  Beta virt. eigenvalues --    0.06699   0.07336   0.07739   0.08032   0.09000
  Beta virt. eigenvalues --    0.09258   0.10120   0.10300   0.10436   0.11017
  Beta virt. eigenvalues --    0.11851   0.12200   0.12940   0.13271   0.13750

 Mulliken charges and spin densities:
               1          2
     1  C    0.235140  -0.702233
     2  C    0.337852  -0.383988
     3  O   -0.085475   0.036249
     4  C   -0.662736   0.349253
     5  C    0.155944  -0.344061
     6  C   -0.207962  -0.189376
     7  C    0.816754  -1.309099
     8  N    0.088311   0.019683
     9  C    0.259632  -0.367325
    10  C    0.954023  -1.241955
    11  N    0.067952  -0.078439
    12  N   -0.368880   0.132178
    13  C   -0.444686   0.380325
    14  H    0.208224  -0.076127
    15  H   -0.524779   0.664467
    16  H   -0.519379   0.688129
    17  H   -0.239240   0.398053
    18  H    0.014352   0.091485
    19  H   -0.331246   0.492281
    20  H    0.480302  -0.372038
    21  H    0.059412   0.145388
    22  H   -0.063988   0.260800
    23  H    0.157241  -0.009911
    24  H   -0.005391   0.170416
    25  H    0.202793   0.001464
    26  H   -1.450959   1.655204
    27  H   -0.265134   0.593698
    28  H    0.131924  -0.004523
 Sum of Mulliken charges =  -1.00000   1.00000

 Dipole moment (field-independent basis, Debye):
    X=              0.4848    Y=             -5.6251    Z=             -5.3443  Tot=              7.7742
 Quadrupole moment (field-independent basis, Debye-Ang):
   XX=           -175.3407   YY=           -118.7609   ZZ=           -113.5638
   XY=              1.5697   XZ=              3.2791   YZ=             -6.0532

 Summary of Natural Population Analysis:

                                       Natural Population
                Natural  -----------------------------------------------
    Atom  No    Charge         Core      Valence    Rydberg      Total
 -----------------------------------------------------------------------
      C    1   -0.30145      0.99967     2.29694    0.00484     3.30145
      C    2   -0.00738      0.99959     1.99520    0.01259     3.00738
      O    3   -0.30045      0.99987     3.29149    0.00909     4.30045
      C    4    0.06343      0.99953     1.92081    0.01624     2.93657
      C    5   -0.20813      0.99960     2.19922    0.00931     3.20813
      C    6   -0.01260      0.99959     1.99957    0.01344     3.01260
      C    7   -0.19151      0.99961     2.18151    0.01039     3.19151
      N    8   -0.31743      0.99967     2.80767    0.01008     3.81743
      C    9    0.02928      0.99949     1.95913    0.01210     2.97072
      C   10   -0.04134      0.99953     2.02951    0.01229     3.04134
      N   11   -0.16547      0.99971     2.65075    0.01500     3.66547
      N   12   -0.15398      0.99974     2.64019    0.01405     3.65398
      C   13   -0.03246      0.99959     2.01959    0.01327     3.03246
      H   14    0.09758      0.00000     0.40151    0.00091     0.40242
      H   15    0.10159      0.00000     0.39697    0.00143     0.39841
      H   16    0.10215      0.00000     0.39624    0.00160     0.39785
      H   17    0.08557      0.00000     0.41323    0.00120     0.41443
      H   18    0.07840      0.00000     0.41983    0.00177     0.42160
      H   19    0.08380      0.00000     0.41383    0.00237     0.41620
      H   20    0.10502      0.00000     0.39315    0.00183     0.39498
      H   21    0.09991      0.00000     0.39888    0.00122     0.40009
      H   22    0.09733      0.00000     0.40061    0.00206     0.40267
      H   23    0.09867      0.00000     0.40003    0.00130     0.40133
      H   24    0.10032      0.00000     0.39871    0.00098     0.39968
      H   25    0.17833      0.00000     0.31927    0.00240     0.32167
      H   26    0.11360      0.00000     0.38218    0.00422     0.38640
      H   27    0.20322      0.00000     0.28971    0.00707     0.29678
      H   28    0.09399      0.00000     0.40519    0.00082     0.40601
 =======================================================================
   * Total *    0.00000     12.99520    35.82092    0.18387    49.00000

 Normal termination of Gaussian 16 at Wed Dec  9 23:36:34 2020.
