 Gaussian 16, Revision A.03,

 -----------------------------------------------------------
 # opt freq B3LYP/6-31G(d) empiricaldispersion=gd3bj scf=xqc
 -----------------------------------------------------------

 -------------------------------
 CID_102775934_JID_2585_neutraal
 -------------------------------
 Symbolic Z-matrix:
 Charge =  0 Multiplicity = 1

 SCF Done:  E(RB3LYP) =  -502.590337245     A.U. after   12 cycles
 SCF Done:  E(RB3LYP) =  -502.605383981     A.U. after   11 cycles
 SCF Done:  E(RB3LYP) =  -502.607382142     A.U. after   10 cycles
 SCF Done:  E(RB3LYP) =  -502.608462621     A.U. after   10 cycles
 SCF Done:  E(RB3LYP) =  -502.609849315     A.U. after   13 cycles
 SCF Done:  E(RB3LYP) =  -502.610745357     A.U. after   12 cycles
 SCF Done:  E(RB3LYP) =  -502.612650429     A.U. after   10 cycles
 SCF Done:  E(RB3LYP) =  -502.614082738     A.U. after   11 cycles
 SCF Done:  E(RB3LYP) =  -502.614303552     A.U. after   11 cycles
 SCF Done:  E(RB3LYP) =  -502.614415965     A.U. after   10 cycles
 SCF Done:  E(RB3LYP) =  -502.614431893     A.U. after    9 cycles
 SCF Done:  E(RB3LYP) =  -502.614434824     A.U. after    8 cycles
 SCF Done:  E(RB3LYP) =  -502.614435916     A.U. after    8 cycles
 SCF Done:  E(RB3LYP) =  -502.614436700     A.U. after    8 cycles
 SCF Done:  E(RB3LYP) =  -502.614437007     A.U. after    8 cycles
 SCF Done:  E(RB3LYP) =  -502.614437072     A.U. after    6 cycles
 Optimization completed.
    -- Stationary point found.
 Normal termination of Gaussian 16 at Wed Dec  9 17:44:57 2020.

 --------------------------------------------------------------------
 #N Geom=AllCheck Guess=TCheck SCRF=Check GenChk RB3LYP/6-31G(d) Freq
 --------------------------------------------------------------------

 Structure from the checkpoint file:  "JID_2585.chk"
 -------------------------------
 CID_102775934_JID_2585_neutraal
 -------------------------------
 Charge =  0 Multiplicity = 1

 SCF Done:  E(RB3LYP) =  -502.614437072     A.U. after    1 cycles

  Exact polarizability: 138.195  -1.332 108.802   1.817   0.663  98.811
 Approx polarizability: 162.855  -1.647 153.882   1.988  -1.022 149.604

                      1                      2                      3
                      A                      A                      A
 Frequencies --     25.0331                50.2808                78.4970
 Red. masses --      3.3078                 2.7643                 2.7900
 Frc consts  --      0.0012                 0.0041                 0.0101
 IR Inten    --      0.5120                 0.9221                 0.2221

                      4                      5                      6
                      A                      A                      A
 Frequencies --    102.0835               154.3830               205.7501
 Red. masses --      2.9052                 2.8571                 2.3928
 Frc consts  --      0.0178                 0.0401                 0.0597
 IR Inten    --      0.3507                 0.0400                 1.6900

                      7                      8                      9
                      A                      A                      A
 Frequencies --    222.9342               238.3800               297.7321
 Red. masses --      2.3918                 2.0182                 2.1622
 Frc consts  --      0.0700                 0.0676                 0.1129
 IR Inten    --      1.3721                 4.4668                 0.2449

                     10                     11                     12
                      A                      A                      A
 Frequencies --    305.4273               352.1250               371.8471
 Red. masses --      1.2264                 2.0153                 2.5903
 Frc consts  --      0.0674                 0.1472                 0.2110
 IR Inten    --      0.6360                 0.1463                 7.6407

                     13                     14                     15
                      A                      A                      A
 Frequencies --    396.2402               507.4047               543.5343
 Red. masses --      3.0251                 2.8210                 2.1610
 Frc consts  --      0.2798                 0.4279                 0.3761
 IR Inten    --      1.7862                 3.0075                 1.5889

                     16                     17                     18
                      A                      A                      A
 Frequencies --    559.6494               581.4042               642.5755
 Red. masses --      2.0668                 2.0662                 3.0041
 Frc consts  --      0.3814                 0.4115                 0.7308
 IR Inten    --     43.8741                10.9480                14.1185

                     19                     20                     21
                      A                      A                      A
 Frequencies --    733.3857               760.8611               774.1082
 Red. masses --      1.4028                 1.5398                 1.8508
 Frc consts  --      0.4445                 0.5252                 0.6535
 IR Inten    --     80.1850                 0.2098                 4.8424

                     22                     23                     24
                      A                      A                      A
 Frequencies --    800.8121               841.5869               865.2403
 Red. masses --      1.2161                 2.5008                 1.7340
 Frc consts  --      0.4595                 1.0436                 0.7648
 IR Inten    --      1.7165                19.2678                 1.4495

                     25                     26                     27
                      A                      A                      A
 Frequencies --    902.6480               933.1256               939.6219
 Red. masses --      2.0385                 2.5094                 2.0808
 Frc consts  --      0.9786                 1.2873                 1.0824
 IR Inten    --      0.8181                 0.8886                 2.4349

                     28                     29                     30
                      A                      A                      A
 Frequencies --    945.3015               952.1530               978.5376
 Red. masses --      2.0675                 1.5076                 2.8400
 Frc consts  --      1.0885                 0.8053                 1.6022
 IR Inten    --      2.2004                 7.3159                 0.9221

                     31                     32                     33
                      A                      A                      A
 Frequencies --    987.7990               993.2108              1027.5879
 Red. masses --      1.3842                 1.6190                 1.7376
 Frc consts  --      0.7958                 0.9410                 1.0810
 IR Inten    --      0.3064                 2.5500                 5.6052

                     34                     35                     36
                      A                      A                      A
 Frequencies --   1030.6056              1038.0170              1076.1202
 Red. masses --      1.9878                 1.8269                 1.8220
 Frc consts  --      1.2440                 1.1598                 1.2431
 IR Inten    --      4.9386                 9.5923                 3.4748

                     37                     38                     39
                      A                      A                      A
 Frequencies --   1112.7336              1131.9341              1155.5875
 Red. masses --      3.2528                 2.0450                 2.0212
 Frc consts  --      2.3729                 1.5438                 1.5902
 IR Inten    --     27.3014                 7.6961                 4.4705

                     40                     41                     42
                      A                      A                      A
 Frequencies --   1175.3082              1194.9807              1200.5362
 Red. masses --      2.2489                 1.6513                 1.6218
 Frc consts  --      1.8303                 1.3893                 1.3772
 IR Inten    --     11.8885                 3.1046                 9.4855

                     43                     44                     45
                      A                      A                      A
 Frequencies --   1206.6494              1218.3057              1239.4080
 Red. masses --      2.1656                 1.7911                 1.3293
 Frc consts  --      1.8578                 1.5663                 1.2031
 IR Inten    --     65.3012                17.2344                 1.0975

                     46                     47                     48
                      A                      A                      A
 Frequencies --   1251.5164              1260.8208              1268.2632
 Red. masses --      1.3043                 1.2296                 1.2842
 Frc consts  --      1.2036                 1.1517                 1.2170
 IR Inten    --      3.8203                 1.8198                 1.5144

                     49                     50                     51
                      A                      A                      A
 Frequencies --   1279.1060              1291.1979              1295.3676
 Red. masses --      1.2376                 1.3838                 1.4034
 Frc consts  --      1.1930                 1.3593                 1.3875
 IR Inten    --     15.3526                44.7635                 5.5649

                     52                     53                     54
                      A                      A                      A
 Frequencies --   1307.6513              1329.9507              1354.7590
 Red. masses --      1.4090                 1.3359                 1.2809
 Frc consts  --      1.4195                 1.3922                 1.3851
 IR Inten    --      2.0456                 7.0249                 5.6323

                     55                     56                     57
                      A                      A                      A
 Frequencies --   1367.7687              1389.7098              1411.2232
 Red. masses --      1.2698                 1.3538                 1.4687
 Frc consts  --      1.3997                 1.5405                 1.7233
 IR Inten    --      4.2653                 2.6046                 2.9684

                     58                     59                     60
                      A                      A                      A
 Frequencies --   1423.0901              1429.5785              1437.2964
 Red. masses --      1.4743                 1.3541                 1.2879
 Frc consts  --      1.7591                 1.6305                 1.5675
 IR Inten    --      3.6695                36.3182                 2.3834

                     61                     62                     63
                      A                      A                      A
 Frequencies --   1459.4043              1506.5374              1513.1204
 Red. masses --      1.3607                 1.0940                 1.1801
 Frc consts  --      1.7075                 1.4629                 1.5918
 IR Inten    --      5.0683                 0.3867                 8.0051

                     64                     65                     66
                      A                      A                      A
 Frequencies --   1516.9776              1518.4262              1529.4210
 Red. masses --      1.0884                 1.1032                 1.0837
 Frc consts  --      1.4758                 1.4986                 1.4936
 IR Inten    --      2.2888                 5.6962                13.6583

                     67                     68                     69
                      A                      A                      A
 Frequencies --   1541.8079              1542.8091              1549.6405
 Red. masses --      1.0669                 1.1107                 1.1115
 Frc consts  --      1.4942                 1.5576                 1.5726
 IR Inten    --     11.5580                 0.1922                 7.5933

                     70                     71                     72
                      A                      A                      A
 Frequencies --   1557.8199              2954.3563              2962.2336
 Red. masses --      1.0976                 1.0745                 1.0731
 Frc consts  --      1.5694                 5.5256                 5.5479
 IR Inten    --      4.1921               100.8836                38.8008

                     73                     74                     75
                      A                      A                      A
 Frequencies --   3014.1737              3031.9547              3042.9744
 Red. masses --      1.0845                 1.0844                 1.0364
 Frc consts  --      5.8052                 5.8732                 5.6542
 IR Inten    --     18.7007                53.2349                21.7772

                     76                     77                     78
                      A                      A                      A
 Frequencies --   3053.2647              3054.1883              3066.4595
 Red. masses --      1.0666                 1.0862                 1.0574
 Frc consts  --      5.8582                 5.9696                 5.8584
 IR Inten    --     32.2778                26.9935                51.2737

                     79                     80                     81
                      A                      A                      A
 Frequencies --   3069.0736              3070.6217              3075.9959
 Red. masses --      1.0847                 1.0581                 1.0634
 Frc consts  --      6.0197                 5.8779                 5.9283
 IR Inten    --     68.2435                47.1122                11.2245

                     82                     83                     84
                      A                      A                      A
 Frequencies --   3100.0415              3105.8018              3109.5044
 Red. masses --      1.0874                 1.1016                 1.1022
 Frc consts  --      6.1573                 6.2610                 6.2789
 IR Inten    --     46.6857                10.4673                42.4837

                     85                     86                     87
                      A                      A                      A
 Frequencies --   3111.6115              3113.5478              3119.3816
 Red. masses --      1.1064                 1.1024                 1.1083
 Frc consts  --      6.3115                 6.2966                 6.3537
 IR Inten    --     21.7112                58.0542                14.1697

                     88                     89                     90
                      A                      A                      A
 Frequencies --   3133.3952              3542.8034              3546.8643
 Red. masses --      1.1070                 1.0732                 1.0758
 Frc consts  --      6.4037                 7.9363                 7.9737
 IR Inten    --     89.3619                 1.1446                 0.7593

 - Thermochemistry -
 -------------------
 Temperature   298.150 Kelvin.  Pressure   1.00000 Atm.
 Atom     1 has atomic number  6 and mass  12.00000

 Molecular mass:   168.16265 amu.
 Principal axes and moments of inertia in atomic units:
                           1         2         3
     Eigenvalues --   925.057674180.981204591.98126
           X            0.99998   0.00618  -0.00092
           Y           -0.00617   0.99991   0.01227
           Z            0.00100  -0.01227   0.99992
 This molecule is an asymmetric top.
 Rotational symmetry number  1.
 Warning -- assumption of classical behavior for rotation
           may cause significant error
 Rotational temperatures (Kelvin)      0.09363     0.02072     0.01886
 Rotational constants (GHZ):           1.95095     0.43165     0.39302
 Zero-point vibrational energy     780341.8 (Joules/Mol)
                                  186.50616 (Kcal/Mol)
 Warning -- explicit consideration of  17 degrees of freedom as
           vibrations may cause significant error
 Vibrational temperatures:     36.02    72.34   112.94   146.88   222.12
          (Kelvin)            296.03   320.75   342.98   428.37   439.44
                              506.63   535.01   570.10   730.04   782.02
                              805.21   836.51   924.52  1055.18  1094.71
                             1113.77  1152.19  1210.86  1244.89  1298.71
                             1342.56  1351.91  1360.08  1369.94  1407.90
                             1421.22  1429.01  1478.47  1482.81  1493.47
                             1548.30  1600.98  1628.60  1662.63  1691.01
                             1719.31  1727.30  1736.10  1752.87  1783.23
                             1800.65  1814.04  1824.75  1840.35  1857.75
                             1863.75  1881.42  1913.50  1949.20  1967.91
                             1999.48  2030.44  2047.51  2056.84  2067.95
                             2099.76  2167.57  2177.04  2182.59  2184.68
                             2200.50  2218.32  2219.76  2229.59  2241.36
                             4250.66  4261.99  4336.72  4362.31  4378.16
                             4392.97  4394.30  4411.95  4415.71  4417.94
                             4425.67  4460.27  4468.56  4473.88  4476.91
                             4479.70  4488.09  4508.26  5097.30  5103.15

 Zero-point correction=                           0.297216 (Hartree/Particle)
 Thermal correction to Energy=                    0.309565
 Thermal correction to Enthalpy=                  0.310509
 Thermal correction to Gibbs Free Energy=         0.257631
 Sum of electronic and zero-point Energies=           -502.317221
 Sum of electronic and thermal Energies=              -502.304872
 Sum of electronic and thermal Enthalpies=            -502.303928
 Sum of electronic and thermal Free Energies=         -502.356806

                     E (Thermal)             CV                S
                      KCal/Mol        Cal/Mol-Kelvin    Cal/Mol-Kelvin
 Total                  194.255             47.986            111.291
 Electronic               0.000              0.000              0.000
 Translational            0.889              2.981             41.267
 Rotational               0.889              2.981             31.252
 Vibrational            192.477             42.024             38.772
 Vibration     1          0.593              1.985              6.189
 Vibration     2          0.595              1.977              4.806
 Vibration     3          0.600              1.964              3.928
 Vibration     4          0.604              1.947              3.414
 Vibration     5          0.620              1.898              2.617
 Vibration     6          0.640              1.832              2.081
 Vibration     7          0.649              1.806              1.935
 Vibration     8          0.656              1.782              1.815
 Vibration     9          0.691              1.678              1.430
 Vibration    10          0.696              1.663              1.387
 Vibration    11          0.729              1.571              1.157
 Vibration    12          0.744              1.530              1.072
 Vibration    13          0.763              1.478              0.977
 Vibration    14          0.863              1.234              0.640
 Vibration    15          0.899              1.154              0.558
 Vibration    16          0.915              1.119              0.525
 Vibration    17          0.938              1.072              0.483

                           ! Non-Optimized Parameters !
 Normal termination of Gaussian 16 at Wed Dec  9 17:53:29 2020.

 ----------------------------------------------------------------------
 # B3LYP/6-311++G(d,p) empiricaldispersion=gd3bj scf=xqc pop=npa geom=c
 heck
 ----------------------------------------------------------------------

 ---------------------------------------
 CID_102775934_JID_2585_Energie_neutraal
 ---------------------------------------
 Structure from the checkpoint file:  "JID_2585.chk"
 Charge =  0 Multiplicity = 1

 SCF Done:  E(RB3LYP) =  -502.759102352     A.U. after   14 cycles
 Normal termination of Gaussian 16 at Wed Dec  9 17:57:36 2020.

 ----------------------------------------------------------------------
 # B3LYP/6-311++G(d,p) empiricaldispersion=gd3bj scf=xqc pop=npa geom=c
 heck
 ----------------------------------------------------------------------

 -------------------------------------
 CID_102775934_JID_2585_Energie_kation
 -------------------------------------
 Structure from the checkpoint file:  "JID_2585.chk"
 Charge =  1 Multiplicity = 2

 SCF Done:  E(UB3LYP) =  -502.475332507     A.U. after   21 cycles
 Normal termination of Gaussian 16 at Wed Dec  9 18:06:29 2020.
 Gaussian 16:  ES64L-G16RevA.03 25-Dec-2016

 ----------------------------------------------------------------------
 # B3LYP/6-311++G(d,p) empiricaldispersion=gd3bj scf=xqc pop=npa geom=c
 heck
 ----------------------------------------------------------------------

 ------------------------------------
 CID_102775934_JID_2585_Energie_anion
 ------------------------------------
 Structure from the checkpoint file:  "JID_2585.chk"
 Charge = -1 Multiplicity = 2

                         Standard orientation:
 ---------------------------------------------------------------------
 Center     Atomic      Atomic             Coordinates (Angstroms)
 Number     Number       Type             X           Y           Z
 ---------------------------------------------------------------------
      1          6           0        1.727777    2.144878   -0.050493
      2          6           0        2.286306    0.756608   -0.355755
      3          6           0        3.161014    0.170513    0.764211
      4          6           0        3.288331   -1.289174    0.335042
      5          7           0        1.930704   -1.604425   -0.117196
      6          6           0        1.265490   -0.386641   -0.640252
      7          6           0       -0.108240   -0.264179    0.038657
      8          7           0       -1.007375    0.644892   -0.666771
      9          6           0       -2.417892    0.543173   -0.341742
     10          6           0       -3.196663   -0.733211   -0.749646
     11          6           0       -4.084020   -0.535136    0.508061
     12          6           0       -2.968699    0.357684    1.111418
     13          1           0        1.177721    2.556787   -0.904310
     14          1           0        2.544163    2.840118    0.176528
     15          1           0        1.061971    2.130828    0.820352
     16          1           0        2.922435    0.840825   -1.248065
     17          1           0        4.125869    0.678446    0.861314
     18          1           0        2.640871    0.236856    1.728325
     19          1           0        3.589585   -1.955176    1.152674
     20          1           0        4.050321   -1.374095   -0.460822
     21          1           0        1.907365   -2.367907   -0.784608
     22          1           0        1.076169   -0.450773   -1.720756
     23          1           0       -0.550418   -1.264710    0.018576
     24          1           0        0.033378   -0.020531    1.106827
     25          1           0       -0.703736    1.603727   -0.531602
     26          1           0       -2.909482    1.412029   -0.795478
     27          1           0       -3.673091   -0.739651   -1.734926
     28          1           0       -2.574865   -1.629586   -0.657666
     29          1           0       -4.372380   -1.429765    1.067269
     30          1           0       -4.987530    0.040457    0.281201
     31          1           0       -2.280529   -0.231507    1.726131
     32          1           0       -3.261550    1.253281    1.669813
 ---------------------------------------------------------------------

 SCF Done:  E(UB3LYP) =  -502.742232984     A.U. after   30 cycles

 The electronic state is 2-A.
 Alpha  occ. eigenvalues --  -14.19253 -14.18845 -10.09712 -10.08852 -10.08543
 Alpha  occ. eigenvalues --  -10.08014 -10.07159 -10.06942 -10.06574 -10.06394
 Alpha  occ. eigenvalues --  -10.06030 -10.05878  -0.81737  -0.80089  -0.72906
 Alpha  occ. eigenvalues --   -0.68100  -0.64062  -0.59242  -0.56133  -0.55285
 Alpha  occ. eigenvalues --   -0.52151  -0.48245  -0.45527  -0.43788  -0.41687
 Alpha  occ. eigenvalues --   -0.40032  -0.38425  -0.36346  -0.35865  -0.33374
 Alpha  occ. eigenvalues --   -0.31902  -0.30475  -0.29799  -0.29075  -0.28207
 Alpha  occ. eigenvalues --   -0.26943  -0.26916  -0.26462  -0.25179  -0.23412
 Alpha  occ. eigenvalues --   -0.23196  -0.22067  -0.21658  -0.21138  -0.20309
 Alpha  occ. eigenvalues --   -0.12292  -0.11728   0.04583
 Alpha virt. eigenvalues --    0.06131   0.06956   0.07720   0.08280   0.08438
 Alpha virt. eigenvalues --    0.08904   0.10068   0.10318   0.10794   0.10975
 Alpha virt. eigenvalues --    0.11506   0.11708   0.12447   0.13376   0.13563

  Beta  occ. eigenvalues --  -14.19244 -14.18829 -10.09700 -10.08844 -10.08521
  Beta  occ. eigenvalues --  -10.08008 -10.07145 -10.06928 -10.06564 -10.06379
  Beta  occ. eigenvalues --  -10.06011 -10.05847  -0.81712  -0.80065  -0.72886
  Beta  occ. eigenvalues --   -0.68062  -0.64032  -0.59198  -0.56098  -0.55237
  Beta  occ. eigenvalues --   -0.52109  -0.48177  -0.45483  -0.43745  -0.41631
  Beta  occ. eigenvalues --   -0.39997  -0.38378  -0.36310  -0.35837  -0.33340
  Beta  occ. eigenvalues --   -0.31867  -0.30446  -0.29769  -0.29051  -0.28179
  Beta  occ. eigenvalues --   -0.26911  -0.26880  -0.26432  -0.25142  -0.23379
  Beta  occ. eigenvalues --   -0.23155  -0.22038  -0.21625  -0.21104  -0.20282
  Beta  occ. eigenvalues --   -0.12265  -0.11696
  Beta virt. eigenvalues --    0.06647   0.07167   0.07572   0.08064   0.08781
  Beta virt. eigenvalues --    0.09011   0.09227   0.10450   0.10787   0.11147
  Beta virt. eigenvalues --    0.11439   0.11883   0.11933   0.12705   0.13739

 Mulliken charges and spin densities:
               1          2
     1  C    0.779244  -1.494815
     2  C   -1.686028   2.280272
     3  C    0.565409  -1.053388
     4  C    0.418647  -0.740034
     5  N   -0.386347   0.378972
     6  C    2.063488  -2.961923
     7  C   -0.861381   0.429318
     8  N    0.059554   0.076469
     9  C   -1.160316   0.886532
    10  C    0.570144  -0.715587
    11  C   -0.253525  -0.134294
    12  C    0.606863  -0.795201
    13  H   -0.106098   0.244164
    14  H   -0.587130   0.754844
    15  H   -0.150720   0.302412
    16  H   -0.229724   0.424352
    17  H   -0.264153   0.431625
    18  H    0.123687   0.004205
    19  H   -0.002836   0.148770
    20  H   -0.423034   0.565029
    21  H   -0.067149   0.316342
    22  H    0.037688   0.138918
    23  H    0.417909  -0.288511
    24  H    0.062838   0.107953
    25  H    0.440601  -0.216712
    26  H   -0.652067   0.846261
    27  H    0.038353   0.098334
    28  H   -0.109740   0.216574
    29  H    0.001217   0.134970
    30  H   -0.059367   0.184469
    31  H   -0.020975   0.131162
    32  H   -0.165050   0.298519
 Sum of Mulliken charges =  -1.00000   1.00000

 Dipole moment (field-independent basis, Debye):
    X=             -2.6912    Y=             -2.8089    Z=              1.5275  Tot=              4.1792
 Quadrupole moment (field-independent basis, Debye-Ang):
   XX=           -163.0548   YY=           -120.3557   ZZ=           -109.0576
   XY=              2.3310   XZ=              3.1158   YZ=             -1.4311

 Summary of Natural Population Analysis:

                                       Natural Population
                Natural  -----------------------------------------------
    Atom  No    Charge         Core      Valence    Rydberg      Total
 -----------------------------------------------------------------------
      C    1   -0.28901      0.99965     2.28253    0.00684     3.28901
      C    2   -0.11310      0.99959     2.10209    0.01143     3.11310
      C    3   -0.19295      0.99961     2.18396    0.00938     3.19295
      C    4   -0.08436      0.99963     2.07382    0.01091     3.08436
      N    5   -0.34998      0.99974     2.83853    0.01172     3.84998
      C    6   -0.00697      0.99958     1.99397    0.01342     3.00697
      C    7   -0.09289      0.99958     2.08170    0.01161     3.09289
      N    8   -0.34072      0.99971     2.83020    0.01081     3.84072
      C    9   -0.00461      0.99959     1.99039    0.01463     3.00461
      C   10   -0.19074      0.99962     2.18360    0.00752     3.19074
      C   11   -0.19396      0.99965     2.18624    0.00807     3.19396
      C   12   -0.19960      0.99963     2.19157    0.00840     3.19960
      H   13    0.09996      0.00000     0.39892    0.00111     0.40004
      H   14    0.10384      0.00000     0.39497    0.00119     0.39616
      H   15    0.09641      0.00000     0.40235    0.00125     0.40359
      H   16    0.09804      0.00000     0.39970    0.00226     0.40196
      H   17    0.10355      0.00000     0.39512    0.00133     0.39645
      H   18    0.09424      0.00000     0.40435    0.00141     0.40576
      H   19    0.08932      0.00000     0.40956    0.00112     0.41068
      H   20    0.08087      0.00000     0.41691    0.00222     0.41913
      H   21    0.17944      0.00000     0.31849    0.00207     0.32056
      H   22    0.09194      0.00000     0.40628    0.00178     0.40806
      H   23    0.09628      0.00000     0.40162    0.00210     0.40372
      H   24    0.08103      0.00000     0.41711    0.00185     0.41897
      H   25    0.17741      0.00000     0.31899    0.00360     0.32259
      H   26    0.09443      0.00000     0.40390    0.00167     0.40557
      H   27    0.09577      0.00000     0.40293    0.00131     0.40423
      H   28    0.09523      0.00000     0.40303    0.00173     0.40477
      H   29    0.09322      0.00000     0.40597    0.00081     0.40678
      H   30    0.09535      0.00000     0.40331    0.00134     0.40465
      H   31    0.09612      0.00000     0.40245    0.00143     0.40388
      H   32    0.09645      0.00000     0.40205    0.00150     0.40355
 =======================================================================
   * Total *   -0.00000     11.99558    34.84663    0.15779    47.00000

 Normal termination of Gaussian 16 at Wed Dec  9 18:19:07 2020.
