 Gaussian 16, Revision A.03,

 -----------------------------------------------------------
 # opt freq B3LYP/6-31G(d) empiricaldispersion=gd3bj scf=xqc
 -----------------------------------------------------------

 -------------------------------
 CID_115039819_JID_7071_neutraal
 -------------------------------
 Symbolic Z-matrix:
 Charge =  0 Multiplicity = 1

 SCF Done:  E(RB3LYP) =  -711.674198739     A.U. after   14 cycles
 SCF Done:  E(RB3LYP) =  -711.678056004     A.U. after   12 cycles
 SCF Done:  E(RB3LYP) =  -711.678887813     A.U. after   12 cycles
 SCF Done:  E(RB3LYP) =  -711.679484111     A.U. after   12 cycles
 SCF Done:  E(RB3LYP) =  -711.679944467     A.U. after   12 cycles
 SCF Done:  E(RB3LYP) =  -711.680114965     A.U. after   11 cycles
 SCF Done:  E(RB3LYP) =  -711.680234469     A.U. after   11 cycles
 SCF Done:  E(RB3LYP) =  -711.680278584     A.U. after   11 cycles
 SCF Done:  E(RB3LYP) =  -711.680287503     A.U. after   10 cycles
 SCF Done:  E(RB3LYP) =  -711.680312560     A.U. after   11 cycles
 SCF Done:  E(RB3LYP) =  -711.681171956     A.U. after    9 cycles
 SCF Done:  E(RB3LYP) =  -711.681173938     A.U. after    9 cycles
 SCF Done:  E(RB3LYP) =  -711.681174449     A.U. after    8 cycles
 SCF Done:  E(RB3LYP) =  -711.681174568     A.U. after    7 cycles
 SCF Done:  E(RB3LYP) =  -711.681174556     A.U. after    6 cycles
 Optimization completed.
    -- Stationary point found.
 Normal termination of Gaussian 16 at Fri Dec 11 12:28:43 2020.

 --------------------------------------------------------------------
 #N Geom=AllCheck Guess=TCheck SCRF=Check GenChk RB3LYP/6-31G(d) Freq
 --------------------------------------------------------------------

 Structure from the checkpoint file:  "JID_7071.chk"
 -------------------------------
 CID_115039819_JID_7071_neutraal
 -------------------------------
 Charge =  0 Multiplicity = 1

 SCF Done:  E(RB3LYP) =  -711.681174556     A.U. after    1 cycles

  Exact polarizability: 190.834  -3.526 134.663  -0.095  -2.958 145.875
 Approx polarizability: 247.480  -0.605 190.450  -3.826 -11.393 235.422

                      1                      2                      3
                      A                      A                      A
 Frequencies --     21.2427                24.8506                46.3021
 Red. masses --      3.2238                 3.2955                 2.8788
 Frc consts  --      0.0009                 0.0012                 0.0036
 IR Inten    --      0.4205                 0.0263                 2.0596

                      4                      5                      6
                      A                      A                      A
 Frequencies --     83.5020               103.6492               134.9429
 Red. masses --      3.8202                 3.6069                 3.5016
 Frc consts  --      0.0157                 0.0228                 0.0376
 IR Inten    --      2.0358                 0.6520                 0.1699

                      7                      8                      9
                      A                      A                      A
 Frequencies --    169.9432               185.1793               229.9639
 Red. masses --      2.8505                 2.6865                 2.6460
 Frc consts  --      0.0485                 0.0543                 0.0824
 IR Inten    --      1.5239                 1.6091                 1.1698

                     10                     11                     12
                      A                      A                      A
 Frequencies --    256.0350               270.9149               292.8804
 Red. masses --      1.0733                 2.4336                 2.0253
 Frc consts  --      0.0415                 0.1052                 0.1024
 IR Inten    --      0.0129                 0.4387                 0.1131

                     13                     14                     15
                      A                      A                      A
 Frequencies --    294.3641               341.4536               364.2082
 Red. masses --      2.5000                 3.0249                 2.6907
 Frc consts  --      0.1276                 0.2078                 0.2103
 IR Inten    --      3.5443                 3.1520                 1.2489

                     16                     17                     18
                      A                      A                      A
 Frequencies --    389.4791               423.5929               459.3090
 Red. masses --      2.9378                 2.5209                 3.1465
 Frc consts  --      0.2626                 0.2665                 0.3911
 IR Inten    --      1.4923                 1.6401                 5.5850

                     19                     20                     21
                      A                      A                      A
 Frequencies --    473.6929               516.8960               526.4164
 Red. masses --      2.8246                 1.3178                 3.0065
 Frc consts  --      0.3734                 0.2074                 0.4909
 IR Inten    --      1.9803                51.4768                 2.1106

                     22                     23                     24
                      A                      A                      A
 Frequencies --    563.9717               571.0994               590.0905
 Red. masses --      1.8334                 2.4136                 2.4871
 Frc consts  --      0.3436                 0.4638                 0.5102
 IR Inten    --      2.2893                22.5943                 6.9180

                     25                     26                     27
                      A                      A                      A
 Frequencies --    673.7104               680.9457               707.0605
 Red. masses --      3.8199                 3.3214                 3.6019
 Frc consts  --      1.0215                 0.9074                 1.0609
 IR Inten    --     19.7492                11.4392                10.2704

                     28                     29                     30
                      A                      A                      A
 Frequencies --    761.1684               800.0198               803.4153
 Red. masses --      2.8824                 1.5675                 2.2321
 Frc consts  --      0.9839                 0.5911                 0.8489
 IR Inten    --      1.9865                 0.2538                 0.1425

                     31                     32                     33
                      A                      A                      A
 Frequencies --    838.5536               848.2462               862.0654
 Red. masses --      1.3563                 1.9106                 2.3511
 Frc consts  --      0.5619                 0.8100                 1.0295
 IR Inten    --     14.7593                26.9973                 1.1080

                     34                     35                     36
                      A                      A                      A
 Frequencies --    888.1667               893.7496               907.5095
 Red. masses --      1.6464                 2.1572                 2.1225
 Frc consts  --      0.7652                 1.0153                 1.0299
 IR Inten    --      1.8559                 0.7719                70.9449

                     37                     38                     39
                      A                      A                      A
 Frequencies --    920.2122               927.1442               942.3470
 Red. masses --      2.8295                 2.1718                 2.4606
 Frc consts  --      1.4117                 1.0999                 1.2874
 IR Inten    --     12.9689                 5.1298                 4.6781

                     40                     41                     42
                      A                      A                      A
 Frequencies --    955.0902               977.9584              1003.1043
 Red. masses --      1.3880                 2.4729                 1.5576
 Frc consts  --      0.7460                 1.3935                 0.9234
 IR Inten    --      2.6488                 8.5163                 0.3959

                     43                     44                     45
                      A                      A                      A
 Frequencies --   1004.6526              1015.8721              1042.5754
 Red. masses --      2.1934                 2.4494                 1.8988
 Frc consts  --      1.3044                 1.4893                 1.2160
 IR Inten    --      9.4017                20.7292                 0.2854

                     46                     47                     48
                      A                      A                      A
 Frequencies --   1043.9293              1070.9117              1085.4891
 Red. masses --      2.9822                 1.7634                 1.6712
 Frc consts  --      1.9148                 1.1916                 1.1602
 IR Inten    --      2.6178                 1.4328                 5.6582

                     49                     50                     51
                      A                      A                      A
 Frequencies --   1097.6248              1122.4208              1127.7375
 Red. masses --      1.7776                 1.8197                 1.2314
 Frc consts  --      1.2618                 1.3507                 0.9227
 IR Inten    --      0.0117                16.0144                 0.1481

                     52                     53                     54
                      A                      A                      A
 Frequencies --   1132.4954              1150.4333              1161.3531
 Red. masses --      3.2055                 3.3937                 1.7070
 Frc consts  --      2.4223                 2.6463                 1.3565
 IR Inten    --      6.1848                16.7380                 4.7840

                     55                     56                     57
                      A                      A                      A
 Frequencies --   1175.9672              1194.5942              1211.4312
 Red. masses --      1.5645                 2.5230                 1.3134
 Frc consts  --      1.2747                 2.1213                 1.1357
 IR Inten    --      3.5349                 6.3897                 5.5747

                     58                     59                     60
                      A                      A                      A
 Frequencies --   1224.6406              1234.4142              1254.7382
 Red. masses --      1.5812                 1.5630                 1.3364
 Frc consts  --      1.3972                 1.4033                 1.2397
 IR Inten    --      0.5343                24.4438                 3.7097

                     61                     62                     63
                      A                      A                      A
 Frequencies --   1260.2679              1270.9079              1295.3548
 Red. masses --      1.9139                 1.7204                 1.2003
 Frc consts  --      1.7910                 1.6372                 1.1866
 IR Inten    --      0.3995                 4.0592                 5.4452

                     64                     65                     66
                      A                      A                      A
 Frequencies --   1308.8491              1314.2914              1336.1597
 Red. masses --      1.2977                 1.2452                 1.3448
 Frc consts  --      1.3098                 1.2673                 1.4145
 IR Inten    --      0.0061                 1.5356                 6.6178

                     67                     68                     69
                      A                      A                      A
 Frequencies --   1344.5817              1351.7560              1359.6376
 Red. masses --      1.8220                 1.4651                 1.3640
 Frc consts  --      1.9408                 1.5773                 1.4856
 IR Inten    --     18.3129                16.8890                 9.5726

                     70                     71                     72
                      A                      A                      A
 Frequencies --   1368.0937              1387.5717              1391.8159
 Red. masses --      1.3684                 1.4835                 1.4238
 Frc consts  --      1.5090                 1.6829                 1.6251
 IR Inten    --      9.8176                26.4010                 0.5185

                     73                     74                     75
                      A                      A                      A
 Frequencies --   1397.1053              1401.2141              1403.8821
 Red. masses --      2.6991                 1.4531                 1.4452
 Frc consts  --      3.1041                 1.6810                 1.6782
 IR Inten    --     10.6267                 2.1410                 0.5298

                     76                     77                     78
                      A                      A                      A
 Frequencies --   1412.1299              1436.8149              1455.2437
 Red. masses --      1.5687                 1.2412                 3.2498
 Frc consts  --      1.8431                 1.5098                 4.0549
 IR Inten    --      1.1824                 2.9004                38.1495

                     79                     80                     81
                      A                      A                      A
 Frequencies --   1482.1274              1511.8950              1515.5370
 Red. masses --      1.3892                 1.0842                 1.0900
 Frc consts  --      1.7980                 1.4602                 1.4751
 IR Inten    --     25.2709                 0.4026                 0.8021

                     82                     83                     84
                      A                      A                      A
 Frequencies --   1515.7733              1518.6705              1521.8311
 Red. masses --      1.0968                 1.0943                 1.0842
 Frc consts  --      1.4847                 1.4869                 1.4795
 IR Inten    --      1.5998                 1.8968                 3.5046

                     85                     86                     87
                      A                      A                      A
 Frequencies --   1525.7079              1526.4378              1533.2699
 Red. masses --      1.0927                 1.1048                 1.1126
 Frc consts  --      1.4987                 1.5167                 1.5411
 IR Inten    --      7.2783                 5.8270                 1.6357

                     88                     89                     90
                      A                      A                      A
 Frequencies --   1537.0466              1546.9039              1553.7580
 Red. masses --      1.2691                 2.0527                 1.3075
 Frc consts  --      1.7665                 2.8940                 1.8598
 IR Inten    --      7.4382                 7.6014                 1.7424

                     91                     92                     93
                      A                      A                      A
 Frequencies --   1624.2373              2979.9232              3010.7309
 Red. masses --      4.4092                 1.0722                 1.0846
 Frc consts  --      6.8534                 5.6099                 5.7924
 IR Inten    --     24.6924                57.3019                34.3919

                     94                     95                     96
                      A                      A                      A
 Frequencies --   3020.7869              3022.6140              3032.5396
 Red. masses --      1.0639                 1.0643                 1.0623
 Frc consts  --      5.7199                 5.7292                 5.7559
 IR Inten    --     35.5751                22.9469                17.8576

                     97                     98                     99
                      A                      A                      A
 Frequencies --   3038.9526              3043.1951              3051.4514
 Red. masses --      1.0627                 1.0408                 1.0649
 Frc consts  --      5.7823                 5.6790                 5.8423
 IR Inten    --     13.6124                49.4060                18.4271

                    100                    101                    102
                      A                      A                      A
 Frequencies --   3056.2787              3069.2044              3074.7099
 Red. masses --      1.0953                 1.0598                 1.0669
 Frc consts  --      6.0279                 5.8822                 5.9426
 IR Inten    --     62.7502                21.3706                21.8271

                    103                    104                    105
                      A                      A                      A
 Frequencies --   3075.3694              3076.5981              3082.2054
 Red. masses --      1.0955                 1.0955                 1.1046
 Frc consts  --      6.1043                 6.1093                 6.1828
 IR Inten    --     70.2327                22.3792                43.8668

                    106                    107                    108
                      A                      A                      A
 Frequencies --   3092.8078              3097.6401              3107.3824
 Red. masses --      1.0882                 1.1021                 1.1022
 Frc consts  --      6.1330                 6.2306                 6.2704
 IR Inten    --     68.4922                57.8459                62.8534

                    109                    110                    111
                      A                      A                      A
 Frequencies --   3108.9463              3123.3109              3127.5031
 Red. masses --      1.1032                 1.1021                 1.1071
 Frc consts  --      6.2825                 6.3343                 6.3804
 IR Inten    --     17.5171                27.9864                54.9004

                    112                    113                    114
                      A                      A                      A
 Frequencies --   3264.3374              3498.6407              3651.9071
 Red. masses --      1.0963                 1.0735                 1.0795
 Frc consts  --      6.8826                 7.7422                 8.4821
 IR Inten    --     11.7250                10.3242                25.2128

 - Thermochemistry -
 -------------------
 Temperature   298.150 Kelvin.  Pressure   1.00000 Atm.
 Atom     1 has atomic number  6 and mass  12.00000

 Molecular mass:   233.18920 amu.
 Principal axes and moments of inertia in atomic units:
                           1         2         3
     Eigenvalues --  1924.259557065.342347375.32595
           X            0.99997  -0.00780   0.00116
           Y            0.00774   0.99898   0.04440
           Z           -0.00150  -0.04439   0.99901
 This molecule is an asymmetric top.
 Rotational symmetry number  1.
 Warning -- assumption of classical behavior for rotation
           may cause significant error
 Rotational temperatures (Kelvin)      0.04501     0.01226     0.01174
 Rotational constants (GHZ):           0.93789     0.25544     0.24470
 Zero-point vibrational energy     952177.4 (Joules/Mol)
                                  227.57587 (Kcal/Mol)
 Warning -- explicit consideration of  24 degrees of freedom as
           vibrations may cause significant error
 Vibrational temperatures:     30.56    35.75    66.62   120.14   149.13
          (Kelvin)            194.15   244.51   266.43   330.87   368.38
                              389.79   421.39   423.52   491.28   524.01
                              560.37   609.46   660.84   681.54   743.70
                              757.40   811.43   821.68   849.01   969.32
                              979.73  1017.30  1095.15  1151.05  1155.94
                             1206.49  1220.44  1240.32  1277.87  1285.91
                             1305.70  1323.98  1333.95  1355.83  1374.16
                             1407.06  1443.24  1445.47  1461.61  1500.03
                             1501.98  1540.80  1561.78  1579.24  1614.91
                             1622.56  1629.41  1655.22  1670.93  1691.95
                             1718.75  1742.98  1761.98  1776.05  1805.29
                             1813.24  1828.55  1863.73  1883.14  1890.97
                             1922.44  1934.55  1944.88  1956.22  1968.38
                             1996.41  2002.51  2010.12  2016.03  2019.87
                             2031.74  2067.26  2093.77  2132.45  2175.28
                             2180.52  2180.86  2185.03  2189.58  2195.15
                             2196.20  2206.03  2211.47  2225.65  2235.51
                             2336.92  4287.44  4331.77  4346.24  4348.87
                             4363.15  4372.37  4378.48  4390.36  4397.30
                             4415.90  4423.82  4424.77  4426.54  4434.61
                             4449.86  4456.81  4470.83  4473.08  4493.75
                             4499.78  4696.65  5033.76  5254.28

 Zero-point correction=                           0.362665 (Hartree/Particle)
 Thermal correction to Energy=                    0.378412
 Thermal correction to Enthalpy=                  0.379357
 Thermal correction to Gibbs Free Energy=         0.318101
 Sum of electronic and zero-point Energies=           -711.318509
 Sum of electronic and thermal Energies=              -711.302762
 Sum of electronic and thermal Enthalpies=            -711.301818
 Sum of electronic and thermal Free Energies=         -711.363074

                     E (Thermal)             CV                S
                      KCal/Mol        Cal/Mol-Kelvin    Cal/Mol-Kelvin
 Total                  237.457             62.653            128.923
 Electronic               0.000              0.000              0.000
 Translational            0.889              2.981             42.242
 Rotational               0.889              2.981             32.972
 Vibrational            235.680             56.691             53.709
 Vibration     1          0.593              1.985              6.515
 Vibration     2          0.593              1.985              6.203
 Vibration     3          0.595              1.979              4.969
 Vibration     4          0.600              1.961              3.807
 Vibration     5          0.605              1.946              3.385
 Vibration     6          0.613              1.918              2.874
 Vibration     7          0.625              1.879              2.436
 Vibration     8          0.631              1.860              2.276
 Vibration     9          0.652              1.795              1.879
 Vibration    10          0.666              1.753              1.689
 Vibration    11          0.675              1.727              1.590
 Vibration    12          0.688              1.687              1.457
 Vibration    13          0.689              1.684              1.449
 Vibration    14          0.721              1.593              1.205
 Vibration    15          0.738              1.546              1.104
 Vibration    16          0.757              1.493              1.002
 Vibration    17          0.786              1.419              0.880
 Vibration    18          0.817              1.340              0.768
 Vibration    19          0.830              1.308              0.727
 Vibration    20          0.872              1.213              0.617
 Vibration    21          0.881              1.192              0.595
 Vibration    22          0.920              1.109              0.516
 Vibration    23          0.927              1.094              0.502
 Vibration    24          0.947              1.053              0.467

 Optimization completed.
    -- Stationary point found.
 Normal termination of Gaussian 16 at Fri Dec 11 12:44:21 2020.

 ----------------------------------------------------------------------
 # B3LYP/6-311++G(d,p) empiricaldispersion=gd3bj scf=xqc pop=npa geom=c
 heck
 ----------------------------------------------------------------------

 ---------------------------------------
 CID_115039819_JID_7071_Energie_neutraal
 ---------------------------------------
 Structure from the checkpoint file:  "JID_7071.chk"
 Charge =  0 Multiplicity = 1

 SCF Done:  E(RB3LYP) =  -711.873287396     A.U. after   15 cycles
 Normal termination of Gaussian 16 at Fri Dec 11 12:51:53 2020.

 ----------------------------------------------------------------------
 # B3LYP/6-311++G(d,p) empiricaldispersion=gd3bj scf=xqc pop=npa geom=c
 heck
 ----------------------------------------------------------------------

 -------------------------------------
 CID_115039819_JID_7071_Energie_kation
 -------------------------------------
 Structure from the checkpoint file:  "JID_7071.chk"
 Charge =  1 Multiplicity = 2

 SCF Done:  E(UB3LYP) =  -711.593083526     A.U. after   23 cycles
 Normal termination of Gaussian 16 at Fri Dec 11 13:06:32 2020.
 Gaussian 16:  ES64L-G16RevA.03 25-Dec-2016

 ----------------------------------------------------------------------
 # B3LYP/6-311++G(d,p) empiricaldispersion=gd3bj scf=xqc pop=npa geom=c
 heck
 ----------------------------------------------------------------------

 ------------------------------------
 CID_115039819_JID_7071_Energie_anion
 ------------------------------------
 Structure from the checkpoint file:  "JID_7071.chk"
 Charge = -1 Multiplicity = 2

                         Standard orientation:
 ---------------------------------------------------------------------
 Center     Atomic      Atomic             Coordinates (Angstroms)
 Number     Number       Type             X           Y           Z
 ---------------------------------------------------------------------
      1          6           0        2.549154   -1.946893   -1.260655
      2          6           0        2.237571   -0.672721   -0.447725
      3          6           0        3.227778   -0.566414    0.736336
      4          6           0        3.124778    0.757523    1.506350
      5          6           0        3.274429    1.964662    0.571797
      6          6           0        2.276191    1.891787   -0.590683
      7          6           0        2.426203    0.571033   -1.353166
      8          6           0        0.820552   -0.755595    0.067723
      9          6           0        0.273086   -1.086061    1.285279
     10          7           0       -1.108679   -1.077117    1.232468
     11          6           0       -1.419818   -0.743009   -0.003395
     12          7           0       -0.286002   -0.544677   -0.748235
     13          6           0       -2.823029   -0.622081   -0.548780
     14          6           0       -3.088776    0.763298   -1.220702
     15          6           0       -4.171831    1.423745   -0.336651
     16          6           0       -4.058237    0.656138    0.982358
     17          7           0       -3.827247   -0.717895    0.518720
     18          1           0        3.573000   -1.915052   -1.652245
     19          1           0        2.444275   -2.839308   -0.634996
     20          1           0        1.864614   -2.051679   -2.110645
     21          1           0        3.084350   -1.417962    1.412612
     22          1           0        4.242631   -0.665159    0.326629
     23          1           0        3.892582    0.785950    2.289274
     24          1           0        2.153723    0.812706    2.011487
     25          1           0        4.296382    1.986362    0.165167
     26          1           0        3.138973    2.897457    1.132447
     27          1           0        2.424632    2.735929   -1.275275
     28          1           0        1.253227    1.973893   -0.199920
     29          1           0        3.432835    0.517710   -1.790514
     30          1           0        1.731324    0.533812   -2.204020
     31          1           0        0.792002   -1.325234    2.202687
     32          1           0       -0.255994   -0.273573   -1.719772
     33          1           0       -2.984410   -1.435263   -1.271238
     34          1           0       -2.173250    1.363804   -1.227895
     35          1           0       -3.417537    0.652111   -2.257966
     36          1           0       -4.022135    2.501067   -0.218754
     37          1           0       -5.163599    1.261726   -0.770507
     38          1           0       -3.222829    1.051931    1.585083
     39          1           0       -4.969910    0.705667    1.587177
     40          1           0       -3.449704   -1.291536    1.271997
 ---------------------------------------------------------------------

 SCF Done:  E(UB3LYP) =  -711.864304207     A.U. after   33 cycles
 SCF Done:  E(UB3LYP) =  -711.864304207     a.u. after    1 cycles

 The electronic state is 2-A.
 Alpha  occ. eigenvalues --  -14.25972 -14.19906 -14.19324 -10.12577 -10.11237
 Alpha  occ. eigenvalues --  -10.10172 -10.09776 -10.09664 -10.08023 -10.07624
 Alpha  occ. eigenvalues --  -10.07529 -10.07325 -10.06953 -10.06837 -10.06743
 Alpha  occ. eigenvalues --  -10.06460 -10.06437  -0.91428  -0.82728  -0.77234
 Alpha  occ. eigenvalues --   -0.74821  -0.68606  -0.66960  -0.65887  -0.64823
 Alpha  occ. eigenvalues --   -0.61045  -0.58293  -0.52684  -0.52000  -0.50831
 Alpha  occ. eigenvalues --   -0.49773  -0.48827  -0.47689  -0.45570  -0.42372
 Alpha  occ. eigenvalues --   -0.40723  -0.38855  -0.37446  -0.35651  -0.35310
 Alpha  occ. eigenvalues --   -0.34363  -0.33443  -0.33267  -0.32404  -0.31956
 Alpha  occ. eigenvalues --   -0.30556  -0.29636  -0.28404  -0.28135  -0.27767
 Alpha  occ. eigenvalues --   -0.27592  -0.25942  -0.25787  -0.25616  -0.25242
 Alpha  occ. eigenvalues --   -0.24833  -0.23638  -0.22741  -0.21075  -0.20499
 Alpha  occ. eigenvalues --   -0.18353  -0.17743  -0.13920  -0.12024   0.04070
 Alpha virt. eigenvalues --    0.06212   0.06919   0.07374   0.07876   0.08301
 Alpha virt. eigenvalues --    0.08815   0.09237   0.09573   0.10209   0.10383
 Alpha virt. eigenvalues --    0.10728   0.11284   0.11495   0.11909   0.12103

  Beta  occ. eigenvalues --  -14.25929 -14.19905 -14.19320 -10.12577 -10.11228
  Beta  occ. eigenvalues --  -10.10168 -10.09777 -10.09661 -10.08021 -10.07616
  Beta  occ. eigenvalues --  -10.07499 -10.07312 -10.06946 -10.06824 -10.06706
  Beta  occ. eigenvalues --  -10.06434 -10.06419  -0.91399  -0.82718  -0.77196
  Beta  occ. eigenvalues --   -0.74791  -0.68581  -0.66934  -0.65865  -0.64786
  Beta  occ. eigenvalues --   -0.61017  -0.58243  -0.52630  -0.51962  -0.50798
  Beta  occ. eigenvalues --   -0.49707  -0.48777  -0.47647  -0.45541  -0.42340
  Beta  occ. eigenvalues --   -0.40686  -0.38818  -0.37403  -0.35628  -0.35287
  Beta  occ. eigenvalues --   -0.34328  -0.33418  -0.33240  -0.32384  -0.31930
  Beta  occ. eigenvalues --   -0.30538  -0.29607  -0.28363  -0.28116  -0.27743
  Beta  occ. eigenvalues --   -0.27559  -0.25911  -0.25759  -0.25587  -0.25211
  Beta  occ. eigenvalues --   -0.24804  -0.23615  -0.22711  -0.21035  -0.20466
  Beta  occ. eigenvalues --   -0.18322  -0.17735  -0.13914  -0.12008
  Beta virt. eigenvalues --    0.06258   0.06723   0.07520   0.07890   0.08299
  Beta virt. eigenvalues --    0.08462   0.08983   0.09586   0.09928   0.10385
  Beta virt. eigenvalues --    0.10615   0.11012   0.11513   0.11592   0.12006

 Mulliken charges and spin densities:
               1          2
     1  C    0.848124  -1.296353
     2  C   -2.622595   3.693959
     3  C   -0.503533  -0.181256
     4  C   -0.506089   0.237172
     5  C    0.696315  -1.226816
     6  C   -0.181198  -0.127618
     7  C   -0.017488  -0.508813
     8  C    0.790298  -1.476805
     9  C    1.558606  -1.567355
    10  N   -0.148816   0.059755
    11  C    1.286968  -1.524473
    12  N   -0.346049   0.332272
    13  C   -0.782776   0.948684
    14  C    0.699968  -1.139489
    15  C   -0.144731  -0.266951
    16  C   -0.198171  -0.090557
    17  N   -0.034706  -0.055462
    18  H   -0.158069   0.307358
    19  H    0.127396   0.027030
    20  H   -0.240264   0.408500
    21  H    0.083274   0.051916
    22  H   -0.212922   0.384705
    23  H   -0.022387   0.187207
    24  H    0.107255   0.024832
    25  H    0.102044   0.010674
    26  H   -0.132097   0.304769
    27  H   -0.490559   0.682529
    28  H    0.376981  -0.251659
    29  H   -0.179397   0.346209
    30  H   -0.618431   0.775007
    31  H    0.079340   0.070673
    32  H    0.015534   0.297404
    33  H   -0.125239   0.387356
    34  H   -0.124563   0.232814
    35  H   -0.510660   0.671344
    36  H   -0.054184   0.202175
    37  H    0.196127  -0.052867
    38  H    0.111313   0.020801
    39  H    0.051766   0.089190
    40  H    0.223616   0.012140
 Sum of Mulliken charges =  -1.00000   1.00000

 Dipole moment (field-independent basis, Debye):
    X=             -0.9910    Y=             -0.8634    Z=              5.7169  Tot=              5.8661
 Quadrupole moment (field-independent basis, Debye-Ang):
   XX=           -176.6466   YY=           -144.8504   ZZ=           -157.0651
   XY=             -7.7132   XZ=              0.8729   YZ=              3.5200

 Summary of Natural Population Analysis:

                                       Natural Population
                Natural  -----------------------------------------------
    Atom  No    Charge         Core      Valence    Rydberg      Total
 -----------------------------------------------------------------------
      C    1   -0.27500      0.99963     2.26837    0.00700     3.27500
      C    2   -0.05660      0.99953     2.04403    0.01304     3.05660
      C    3   -0.18399      0.99960     2.17504    0.00934     3.18399
      C    4   -0.19269      0.99962     2.18506    0.00801     3.19269
      C    5   -0.18740      0.99963     2.18024    0.00753     3.18740
      C    6   -0.19134      0.99962     2.18283    0.00889     3.19134
      C    7   -0.18605      0.99960     2.17497    0.01148     3.18605
      C    8    0.06463      0.99949     1.92058    0.01530     2.93537
      C    9   -0.03743      0.99949     2.02617    0.01178     3.03743
      N   10   -0.27155      0.99969     2.76308    0.00878     3.77155
      C   11    0.18601      0.99960     1.79561    0.01879     2.81399
      N   12   -0.27713      0.99961     2.76823    0.00929     3.77713
      C   13   -0.03171      0.99957     2.01708    0.01506     3.03171
      C   14   -0.19083      0.99963     2.18275    0.00845     3.19083
      C   15   -0.19535      0.99964     2.18697    0.00875     3.19535
      C   16   -0.08993      0.99964     2.08135    0.00895     3.08993
      N   17   -0.34080      0.99976     2.83190    0.00914     3.84080
      H   18    0.09843      0.00000     0.40064    0.00093     0.40157
      H   19    0.09984      0.00000     0.39927    0.00090     0.40016
      H   20    0.10354      0.00000     0.39525    0.00121     0.39646
      H   21    0.09971      0.00000     0.39936    0.00093     0.40029
      H   22    0.09812      0.00000     0.40074    0.00114     0.40188
      H   23    0.09598      0.00000     0.40317    0.00085     0.40402
      H   24    0.09863      0.00000     0.39989    0.00148     0.40137
      H   25    0.09162      0.00000     0.40718    0.00120     0.40838
      H   26    0.09744      0.00000     0.40170    0.00086     0.40256
      H   27    0.10107      0.00000     0.39779    0.00115     0.39893
      H   28    0.09635      0.00000     0.40192    0.00172     0.40365
      H   29    0.09859      0.00000     0.39967    0.00175     0.40141
      H   30    0.10267      0.00000     0.39449    0.00284     0.39733
      H   31    0.09645      0.00000     0.40248    0.00108     0.40355
      H   32    0.21274      0.00000     0.28054    0.00672     0.28726
      H   33    0.10299      0.00000     0.39524    0.00176     0.39701
      H   34    0.10121      0.00000     0.39696    0.00183     0.39879
      H   35    0.10476      0.00000     0.39358    0.00166     0.39524
      H   36    0.09935      0.00000     0.39986    0.00079     0.40065
      H   37    0.09631      0.00000     0.40252    0.00117     0.40369
      H   38    0.08369      0.00000     0.41463    0.00168     0.41631
      H   39    0.09056      0.00000     0.40824    0.00120     0.40944
      H   40    0.18715      0.00000     0.31025    0.00261     0.31285
 =======================================================================
   * Total *   -0.00000     16.99334    46.78965    0.21701    64.00000

 Normal termination of Gaussian 16 at Fri Dec 11 13:27:22 2020.
