 Gaussian 16, Revision A.03,

 -----------------------------------------------------------
 # opt freq B3LYP/6-31G(d) empiricaldispersion=gd3bj scf=xqc
 -----------------------------------------------------------

 -------------------------------
 CID_113563069_JID_8908_neutraal
 -------------------------------
 Symbolic Z-matrix:
 Charge =  0 Multiplicity = 1

 SCF Done:  E(RB3LYP) =  -786.881003022     A.U. after   14 cycles
 SCF Done:  E(RB3LYP) =  -786.886291520     A.U. after   12 cycles
 SCF Done:  E(RB3LYP) =  -786.886828716     A.U. after   12 cycles
 SCF Done:  E(RB3LYP) =  -786.886978584     A.U. after   11 cycles
 SCF Done:  E(RB3LYP) =  -786.887079349     A.U. after   11 cycles
 SCF Done:  E(RB3LYP) =  -786.887121435     A.U. after   11 cycles
 SCF Done:  E(RB3LYP) =  -786.887148521     A.U. after   12 cycles
 SCF Done:  E(RB3LYP) =  -786.887187107     A.U. after   12 cycles
 SCF Done:  E(RB3LYP) =  -786.887211447     A.U. after   12 cycles
 SCF Done:  E(RB3LYP) =  -786.887227575     A.U. after   10 cycles
 SCF Done:  E(RB3LYP) =  -786.887618233     A.U. after    9 cycles
 SCF Done:  E(RB3LYP) =  -786.887618894     A.U. after    9 cycles
 SCF Done:  E(RB3LYP) =  -786.887619075     A.U. after    7 cycles
 SCF Done:  E(RB3LYP) =  -786.887619373     A.U. after    7 cycles
 SCF Done:  E(RB3LYP) =  -786.887619575     A.U. after    7 cycles
 Optimization completed.
    -- Stationary point found.
 Normal termination of Gaussian 16 at Fri Dec 11 23:09:38 2020.

 --------------------------------------------------------------------
 #N Geom=AllCheck Guess=TCheck SCRF=Check GenChk RB3LYP/6-31G(d) Freq
 --------------------------------------------------------------------

 Structure from the checkpoint file:  "JID_8908.chk"
 -------------------------------
 CID_113563069_JID_8908_neutraal
 -------------------------------
 Charge =  0 Multiplicity = 1

 SCF Done:  E(RB3LYP) =  -786.887619575     A.U. after    1 cycles

  Exact polarizability: 187.012  -0.870 149.519   0.353   6.076 156.811
 Approx polarizability: 264.426   3.775 194.308  -1.452  14.481 249.712

                      1                      2                      3
                      A                      A                      A
 Frequencies --     17.2240                40.6134                59.4890
 Red. masses --      4.3002                 3.4718                 3.4455
 Frc consts  --      0.0008                 0.0034                 0.0072
 IR Inten    --      0.2671                 2.0810                 1.0095

                      4                      5                      6
                      A                      A                      A
 Frequencies --     63.2386                75.5111               112.6082
 Red. masses --      3.2352                 3.1305                 2.8807
 Frc consts  --      0.0076                 0.0105                 0.0215
 IR Inten    --      0.2523                 1.3343                 1.7950

                      7                      8                      9
                      A                      A                      A
 Frequencies --    127.6161               153.3773               195.7095
 Red. masses --      3.8772                 2.4617                 2.1314
 Frc consts  --      0.0372                 0.0341                 0.0481
 IR Inten    --      0.1149                 2.6667                 2.7353

                     10                     11                     12
                      A                      A                      A
 Frequencies --    201.2770               231.6542               242.0240
 Red. masses --      2.1589                 2.8449                 1.2420
 Frc consts  --      0.0515                 0.0900                 0.0429
 IR Inten    --      6.7274                 2.1186                23.4058

                     13                     14                     15
                      A                      A                      A
 Frequencies --    243.9330               247.3213               262.8535
 Red. masses --      1.3181                 1.6679                 2.1717
 Frc consts  --      0.0462                 0.0601                 0.0884
 IR Inten    --      9.9759                 3.6513                 0.4890

                     16                     17                     18
                      A                      A                      A
 Frequencies --    295.8212               319.6889               344.3141
 Red. masses --      3.3833                 2.1222                 5.9061
 Frc consts  --      0.1744                 0.1278                 0.4125
 IR Inten    --      0.2789                 0.0266                 6.0640

                     19                     20                     21
                      A                      A                      A
 Frequencies --    368.7237               390.3666               410.6163
 Red. masses --      2.3100                 2.4878                 2.8306
 Frc consts  --      0.1850                 0.2234                 0.2812
 IR Inten    --      2.9618                 7.2989                 1.6119

                     22                     23                     24
                      A                      A                      A
 Frequencies --    420.6359               435.7594               475.5948
 Red. masses --      3.2379                 1.9310                 3.4763
 Frc consts  --      0.3375                 0.2160                 0.4633
 IR Inten    --      1.7742                 0.5100                 1.1732

                     25                     26                     27
                      A                      A                      A
 Frequencies --    492.8551               512.4974               568.1715
 Red. masses --      3.3208                 3.4404                 4.2261
 Frc consts  --      0.4753                 0.5324                 0.8038
 IR Inten    --      3.0825                 0.5818                16.1112

                     28                     29                     30
                      A                      A                      A
 Frequencies --    576.3697               626.1011               704.2664
 Red. masses --      2.4833                 3.4865                 5.7324
 Frc consts  --      0.4861                 0.8052                 1.6752
 IR Inten    --      2.2643                11.7330                 7.7106

                     31                     32                     33
                      A                      A                      A
 Frequencies --    734.2081               786.7784               802.1972
 Red. masses --      4.9053                 2.5007                 1.4677
 Frc consts  --      1.5580                 0.9121                 0.5565
 IR Inten    --      1.2900                 0.6205                 0.4755

                     34                     35                     36
                      A                      A                      A
 Frequencies --    811.2956               826.7239               844.3520
 Red. masses --      1.2073                 3.9361                 1.7619
 Frc consts  --      0.4682                 1.5850                 0.7401
 IR Inten    --      5.9246                11.4207                 9.2618

                     37                     38                     39
                      A                      A                      A
 Frequencies --    847.0666               882.9679               908.9578
 Red. masses --      1.4758                 1.6292                 2.5564
 Frc consts  --      0.6239                 0.7484                 1.2444
 IR Inten    --    111.8612                11.1563                 7.4318

                     40                     41                     42
                      A                      A                      A
 Frequencies --    918.8616               937.4022               960.7002
 Red. masses --      1.9077                 1.8261                 1.4351
 Frc consts  --      0.9490                 0.9454                 0.7804
 IR Inten    --      2.5013                 4.3297                 1.9699

                     43                     44                     45
                      A                      A                      A
 Frequencies --    965.2330               996.1892               997.5830
 Red. masses --      2.0509                 1.6639                 1.4351
 Frc consts  --      1.1258                 0.9729                 0.8414
 IR Inten    --      7.9910                 3.0164                 0.1987

                     46                     47                     48
                      A                      A                      A
 Frequencies --   1018.4735              1022.8271              1026.9928
 Red. masses --      4.8904                 3.5540                 2.4021
 Frc consts  --      2.9888                 2.1907                 1.4927
 IR Inten    --      4.4108                 5.3674                19.3137

                     49                     50                     51
                      A                      A                      A
 Frequencies --   1033.7528              1056.3382              1076.2484
 Red. masses --      1.6446                 2.2187                 2.2021
 Frc consts  --      1.0355                 1.4587                 1.5029
 IR Inten    --      4.1039                15.1427                11.0188

                     52                     53                     54
                      A                      A                      A
 Frequencies --   1098.0985              1118.6102              1121.7160
 Red. masses --      3.1214                 1.9861                 2.5305
 Frc consts  --      2.2176                 1.4642                 1.8759
 IR Inten    --    106.7007                 7.9933                25.5079

                     55                     56                     57
                      A                      A                      A
 Frequencies --   1127.0571              1135.2652              1164.2339
 Red. masses --      1.4194                 2.4742                 1.3387
 Frc consts  --      1.0623                 1.8788                 1.0691
 IR Inten    --      3.3311               106.9292                 5.7269

                     58                     59                     60
                      A                      A                      A
 Frequencies --   1172.4728              1198.9798              1208.1222
 Red. masses --      1.4212                 2.2264                 2.1970
 Frc consts  --      1.1511                 1.8857                 1.8893
 IR Inten    --      6.9149                49.2040                 5.1664

                     61                     62                     63
                      A                      A                      A
 Frequencies --   1217.3154              1260.8615              1267.2530
 Red. masses --      2.0945                 4.5026                 1.6578
 Frc consts  --      1.8287                 4.2175                 1.5686
 IR Inten    --     13.1770                 0.7349                12.1597

                     64                     65                     66
                      A                      A                      A
 Frequencies --   1288.3746              1293.6530              1300.8687
 Red. masses --      1.8732                 1.6114                 1.2729
 Frc consts  --      1.8320                 1.5889                 1.2691
 IR Inten    --      2.3895                 1.3529                 6.0791

                     67                     68                     69
                      A                      A                      A
 Frequencies --   1332.1397              1334.6926              1345.7362
 Red. masses --      1.3567                 1.2113                 1.4400
 Frc consts  --      1.4185                 1.2714                 1.5366
 IR Inten    --      2.1867                 0.2014                 6.2650

                     70                     71                     72
                      A                      A                      A
 Frequencies --   1356.1663              1371.2834              1377.9049
 Red. masses --      1.3427                 1.4810                 1.6339
 Frc consts  --      1.4550                 1.6408                 1.8278
 IR Inten    --      1.2542                11.4856                12.7635

                     73                     74                     75
                      A                      A                      A
 Frequencies --   1399.7953              1401.1572              1415.8491
 Red. masses --      1.5027                 1.4339                 1.2354
 Frc consts  --      1.7348                 1.6586                 1.4591
 IR Inten    --     23.7587                 8.2345                20.3593

                     76                     77                     78
                      A                      A                      A
 Frequencies --   1423.4929              1437.4370              1439.0160
 Red. masses --      1.6113                 1.6575                 1.2451
 Frc consts  --      1.9237                 2.0178                 1.5191
 IR Inten    --      2.8071                12.7009                 3.3381

                     79                     80                     81
                      A                      A                      A
 Frequencies --   1440.6731              1452.1633              1490.3573
 Red. masses --      1.2988                 2.7619                 2.5988
 Frc consts  --      1.5883                 3.4316                 3.4009
 IR Inten    --     31.0164                15.3292                16.8609

                     82                     83                     84
                      A                      A                      A
 Frequencies --   1503.7150              1514.6530              1519.4084
 Red. masses --      1.0924                 1.0698                 1.0705
 Frc consts  --      1.4554                 1.4460                 1.4561
 IR Inten    --      3.5521                 9.8355                 3.6435

                     85                     86                     87
                      A                      A                      A
 Frequencies --   1520.4177              1527.0151              1527.5051
 Red. masses --      1.0988                 1.0508                 1.0506
 Frc consts  --      1.4966                 1.4436                 1.4443
 IR Inten    --      5.8649                 0.2229                 8.2156

                     88                     89                     90
                      A                      A                      A
 Frequencies --   1527.9099              1531.2288              1537.5463
 Red. masses --      1.0897                 1.0597                 1.0882
 Frc consts  --      1.4988                 1.4639                 1.5157
 IR Inten    --      0.6679                 2.9517                 2.6860

                     91                     92                     93
                      A                      A                      A
 Frequencies --   1544.9490              1622.3014              1632.3124
 Red. masses --      1.0845                 6.4334                 6.2125
 Frc consts  --      1.5252                 9.9759                 9.7527
 IR Inten    --      3.1588                84.1476               110.9458

                     94                     95                     96
                      A                      A                      A
 Frequencies --   1694.6434              2971.0037              2989.7403
 Red. masses --      1.0992                 1.0726                 1.0823
 Frc consts  --      1.8598                 5.5784                 5.7000
 IR Inten    --     32.9212                86.5697                19.1423

                     97                     98                     99
                      A                      A                      A
 Frequencies --   3027.9840              3036.2829              3036.8751
 Red. masses --      1.0600                 1.0419                 1.0577
 Frc consts  --      5.7260                 5.6595                 5.7472
 IR Inten    --     23.6562                20.4020                37.6438

                    100                    101                    102
                      A                      A                      A
 Frequencies --   3042.7209              3048.7352              3051.5512
 Red. masses --      1.0603                 1.0689                 1.0416
 Frc consts  --      5.7835                 5.8539                 5.7148
 IR Inten    --     55.7351                 9.1741                 7.3589

                    103                    104                    105
                      A                      A                      A
 Frequencies --   3053.7165              3069.4542              3078.0963
 Red. masses --      1.0701                 1.0991                 1.0999
 Frc consts  --      5.8796                 6.1010                 6.1402
 IR Inten    --     78.4313                58.2117                25.4800

                    106                    107                    108
                      A                      A                      A
 Frequencies --   3085.8469              3102.4109              3106.0003
 Red. masses --      1.0981                 1.1014                 1.1023
 Frc consts  --      6.1606                 6.2459                 6.2657
 IR Inten    --     41.8426                64.4258                37.0142

                    109                    110                    111
                      A                      A                      A
 Frequencies --   3107.6386              3120.1371              3128.0802
 Red. masses --      1.0898                 1.0993                 1.0954
 Frc consts  --      6.2009                 6.3056                 6.3151
 IR Inten    --     13.2684                33.3561                25.5012

                    112                    113                    114
                      A                      A                      A
 Frequencies --   3132.6193              3138.0529              3169.0004
 Red. masses --      1.0951                 1.1035                 1.0901
 Frc consts  --      6.3318                 6.4022                 6.4498
 IR Inten    --     14.2029                39.6124                28.1629

                    115                    116                    117
                      A                      A                      A
 Frequencies --   3209.9707              3465.5757              3555.4628
 Red. masses --      1.0942                 1.0495                 1.0929
 Frc consts  --      6.6430                 7.4268                 8.1403
 IR Inten    --     16.8825                 1.5394                 0.2563

 - Thermochemistry -
 -------------------
 Temperature   298.150 Kelvin.  Pressure   1.00000 Atm.
 Atom     1 has atomic number  6 and mass  12.00000

 Molecular mass:   249.18411 amu.
 Principal axes and moments of inertia in atomic units:
                           1         2         3
     Eigenvalues --  3830.483025381.620896805.69524
           X            0.99987  -0.01615   0.00045
           Y            0.01616   0.99958  -0.02411
           Z           -0.00006   0.02412   0.99971
 This molecule is an asymmetric top.
 Rotational symmetry number  1.
 Warning -- assumption of classical behavior for rotation
           may cause significant error
 Rotational temperatures (Kelvin)      0.02261     0.01609     0.01273
 Rotational constants (GHZ):           0.47115     0.33535     0.26518
 Zero-point vibrational energy     954576.3 (Joules/Mol)
                                  228.14920 (Kcal/Mol)
 Warning -- explicit consideration of  28 degrees of freedom as
           vibrations may cause significant error
 Vibrational temperatures:     24.78    58.43    85.59    90.99   108.64
          (Kelvin)            162.02   183.61   220.68   281.58   289.59
                              333.30   348.22   350.97   355.84   378.19
                              425.62   459.96   495.39   530.51   561.65
                              590.79   605.20   626.96   684.27   709.11
                              737.37   817.47   829.27   900.82  1013.28
                             1056.36  1132.00  1154.18  1167.27  1189.47
                             1214.83  1218.74  1270.39  1307.79  1322.04
                             1348.71  1382.23  1388.76  1433.29  1435.30
                             1465.36  1471.62  1477.61  1487.34  1519.84
                             1548.48  1579.92  1609.43  1613.90  1621.58
                             1633.39  1675.07  1686.93  1725.06  1738.22
                             1751.45  1814.10  1823.29  1853.68  1861.28
                             1871.66  1916.65  1920.32  1936.21  1951.22
                             1972.97  1982.50  2013.99  2015.95  2037.09
                             2048.09  2068.15  2070.42  2072.81  2089.34
                             2144.29  2163.51  2179.25  2186.09  2187.54
                             2197.03  2197.74  2198.32  2203.10  2212.19
                             2222.84  2334.13  2348.53  2438.21  4274.61
                             4301.57  4356.59  4368.53  4369.39  4377.80
                             4386.45  4390.50  4393.62  4416.26  4428.69
                             4439.85  4463.68  4468.84  4471.20  4489.18
                             4500.61  4507.14  4514.96  4559.48  4618.43
                             4986.19  5115.52

 Zero-point correction=                           0.363579 (Hartree/Particle)
 Thermal correction to Energy=                    0.381732
 Thermal correction to Enthalpy=                  0.382676
 Thermal correction to Gibbs Free Energy=         0.316636
 Sum of electronic and zero-point Energies=           -786.524041
 Sum of electronic and thermal Energies=              -786.505888
 Sum of electronic and thermal Enthalpies=            -786.504943
 Sum of electronic and thermal Free Energies=         -786.570984

                     E (Thermal)             CV                S
                      KCal/Mol        Cal/Mol-Kelvin    Cal/Mol-Kelvin
 Total                  239.540             69.721            138.994
 Electronic               0.000              0.000              0.000
 Translational            0.889              2.981             42.440
 Rotational               0.889              2.981             33.306
 Vibrational            237.763             63.759             63.249
 Vibration     1          0.593              1.986              6.931
 Vibration     2          0.594              1.981              5.229
 Vibration     3          0.597              1.974              4.474
 Vibration     4          0.597              1.972              4.353
 Vibration     5          0.599              1.965              4.004
 Vibration     6          0.607              1.939              3.223
 Vibration     7          0.611              1.926              2.982
 Vibration     8          0.619              1.899              2.630
 Vibration     9          0.636              1.846              2.173
 Vibration    10          0.638              1.838              2.121
 Vibration    11          0.653              1.793              1.866
 Vibration    12          0.658              1.776              1.788
 Vibration    13          0.659              1.773              1.774
 Vibration    14          0.661              1.767              1.750
 Vibration    15          0.670              1.741              1.643
 Vibration    16          0.690              1.682              1.440
 Vibration    17          0.706              1.636              1.312
 Vibration    18          0.723              1.587              1.192
 Vibration    19          0.741              1.537              1.085
 Vibration    20          0.758              1.491              0.999
 Vibration    21          0.775              1.447              0.924
 Vibration    22          0.783              1.425              0.890
 Vibration    23          0.796              1.392              0.840
 Vibration    24          0.832              1.304              0.722
 Vibration    25          0.849              1.266              0.676
 Vibration    26          0.868              1.222              0.628
 Vibration    27          0.924              1.100              0.508
 Vibration    28          0.933              1.082              0.492

                           ! Non-Optimized Parameters !
 Normal termination of Gaussian 16 at Fri Dec 11 23:29:17 2020.

 ----------------------------------------------------------------------
 # B3LYP/6-311++G(d,p) empiricaldispersion=gd3bj scf=xqc pop=npa geom=c
 heck
 ----------------------------------------------------------------------

 ---------------------------------------
 CID_113563069_JID_8908_Energie_neutraal
 ---------------------------------------
 Structure from the checkpoint file:  "JID_8908.chk"
 Charge =  0 Multiplicity = 1

 SCF Done:  E(RB3LYP) =  -787.106607338     A.U. after   15 cycles
 Normal termination of Gaussian 16 at Fri Dec 11 23:37:09 2020.

 ----------------------------------------------------------------------
 # B3LYP/6-311++G(d,p) empiricaldispersion=gd3bj scf=xqc pop=npa geom=c
 heck
 ----------------------------------------------------------------------

 -------------------------------------
 CID_113563069_JID_8908_Energie_kation
 -------------------------------------
 Structure from the checkpoint file:  "JID_8908.chk"
 Charge =  1 Multiplicity = 2

 SCF Done:  E(UB3LYP) =  -786.804983838     A.U. after   25 cycles
 Normal termination of Gaussian 16 at Fri Dec 11 23:54:44 2020.
 Gaussian 16:  ES64L-G16RevA.03 25-Dec-2016

 ----------------------------------------------------------------------
 # B3LYP/6-311++G(d,p) empiricaldispersion=gd3bj scf=xqc pop=npa geom=c
 heck
 ----------------------------------------------------------------------

 ------------------------------------
 CID_113563069_JID_8908_Energie_anion
 ------------------------------------
 Structure from the checkpoint file:  "JID_8908.chk"
 Charge = -1 Multiplicity = 2

                         Standard orientation:
 ---------------------------------------------------------------------
 Center     Atomic      Atomic             Coordinates (Angstroms)
 Number     Number       Type             X           Y           Z
 ---------------------------------------------------------------------
      1          6           0       -3.000081    2.700284   -1.559209
      2          6           0       -2.938006    2.017209   -0.197623
      3          8           0       -1.588608    1.774251    0.187495
      4          6           0       -1.100905    0.418685    0.195526
      5          6           0       -1.271389   -0.274577   -1.166667
      6          6           0       -0.789120   -1.731913   -1.150387
      7          6           0       -1.452302   -2.556781   -0.036701
      8          6           0       -1.268777   -1.858179    1.319279
      9          6           0       -1.780894   -0.412537    1.298325
     10          6           0       -0.918169   -3.990575   -0.008714
     11          6           0        0.380845    0.631797    0.536040
     12          7           0        0.669483    0.917565    1.816356
     13          6           0        1.951910    1.148269    2.098818
     14          6           0        2.955823    1.080249    1.134407
     15          6           0        2.558605    0.757856   -0.162301
     16          7           0        1.267646    0.549478   -0.457246
     17          6           0        3.552042    0.564575   -1.283753
     18          7           0        3.783289   -0.873612   -1.478630
     19          1           0       -2.385777    3.606418   -1.551855
     20          1           0       -4.031405    2.981922   -1.805224
     21          1           0       -2.622453    2.041356   -2.347156
     22          1           0       -3.372547    2.669340    0.570994
     23          1           0       -3.529708    1.094186   -0.203865
     24          1           0       -0.735764    0.295711   -1.928918
     25          1           0       -2.338159   -0.258298   -1.422557
     26          1           0        0.300589   -1.749994   -1.024613
     27          1           0       -0.995460   -2.192323   -2.125424
     28          1           0       -2.534158   -2.595377   -0.244498
     29          1           0       -1.786102   -2.422289    2.106016
     30          1           0       -0.202025   -1.865189    1.585830
     31          1           0       -1.612011    0.079172    2.258879
     32          1           0       -2.861880   -0.419852    1.110261
     33          1           0       -1.410556   -4.585907    0.769557
     34          1           0       -1.076607   -4.493610   -0.969975
     35          1           0        0.159957   -3.997469    0.196077
     36          1           0        2.184634    1.389311    3.135118
     37          1           0        3.996624    1.262281    1.383319
     38          1           0        3.107447    0.957914   -2.202770
     39          1           0        4.462653    1.150300   -1.068239
     40          1           0        4.367250   -1.015620   -2.300745
     41          1           0        4.303895   -1.246188   -0.685763
 ---------------------------------------------------------------------

 SCF Done:  E(UB3LYP) =  -787.103174803     A.U. after   33 cycles
 SCF Done:  E(UB3LYP) =  -787.103174803     a.u. after    1 cycles

 The electronic state is 2-A.
 Alpha  occ. eigenvalues --  -19.01268 -14.16529 -14.16421 -14.16261 -10.12259
 Alpha  occ. eigenvalues --  -10.11739 -10.10433 -10.07275 -10.07240 -10.07099
 Alpha  occ. eigenvalues --  -10.06962 -10.06545 -10.06528 -10.06197 -10.05528
 Alpha  occ. eigenvalues --  -10.05354 -10.05327 -10.04787  -0.92519  -0.84472
 Alpha  occ. eigenvalues --   -0.76260  -0.73880  -0.73268  -0.68433  -0.65310
 Alpha  occ. eigenvalues --   -0.64127  -0.63772  -0.57870  -0.56257  -0.53572
 Alpha  occ. eigenvalues --   -0.51666  -0.50793  -0.48272  -0.46935  -0.43570
 Alpha  occ. eigenvalues --   -0.40382  -0.38935  -0.38558  -0.36907  -0.35141
 Alpha  occ. eigenvalues --   -0.34564  -0.34006  -0.33780  -0.33000  -0.32322
 Alpha  occ. eigenvalues --   -0.31961  -0.31139  -0.30437  -0.29364  -0.28481
 Alpha  occ. eigenvalues --   -0.27745  -0.27441  -0.27237  -0.26594  -0.25952
 Alpha  occ. eigenvalues --   -0.24469  -0.23987  -0.23584  -0.22560  -0.21889
 Alpha  occ. eigenvalues --   -0.20306  -0.19145  -0.17632  -0.16353  -0.14783
 Alpha  occ. eigenvalues --   -0.14558  -0.11949  -0.10903   0.04754
 Alpha virt. eigenvalues --    0.06417   0.07123   0.08057   0.08367   0.08757
 Alpha virt. eigenvalues --    0.09119   0.09582   0.09829   0.10100   0.10294
 Alpha virt. eigenvalues --    0.11194   0.11360   0.11794   0.12310   0.12644

  Beta  occ. eigenvalues --  -19.01266 -14.16427 -14.16164 -14.16046 -10.12259
  Beta  occ. eigenvalues --  -10.11739 -10.10486 -10.07273 -10.07239 -10.06877
  Beta  occ. eigenvalues --  -10.06689 -10.06542 -10.06533 -10.06193 -10.05527
  Beta  occ. eigenvalues --  -10.05353 -10.05326 -10.04855  -0.92514  -0.84097
  Beta  occ. eigenvalues --   -0.75927  -0.73532  -0.73168  -0.68380  -0.65200
  Beta  occ. eigenvalues --   -0.64012  -0.63757  -0.57846  -0.55917  -0.53563
  Beta  occ. eigenvalues --   -0.51611  -0.50765  -0.47994  -0.46897  -0.43509
  Beta  occ. eigenvalues --   -0.40356  -0.38825  -0.38427  -0.36815  -0.35062
  Beta  occ. eigenvalues --   -0.34452  -0.33959  -0.33757  -0.32958  -0.32140
  Beta  occ. eigenvalues --   -0.31923  -0.31078  -0.30355  -0.29288  -0.28338
  Beta  occ. eigenvalues --   -0.27575  -0.27286  -0.27110  -0.26243  -0.25922
  Beta  occ. eigenvalues --   -0.24430  -0.23963  -0.23414  -0.22533  -0.21858
  Beta  occ. eigenvalues --   -0.20298  -0.19126  -0.16187  -0.15994  -0.14660
  Beta  occ. eigenvalues --   -0.13909  -0.11813  -0.10639
  Beta virt. eigenvalues --    0.06318   0.07030   0.08015   0.08288   0.08682
  Beta virt. eigenvalues --    0.09345   0.09493   0.09877   0.10223   0.10345
  Beta virt. eigenvalues --    0.10644   0.11333   0.11701   0.11836   0.12193

 Mulliken charges and spin densities:
               1          2
     1  C   -0.494750  -0.046077
     2  C    0.136408  -0.008998
     3  O    0.085822   0.002000
     4  C    0.328196  -0.148959
     5  C   -0.260315   0.134643
     6  C   -0.753322  -0.062869
     7  C    0.376123   0.017879
     8  C   -0.526149   0.020132
     9  C   -0.454564  -0.000009
    10  C   -0.681258  -0.123706
    11  C   -1.225737   0.032466
    12  N    0.020971   0.131036
    13  C    0.343874  -0.131399
    14  C   -0.518991   0.205148
    15  C    0.241273   0.274394
    16  N    0.178692   0.158291
    17  C    0.815201  -1.320782
    18  N   -0.192741  -0.123660
    19  H    0.136444   0.009257
    20  H    0.103906   0.010057
    21  H    0.102780   0.030001
    22  H    0.141679   0.006084
    23  H    0.102286   0.002810
    24  H    0.219847   0.021506
    25  H    0.094875   0.010142
    26  H    0.398207  -0.149991
    27  H    0.081509   0.067712
    28  H    0.145251  -0.005971
    29  H    0.130431   0.030740
    30  H    0.184988  -0.001542
    31  H    0.219933   0.000185
    32  H    0.067155   0.021030
    33  H    0.083329   0.033538
    34  H    0.095358   0.025873
    35  H    0.101429   0.043716
    36  H    0.105092   0.030821
    37  H   -0.269172   0.424422
    38  H   -0.153117   0.321087
    39  H   -0.158392   0.267528
    40  H   -0.345134   0.585316
    41  H   -0.007417   0.206150
 Sum of Mulliken charges =  -1.00000   1.00000

 Dipole moment (field-independent basis, Debye):
    X=            -10.4296    Y=             -0.4428    Z=              2.1347  Tot=             10.6550
 Quadrupole moment (field-independent basis, Debye-Ang):
   XX=           -172.9853   YY=           -140.5191   ZZ=           -142.2995
   XY=              3.1371   XZ=             17.6768   YZ=             -7.0644

 Summary of Natural Population Analysis:

                                       Natural Population
                Natural  -----------------------------------------------
    Atom  No    Charge         Core      Valence    Rydberg      Total
 -----------------------------------------------------------------------
      C    1   -0.29591      0.99967     2.29153    0.00472     3.29591
      C    2   -0.01164      0.99959     2.00042    0.01163     3.01164
      O    3   -0.30460      0.99987     3.29401    0.01073     4.30460
      C    4    0.13158      0.99944     1.85218    0.01680     2.86842
      C    5   -0.20372      0.99959     2.19475    0.00938     3.20372
      C    6   -0.19284      0.99961     2.18466    0.00857     3.19284
      C    7   -0.10918      0.99960     2.10245    0.00713     3.10918
      C    8   -0.18974      0.99961     2.18179    0.00834     3.18974
      C    9   -0.20278      0.99959     2.19385    0.00934     3.20278
      C   10   -0.28164      0.99965     2.27694    0.00504     3.28164
      C   11    0.20588      0.99953     1.77230    0.02228     2.79412
      N   12   -0.22813      0.99967     2.71775    0.01071     3.72813
      C   13    0.07736      0.99960     1.90794    0.01510     2.92264
      C   14   -0.16004      0.99950     2.15199    0.00855     3.16004
      C   15    0.16649      0.99953     1.81972    0.01426     2.83351
      N   16   -0.23138      0.99964     2.72046    0.01129     3.73138
      C   17   -0.10387      0.99959     2.09111    0.01317     3.10387
      N   18   -0.41287      0.99977     2.90193    0.01117     3.91287
      H   19    0.10095      0.00000     0.39781    0.00125     0.39905
      H   20    0.09097      0.00000     0.40790    0.00113     0.40903
      H   21    0.10006      0.00000     0.39867    0.00127     0.39994
      H   22    0.08158      0.00000     0.41723    0.00119     0.41842
      H   23    0.07857      0.00000     0.41957    0.00186     0.42143
      H   24    0.11691      0.00000     0.38181    0.00128     0.38309
      H   25    0.08865      0.00000     0.40999    0.00135     0.41135
      H   26    0.11403      0.00000     0.38420    0.00178     0.38597
      H   27    0.09404      0.00000     0.40494    0.00102     0.40596
      H   28    0.08360      0.00000     0.41448    0.00192     0.41640
      H   29    0.09357      0.00000     0.40511    0.00132     0.40643
      H   30    0.10268      0.00000     0.39598    0.00134     0.39732
      H   31    0.11728      0.00000     0.38159    0.00114     0.38272
      H   32    0.08877      0.00000     0.40991    0.00132     0.41123
      H   33    0.09337      0.00000     0.40566    0.00097     0.40663
      H   34    0.09577      0.00000     0.40327    0.00096     0.40423
      H   35    0.10026      0.00000     0.39861    0.00113     0.39974
      H   36    0.07975      0.00000     0.41922    0.00103     0.42025
      H   37    0.10109      0.00000     0.39780    0.00110     0.39891
      H   38    0.09861      0.00000     0.39969    0.00170     0.40139
      H   39    0.07856      0.00000     0.41933    0.00211     0.42144
      H   40    0.17699      0.00000     0.31577    0.00724     0.32301
      H   41    0.17097      0.00000     0.32668    0.00235     0.32903
 =======================================================================
   * Total *   -0.00000     17.99305    49.77100    0.23595    68.00000

 Normal termination of Gaussian 16 at Sat Dec 12 00:17:55 2020.
