 Gaussian 16, Revision A.03,

 -----------------------------------------------------------
 # opt freq B3LYP/6-31G(d) empiricaldispersion=gd3bj scf=xqc
 -----------------------------------------------------------

 -------------------------------
 CID_108355192_JID_7199_neutraal
 -------------------------------
 Symbolic Z-matrix:
 Charge =  0 Multiplicity = 1

 SCF Done:  E(RB3LYP) =  -815.441216933     A.U. after   15 cycles
 SCF Done:  E(RB3LYP) =  -815.448668393     A.U. after   14 cycles
 SCF Done:  E(RB3LYP) =  -815.448204518     A.U. after   14 cycles
 SCF Done:  E(RB3LYP) =  -815.452023504     A.U. after   15 cycles
 SCF Done:  E(RB3LYP) =  -815.453436532     A.U. after   13 cycles
 SCF Done:  E(RB3LYP) =  -815.454355651     A.U. after   14 cycles
 SCF Done:  E(RB3LYP) =  -815.454586333     A.U. after   16 cycles
 SCF Done:  E(RB3LYP) =  -815.455483229     A.U. after   14 cycles
 SCF Done:  E(RB3LYP) =  -815.455759465     A.U. after   12 cycles
 SCF Done:  E(RB3LYP) =  -815.455853058     A.U. after   12 cycles
 SCF Done:  E(RB3LYP) =  -815.455864228     A.U. after   11 cycles
 SCF Done:  E(RB3LYP) =  -815.455868987     A.U. after   11 cycles
 SCF Done:  E(RB3LYP) =  -815.455870708     A.U. after   10 cycles
 SCF Done:  E(RB3LYP) =  -815.455871145     A.U. after    9 cycles
 SCF Done:  E(RB3LYP) =  -815.455871435     A.U. after    9 cycles
 SCF Done:  E(RB3LYP) =  -815.455871510     A.U. after    8 cycles
 Optimization completed.
    -- Stationary point found.
 Normal termination of Gaussian 16 at Mon Dec 14 16:45:02 2020.

 --------------------------------------------------------------------
 #N Geom=AllCheck Guess=TCheck SCRF=Check GenChk RB3LYP/6-31G(d) Freq
 --------------------------------------------------------------------

 Structure from the checkpoint file:  "JID_7199.chk"
 -------------------------------
 CID_108355192_JID_7199_neutraal
 -------------------------------
 Charge =  0 Multiplicity = 1

 SCF Done:  E(RB3LYP) =  -815.455871510     A.U. after    1 cycles

  Exact polarizability: 201.972   2.202 168.053  10.914   0.262  88.609
 Approx polarizability: 315.473   0.607 252.581  27.445   2.294 134.223

                      1                      2                      3
                      A                      A                      A
 Frequencies --     13.1913                31.2350                45.8833
 Red. masses --      3.6205                 4.3291                 7.3939
 Frc consts  --      0.0004                 0.0025                 0.0092
 IR Inten    --      0.1718                 0.4098                 0.0236

                      4                      5                      6
                      A                      A                      A
 Frequencies --     57.9036                98.0422                98.7435
 Red. masses --      3.4623                 3.3605                 4.0319
 Frc consts  --      0.0068                 0.0190                 0.0232
 IR Inten    --      0.2971                 0.9331                 0.4195

                      7                      8                      9
                      A                      A                      A
 Frequencies --    124.3579               162.8014               173.9660
 Red. masses --      2.6218                 2.8442                 2.1201
 Frc consts  --      0.0239                 0.0444                 0.0378
 IR Inten    --      0.1805                 4.7517                 6.2967

                     10                     11                     12
                      A                      A                      A
 Frequencies --    182.2481               212.7301               213.7424
 Red. masses --      2.4751                 1.4988                 3.9182
 Frc consts  --      0.0484                 0.0400                 0.1055
 IR Inten    --      4.5395                 1.0269                 5.6021

                     13                     14                     15
                      A                      A                      A
 Frequencies --    233.2932               244.9392               264.6828
 Red. masses --      1.3604                 2.3078                 3.6752
 Frc consts  --      0.0436                 0.0816                 0.1517
 IR Inten    --      1.8660                 4.8406                 4.0757

                     16                     17                     18
                      A                      A                      A
 Frequencies --    291.8493               319.1802               345.8846
 Red. masses --      1.8118                 2.9252                 4.8845
 Frc consts  --      0.0909                 0.1756                 0.3443
 IR Inten    --      4.0678                 5.0418                 8.6601

                     19                     20                     21
                      A                      A                      A
 Frequencies --    375.3599               416.9736               436.5383
 Red. masses --      3.4374                 3.6395                 2.9661
 Frc consts  --      0.2853                 0.3728                 0.3330
 IR Inten    --      0.4227                16.3062                13.6468

                     22                     23                     24
                      A                      A                      A
 Frequencies --    453.4744               488.6824               506.9772
 Red. masses --      3.1880                 1.5722                 1.4417
 Frc consts  --      0.3863                 0.2212                 0.2183
 IR Inten    --      0.8248                97.3509               230.8090

                     25                     26                     27
                      A                      A                      A
 Frequencies --    533.2321               549.4664               591.5790
 Red. masses --      6.7045                 2.8516                 3.5681
 Frc consts  --      1.1232                 0.5072                 0.7357
 IR Inten    --     10.2079                 5.1921                 2.7068

                     28                     29                     30
                      A                      A                      A
 Frequencies --    646.1408               677.2950               724.9573
 Red. masses --      3.7030                 3.2720                 4.0028
 Frc consts  --      0.9109                 0.8843                 1.2395
 IR Inten    --     21.8088                 6.0801                20.6711

                     31                     32                     33
                      A                      A                      A
 Frequencies --    739.8463               753.0125               762.0172
 Red. masses --      2.0947                 1.4246                 9.8728
 Frc consts  --      0.6755                 0.4759                 3.3777
 IR Inten    --     16.9672                19.3690                23.0467

                     34                     35                     36
                      A                      A                      A
 Frequencies --    807.2487               814.6642               851.3208
 Red. masses --      1.7118                 5.2011                 2.0662
 Frc consts  --      0.6572                 2.0338                 0.8823
 IR Inten    --      4.7725                60.8617                32.2343

                     37                     38                     39
                      A                      A                      A
 Frequencies --    864.1055               869.7782               919.5992
 Red. masses --      1.5136                 2.1027                 1.5799
 Frc consts  --      0.6659                 0.9372                 0.7872
 IR Inten    --      1.5411                 1.2651                 1.7476

                     40                     41                     42
                      A                      A                      A
 Frequencies --    940.7981               951.1824               999.5429
 Red. masses --      4.8207                 1.9780                 5.2587
 Frc consts  --      2.5139                 1.0544                 3.0955
 IR Inten    --     13.3578                10.4105                 9.9387

                     43                     44                     45
                      A                      A                      A
 Frequencies --   1011.6191              1028.3672              1049.9301
 Red. masses --      2.5729                 1.2959                 1.9352
 Frc consts  --      1.5513                 0.8075                 1.2569
 IR Inten    --     51.6991                 2.5800                17.6159

                     46                     47                     48
                      A                      A                      A
 Frequencies --   1081.7305              1103.3863              1125.7633
 Red. masses --      2.5741                 2.1530                 1.5419
 Frc consts  --      1.7747                 1.5444                 1.1513
 IR Inten    --      6.4091                12.7895                16.6146

                     49                     50                     51
                      A                      A                      A
 Frequencies --   1160.4704              1190.4161              1205.9278
 Red. masses --      2.0666                 2.0753                 1.9724
 Frc consts  --      1.6397                 1.7327                 1.6900
 IR Inten    --      4.2895                 3.5569                 7.8316

                     52                     53                     54
                      A                      A                      A
 Frequencies --   1215.0097              1272.3166              1281.3229
 Red. masses --      2.6161                 1.6575                 1.3939
 Frc consts  --      2.2754                 1.5809                 1.3483
 IR Inten    --     50.9904                67.5137                24.5554

                     55                     56                     57
                      A                      A                      A
 Frequencies --   1304.6075              1338.3307              1370.4475
 Red. masses --      1.2395                 2.4856                 1.3392
 Frc consts  --      1.2429                 2.6231                 1.4819
 IR Inten    --     10.5595                42.2752                 9.6488

                     58                     59                     60
                      A                      A                      A
 Frequencies --   1372.4648              1379.5194              1395.9969
 Red. masses --      1.2582                 1.4722                 1.4999
 Frc consts  --      1.3963                 1.6507                 1.7222
 IR Inten    --     18.9057                 4.7297                14.7333

                     61                     62                     63
                      A                      A                      A
 Frequencies --   1407.9587              1409.1238              1417.8678
 Red. masses --      7.1221                 1.7456                 1.8518
 Frc consts  --      8.3184                 2.0422                 2.1934
 IR Inten    --    191.8784                41.1586                26.3420

                     64                     65                     66
                      A                      A                      A
 Frequencies --   1436.3462              1446.6811              1447.5364
 Red. masses --      1.5675                 1.4551                 1.3383
 Frc consts  --      1.9053                 1.7943                 1.6522
 IR Inten    --     19.3269                 4.5912                 8.8613

                     67                     68                     69
                      A                      A                      A
 Frequencies --   1488.2014              1511.8031              1519.0985
 Red. masses --      3.2232                 1.0883                 1.5702
 Frc consts  --      4.2059                 1.4656                 2.1349
 IR Inten    --    185.9638                 8.6416               144.3429

                     70                     71                     72
                      A                      A                      A
 Frequencies --   1522.3139              1527.3887              1532.6403
 Red. masses --      1.1344                 1.1256                 1.0718
 Frc consts  --      1.5489                 1.5472                 1.4834
 IR Inten    --     35.1139                50.8572                14.6897

                     73                     74                     75
                      A                      A                      A
 Frequencies --   1534.8723              1542.1428              1574.8514
 Red. masses --      1.0589                 1.0707                 2.4745
 Frc consts  --      1.4698                 1.5003                 3.6158
 IR Inten    --      7.6356                 5.3843               151.9761

                     76                     77                     78
                      A                      A                      A
 Frequencies --   1635.7274              1641.3578              1682.4166
 Red. masses --     11.0673                 5.7087                 9.6170
 Frc consts  --     17.4467                 9.0614                16.0383
 IR Inten    --    564.5030               293.6547               111.6852

                     79                     80                     81
                      A                      A                      A
 Frequencies --   1747.4966              3031.7235              3042.5238
 Red. masses --      1.0636                 1.0629                 1.0590
 Frc consts  --      1.9136                 5.7561                 5.7757
 IR Inten    --     22.4485                17.4901                16.5055

                     82                     83                     84
                      A                      A                      A
 Frequencies --   3046.9644              3048.4867              3066.4364
 Red. masses --      1.0387                 1.0455                 1.0940
 Frc consts  --      5.6814                 5.7246                 6.0608
 IR Inten    --     24.5702                19.9541                 9.6899

                     85                     86                     87
                      A                      A                      A
 Frequencies --   3070.3732              3084.7676              3112.5333
 Red. masses --      1.0898                 1.0981                 1.1019
 Frc consts  --      6.0531                 6.1564                 6.2896
 IR Inten    --     19.4129                46.3005                37.7463

                     88                     89                     90
                      A                      A                      A
 Frequencies --   3117.8738              3120.9949              3145.0456
 Red. masses --      1.1011                 1.0962                 1.1023
 Frc consts  --      6.3066                 6.2908                 6.4241
 IR Inten    --     49.9638                41.0118                23.6604

                     91                     92                     93
                      A                      A                      A
 Frequencies --   3260.1856              3287.7897              3426.8355
 Red. masses --      1.0919                 1.0909                 1.0494
 Frc consts  --      6.8375                 6.9477                 7.2605
 IR Inten    --      4.8564                 4.8032                 4.3055

                     94                     95                     96
                      A                      A                      A
 Frequencies --   3505.1443              3593.7282              3611.1730
 Red. masses --      1.0919                 1.0756                 1.0776
 Frc consts  --      7.9038                 8.1844                 8.2792
 IR Inten    --      0.4398                25.6741                46.4638

 - Thermochemistry -
 -------------------
 Temperature   298.150 Kelvin.  Pressure   1.00000 Atm.
 Atom     1 has atomic number  6 and mass  12.00000

 Molecular mass:   239.13822 amu.
 Principal axes and moments of inertia in atomic units:
                           1         2         3
     Eigenvalues --  3419.039135810.842028674.65844
           X            0.99983   0.01818   0.00020
           Y           -0.01818   0.99981  -0.00629
           Z           -0.00032   0.00629   0.99998
 This molecule is an asymmetric top.
 Rotational symmetry number  1.
 Warning -- assumption of classical behavior for rotation
           may cause significant error
 Rotational temperatures (Kelvin)      0.02533     0.01491     0.00998
 Rotational constants (GHZ):           0.52785     0.31058     0.20805
 Zero-point vibrational energy     749307.9 (Joules/Mol)
                                  179.08889 (Kcal/Mol)
 Warning -- explicit consideration of  27 degrees of freedom as
           vibrations may cause significant error
 Vibrational temperatures:     18.98    44.94    66.02    83.31   141.06
          (Kelvin)            142.07   178.92   234.23   250.30   262.21
                              306.07   307.53   335.66   352.41   380.82
                              419.91   459.23   497.65   540.06   599.93
                              628.08   652.45   703.10   729.43   767.20
                              790.56   851.15   929.65   974.48  1043.05
                             1064.47  1083.42  1096.37  1161.45  1172.12
                             1224.86  1243.26  1251.42  1323.10  1353.60
                             1368.54  1438.12  1455.49  1479.59  1510.62
                             1556.37  1587.53  1619.72  1669.66  1712.74
                             1735.06  1748.13  1830.58  1843.54  1877.04
                             1925.56  1971.77  1974.67  1984.82  2008.53
                             2025.74  2027.41  2040.00  2066.58  2081.45
                             2082.68  2141.19  2175.15  2185.64  2190.27
                             2197.57  2205.13  2208.34  2218.80  2265.86
                             2353.45  2361.55  2420.62  2514.26  4361.97
                             4377.51  4383.90  4386.09  4411.92  4417.58
                             4438.29  4478.24  4485.92  4490.42  4525.02
                             4690.68  4730.40  4930.45  5043.12  5170.57
                             5195.67

 Zero-point correction=                           0.285396 (Hartree/Particle)
 Thermal correction to Energy=                    0.303138
 Thermal correction to Enthalpy=                  0.304082
 Thermal correction to Gibbs Free Energy=         0.237752
 Sum of electronic and zero-point Energies=           -815.170475
 Sum of electronic and thermal Energies=              -815.152734
 Sum of electronic and thermal Enthalpies=            -815.151789
 Sum of electronic and thermal Free Energies=         -815.218119

                     E (Thermal)             CV                S
                      KCal/Mol        Cal/Mol-Kelvin    Cal/Mol-Kelvin
 Total                  190.222             65.334            139.603
 Electronic               0.000              0.000              0.000
 Translational            0.889              2.981             42.317
 Rotational               0.889              2.981             33.510
 Vibrational            188.444             59.372             63.776
 Vibration     1          0.593              1.987              7.461
 Vibration     2          0.594              1.983              5.749
 Vibration     3          0.595              1.979              4.987
 Vibration     4          0.596              1.974              4.527
 Vibration     5          0.603              1.951              3.493
 Vibration     6          0.604              1.950              3.479
 Vibration     7          0.610              1.929              3.032
 Vibration     8          0.623              1.888              2.517
 Vibration     9          0.627              1.874              2.392
 Vibration    10          0.630              1.864              2.305
 Vibration    11          0.644              1.822              2.020
 Vibration    12          0.644              1.820              2.011
 Vibration    13          0.654              1.790              1.853
 Vibration    14          0.660              1.771              1.767
 Vibration    15          0.671              1.738              1.631
 Vibration    16          0.687              1.689              1.463
 Vibration    17          0.705              1.637              1.314
 Vibration    18          0.724              1.584              1.185
 Vibration    19          0.746              1.523              1.058
 Vibration    20          0.780              1.433              0.902
 Vibration    21          0.797              1.391              0.838
 Vibration    22          0.812              1.353              0.785
 Vibration    23          0.845              1.275              0.687
 Vibration    24          0.862              1.235              0.641
 Vibration    25          0.888              1.176              0.580
 Vibration    26          0.905              1.141              0.545
 Vibration    27          0.949              1.050              0.464

                           ! Non-Optimized Parameters !
 Normal termination of Gaussian 16 at Mon Dec 14 16:57:28 2020.

 ----------------------------------------------------------------------
 # B3LYP/6-311++G(d,p) empiricaldispersion=gd3bj scf=xqc pop=npa geom=c
 heck
 ----------------------------------------------------------------------

 ---------------------------------------
 CID_108355192_JID_7199_Energie_neutraal
 ---------------------------------------
 Structure from the checkpoint file:  "JID_7199.chk"
 Charge =  0 Multiplicity = 1

 SCF Done:  E(RB3LYP) =  -815.697537597     A.U. after   16 cycles
 Normal termination of Gaussian 16 at Mon Dec 14 17:04:13 2020.

 ----------------------------------------------------------------------
 # B3LYP/6-311++G(d,p) empiricaldispersion=gd3bj scf=xqc pop=npa geom=c
 heck
 ----------------------------------------------------------------------

 -------------------------------------
 CID_108355192_JID_7199_Energie_kation
 -------------------------------------
 Structure from the checkpoint file:  "JID_7199.chk"
 Charge =  1 Multiplicity = 2

 SCF Done:  E(UB3LYP) =  -815.416597304     A.U. after   26 cycles
 Normal termination of Gaussian 16 at Mon Dec 14 17:19:28 2020.
 Gaussian 16:  ES64L-G16RevA.03 25-Dec-2016

 ----------------------------------------------------------------------
 # B3LYP/6-311++G(d,p) empiricaldispersion=gd3bj scf=xqc pop=npa geom=c
 heck
 ----------------------------------------------------------------------

 ------------------------------------
 CID_108355192_JID_7199_Energie_anion
 ------------------------------------
 Structure from the checkpoint file:  "JID_7199.chk"
 Charge = -1 Multiplicity = 2

                         Standard orientation:
 ---------------------------------------------------------------------
 Center     Atomic      Atomic             Coordinates (Angstroms)
 Number     Number       Type             X           Y           Z
 ---------------------------------------------------------------------
      1          6           0       -3.985771   -1.537153    0.335929
      2          6           0       -4.033314   -0.183838    1.054542
      3          6           0       -2.727798    0.617693    0.948678
      4          6           0       -2.318965    1.022432   -0.482206
      5          6           0       -3.258548    2.061523   -1.093708
      6          7           0       -0.956481    1.547885   -0.525277
      7          6           0        0.167392    0.796560   -0.315310
      8          7           0        1.295440    1.501647   -0.085345
      9          6           0        2.446245    0.843748    0.081379
     10          6           0        2.549331   -0.564178    0.062607
     11          6           0        1.367656   -1.244329   -0.160211
     12          6           0        0.148831   -0.611150   -0.358991
     13          7           0        1.397107   -2.723461   -0.177251
     14          8           0        0.331302   -3.313280   -0.345601
     15          8           0        2.484458   -3.274374   -0.019518
     16          7           0        3.580811    1.607430    0.266854
     17          7           0        3.495365    2.984492    0.562522
     18          1           0       -3.901036   -1.423309   -0.750714
     19          1           0       -4.893758   -2.117785    0.530832
     20          1           0       -3.129334   -2.133439    0.673873
     21          1           0       -4.874711    0.408972    0.672599
     22          1           0       -4.243748   -0.350714    2.118487
     23          1           0       -2.801210    1.532301    1.553398
     24          1           0       -1.914425    0.022618    1.382497
     25          1           0       -2.334031    0.136289   -1.125910
     26          1           0       -3.270935    2.977035   -0.487931
     27          1           0       -2.940120    2.322355   -2.107529
     28          1           0       -4.282675    1.681513   -1.140530
     29          1           0       -0.830619    2.528496   -0.307281
     30          1           0        3.483711   -1.087617    0.210845
     31          1           0       -0.745622   -1.189099   -0.529832
     32          1           0        4.357637    1.157069    0.730642
     33          1           0        3.344556    3.468254   -0.322820
     34          1           0        2.634185    3.134495    1.093564
 ---------------------------------------------------------------------

 SCF Done:  E(UB3LYP) =  -815.735541276     A.U. after   23 cycles

 The electronic state is 2-A.
 Alpha  occ. eigenvalues --  -18.93494 -18.93458 -14.31014 -14.22882 -14.22493
 Alpha  occ. eigenvalues --  -14.20619 -14.15895 -10.11406 -10.10891 -10.10809
 Alpha  occ. eigenvalues --  -10.08401 -10.08281 -10.07200 -10.07187 -10.05893
 Alpha  occ. eigenvalues --  -10.01915 -10.01827  -1.01597  -0.88351  -0.84513
 Alpha  occ. eigenvalues --   -0.84269  -0.78324  -0.71160  -0.68753  -0.67440
 Alpha  occ. eigenvalues --   -0.65782  -0.59778  -0.58759  -0.54591  -0.53832
 Alpha  occ. eigenvalues --   -0.50046  -0.47500  -0.46267  -0.40793  -0.39942
 Alpha  occ. eigenvalues --   -0.39385  -0.38352  -0.37155  -0.36343  -0.34882
 Alpha  occ. eigenvalues --   -0.34089  -0.33897  -0.33639  -0.32669  -0.32182
 Alpha  occ. eigenvalues --   -0.30741  -0.30297  -0.29482  -0.28569  -0.27879
 Alpha  occ. eigenvalues --   -0.27003  -0.25760  -0.24725  -0.24205  -0.23765
 Alpha  occ. eigenvalues --   -0.20661  -0.17572  -0.15949  -0.14233  -0.12932
 Alpha  occ. eigenvalues --   -0.12329  -0.11387  -0.09353  -0.07176   0.02981
 Alpha virt. eigenvalues --    0.06083   0.07581   0.08075   0.08547   0.09758
 Alpha virt. eigenvalues --    0.10145   0.10581   0.10949   0.11926   0.12341
 Alpha virt. eigenvalues --    0.13036   0.13279   0.13883   0.14018   0.14694

  Beta  occ. eigenvalues --  -18.92979 -18.92942 -14.30377 -14.22867 -14.22492
  Beta  occ. eigenvalues --  -14.20621 -14.15689 -10.11406 -10.10893 -10.10822
  Beta  occ. eigenvalues --  -10.08401 -10.08281 -10.07200 -10.07184 -10.05715
  Beta  occ. eigenvalues --  -10.01830 -10.01699  -1.00496  -0.88302  -0.84208
  Beta  occ. eigenvalues --   -0.83534  -0.78159  -0.71141  -0.68698  -0.66904
  Beta  occ. eigenvalues --   -0.65748  -0.59770  -0.58550  -0.54229  -0.53145
  Beta  occ. eigenvalues --   -0.49982  -0.47476  -0.46016  -0.40746  -0.39658
  Beta  occ. eigenvalues --   -0.39344  -0.38262  -0.36830  -0.36165  -0.34700
  Beta  occ. eigenvalues --   -0.33927  -0.33628  -0.32591  -0.31944  -0.30895
  Beta  occ. eigenvalues --   -0.30393  -0.29913  -0.29296  -0.28272  -0.27629
  Beta  occ. eigenvalues --   -0.26965  -0.25634  -0.24617  -0.24172  -0.23724
  Beta  occ. eigenvalues --   -0.20492  -0.17535  -0.14940  -0.13957  -0.11621
  Beta  occ. eigenvalues --   -0.10860  -0.09424  -0.08840  -0.06366
  Beta virt. eigenvalues --    0.06070   0.07564   0.08041   0.08528   0.09715
  Beta virt. eigenvalues --    0.09990   0.10191   0.10584   0.10979   0.11935
  Beta virt. eigenvalues --    0.12326   0.13023   0.13284   0.14013   0.14090

 Mulliken charges and spin densities:
               1          2
     1  C   -0.565444  -0.008933
     2  C   -0.413353  -0.013058
     3  C    0.151385  -0.008877
     4  C   -0.402406   0.005213
     5  C   -0.602035  -0.001859
     6  N    0.050408   0.000148
     7  C   -1.178006  -0.004153
     8  N   -0.211218   0.101432
     9  C   -0.816137  -0.047964
    10  C    1.397083   0.223474
    11  C   -0.314528   0.026679
    12  C   -0.013670   0.087633
    13  N   -0.268010   0.210222
    14  O   -0.189948   0.201632
    15  O   -0.183341   0.195707
    16  N   -0.132606   0.006852
    17  N   -0.370554  -0.003372
    18  H    0.126609   0.002065
    19  H    0.130678  -0.000251
    20  H    0.164995   0.011554
    21  H    0.100274   0.000657
    22  H    0.144184  -0.000018
    23  H    0.134869  -0.000163
    24  H    0.167145   0.018608
    25  H    0.153981   0.001895
    26  H    0.131164  -0.000080
    27  H    0.150687  -0.000154
    28  H    0.141322  -0.000087
    29  H    0.261371  -0.000890
    30  H    0.246110  -0.006926
    31  H    0.276303   0.002799
    32  H    0.264717   0.001471
    33  H    0.248964   0.000054
    34  H    0.219006  -0.001312
 Sum of Mulliken charges =  -1.00000   1.00000

 Dipole moment (field-independent basis, Debye):
    X=             -7.7038    Y=              9.3870    Z=              0.9992  Tot=             12.1845
 Quadrupole moment (field-independent basis, Debye-Ang):
   XX=           -130.8883   YY=           -155.7770   ZZ=           -109.8749
   XY=              7.7838   XZ=              0.2695   YZ=             -3.4779

 Summary of Natural Population Analysis:

                                       Natural Population
                Natural  -----------------------------------------------
    Atom  No    Charge         Core      Valence    Rydberg      Total
 -----------------------------------------------------------------------
      C    1   -0.29042      0.99967     2.28598    0.00478     3.29042
      C    2   -0.19030      0.99965     2.18446    0.00620     3.19030
      C    3   -0.19579      0.99961     2.18849    0.00770     3.19579
      C    4   -0.01165      0.99961     2.00243    0.00962     3.01165
      C    5   -0.28620      0.99965     2.28177    0.00478     3.28620
      N    6   -0.32277      0.99965     2.80905    0.01406     3.82277
      C    7    0.20579      0.99955     1.78063    0.01402     2.79421
      N    8   -0.28170      0.99963     2.76997    0.01210     3.78170
      C    9    0.19452      0.99955     1.79209    0.01383     2.80548
      C   10   -0.14001      0.99947     2.13081    0.00973     3.14001
      C   11    0.10923      0.99940     1.87945    0.01192     2.89077
      C   12   -0.16108      0.99947     2.15304    0.00856     3.16108
      N   13    0.30343      0.99973     2.16766    0.02918     3.19657
      O   14   -0.19200      0.99990     3.18432    0.00778     4.19200
      O   15   -0.18997      0.99990     3.18239    0.00768     4.18997
      N   16   -0.23216      0.99966     2.71825    0.01425     3.73216
      N   17   -0.32325      0.99978     2.81230    0.01116     3.82325
      H   18    0.09541      0.00000     0.40371    0.00088     0.40459
      H   19    0.09388      0.00000     0.40524    0.00088     0.40612
      H   20    0.10762      0.00000     0.39122    0.00116     0.39238
      H   21    0.08709      0.00000     0.41162    0.00129     0.41291
      H   22    0.09310      0.00000     0.40568    0.00122     0.40690
      H   23    0.09177      0.00000     0.40709    0.00114     0.40823
      H   24    0.11028      0.00000     0.38847    0.00125     0.38972
      H   25    0.09780      0.00000     0.40034    0.00186     0.40220
      H   26    0.09255      0.00000     0.40646    0.00099     0.40745
      H   27    0.10292      0.00000     0.39613    0.00095     0.39708
      H   28    0.09766      0.00000     0.40157    0.00077     0.40234
      H   29    0.18476      0.00000     0.31337    0.00187     0.31524
      H   30    0.11407      0.00000     0.38446    0.00146     0.38593
      H   31    0.11494      0.00000     0.38325    0.00181     0.38506
      H   32    0.17962      0.00000     0.31811    0.00227     0.32038
      H   33    0.16891      0.00000     0.32919    0.00190     0.33109
      H   34    0.17196      0.00000     0.32569    0.00235     0.32804
 =======================================================================
   * Total *    0.00000     16.99388    46.79469    0.21144    64.00000

 Normal termination of Gaussian 16 at Mon Dec 14 17:33:03 2020.
