 Gaussian 16, Revision A.03,

 -----------------------------------------------------------
 # opt freq B3LYP/6-31G(d) empiricaldispersion=gd3bj scf=xqc
 -----------------------------------------------------------

 ------------------------------
 CID_90642917_JID_1626_neutraal
 ------------------------------
 Symbolic Z-matrix:
 Charge =  0 Multiplicity = 1

 SCF Done:  E(RB3LYP) =  -530.063187469     A.U. after   15 cycles
 SCF Done:  E(RB3LYP) =  -530.090754403     A.U. after   13 cycles
 SCF Done:  E(RB3LYP) =  -530.080107548     A.U. after   15 cycles
 SCF Done:  E(RB3LYP) =  -530.087022422     A.U. after   14 cycles
 SCF Done:  E(RB3LYP) =  -530.092224509     A.U. after   12 cycles
 SCF Done:  E(RB3LYP) =  -530.093263518     A.U. after   12 cycles
 SCF Done:  E(RB3LYP) =  -530.093664986     A.U. after   12 cycles
 SCF Done:  E(RB3LYP) =  -530.093950245     A.U. after   12 cycles
 SCF Done:  E(RB3LYP) =  -530.094077566     A.U. after   12 cycles
 SCF Done:  E(RB3LYP) =  -530.094143310     A.U. after   11 cycles
 SCF Done:  E(RB3LYP) =  -530.094168132     A.U. after    9 cycles
 SCF Done:  E(RB3LYP) =  -530.094169547     A.U. after    8 cycles
 SCF Done:  E(RB3LYP) =  -530.094170777     A.U. after    9 cycles
 SCF Done:  E(RB3LYP) =  -530.094171038     A.U. after    8 cycles
 SCF Done:  E(RB3LYP) =  -530.094171112     A.U. after    7 cycles
 Optimization completed.
    -- Stationary point found.
 Normal termination of Gaussian 16 at Tue Dec  8 20:35:07 2020.

 --------------------------------------------------------------------
 #N Geom=AllCheck Guess=TCheck SCRF=Check GenChk RB3LYP/6-31G(d) Freq
 --------------------------------------------------------------------

 Structure from the checkpoint file:  "JID_1626.chk"
 ------------------------------
 CID_90642917_JID_1626_neutraal
 ------------------------------
 Charge =  0 Multiplicity = 1

 SCF Done:  E(RB3LYP) =  -530.094171112     A.U. after    1 cycles

  Exact polarizability: 110.273 -11.698  91.941   6.392  -0.349  64.562
 Approx polarizability: 138.793 -24.660 147.440   8.256   1.529  99.665

                      1                      2                      3
                      A                      A                      A
 Frequencies --     43.8923                62.2480                92.0453
 Red. masses --      5.8543                 4.2381                 4.5572
 Frc consts  --      0.0066                 0.0097                 0.0227
 IR Inten    --      3.4279                 0.4014                 2.4102

                      4                      5                      6
                      A                      A                      A
 Frequencies --    107.7070               129.2445               154.2389
 Red. masses --      3.6074                 3.6270                 5.6680
 Frc consts  --      0.0247                 0.0357                 0.0794
 IR Inten    --      1.3846                 3.1425                12.4849

                      7                      8                      9
                      A                      A                      A
 Frequencies --    232.5328               282.9721               297.5466
 Red. masses --      3.6531                 3.0838                 2.8258
 Frc consts  --      0.1164                 0.1455                 0.1474
 IR Inten    --     11.2427                 5.0103                 0.3862

                     10                     11                     12
                      A                      A                      A
 Frequencies --    328.3840               345.3908               364.1790
 Red. masses --      2.8332                 1.5675                 1.8139
 Frc consts  --      0.1800                 0.1102                 0.1417
 IR Inten    --      6.7661                63.3406                62.5100

                     13                     14                     15
                      A                      A                      A
 Frequencies --    394.4664               422.8662               477.9611
 Red. masses --      1.0967                 1.5556                 2.3132
 Frc consts  --      0.1005                 0.1639                 0.3114
 IR Inten    --     63.3319                 4.0987                 7.9560

                     16                     17                     18
                      A                      A                      A
 Frequencies --    520.3549               562.8583               591.9551
 Red. masses --      3.4445                 3.5971                 3.1043
 Frc consts  --      0.5495                 0.6714                 0.6409
 IR Inten    --      4.1680                 3.8225                33.2161

                     19                     20                     21
                      A                      A                      A
 Frequencies --    610.0526               644.2144               706.2752
 Red. masses --      3.4828                 1.7792                 2.0600
 Frc consts  --      0.7637                 0.4350                 0.6054
 IR Inten    --     41.9186               129.2749               158.6589

                     22                     23                     24
                      A                      A                      A
 Frequencies --    743.2361               804.4438               815.4296
 Red. masses --      1.6083                 1.8273                 1.7958
 Frc consts  --      0.5234                 0.6967                 0.7035
 IR Inten    --      1.1483                38.8354               238.4141

                     25                     26                     27
                      A                      A                      A
 Frequencies --    905.5403               929.4526               999.7710
 Red. masses --      3.5624                 2.3793                 2.3790
 Frc consts  --      1.7211                 1.2110                 1.4010
 IR Inten    --      8.4065                13.1679                12.3805

                     28                     29                     30
                      A                      A                      A
 Frequencies --   1050.8843              1066.1875              1075.5808
 Red. masses --      2.8882                 2.8491                 2.3721
 Frc consts  --      1.8793                 1.9082                 1.6168
 IR Inten    --     11.0689                62.2686                16.6751

                     31                     32                     33
                      A                      A                      A
 Frequencies --   1108.2455              1110.8489              1132.8339
 Red. masses --      3.3975                 1.4948                 2.0008
 Frc consts  --      2.4585                 1.0868                 1.5128
 IR Inten    --     55.4389                45.0889                 4.6369

                     34                     35                     36
                      A                      A                      A
 Frequencies --   1205.3906              1227.6734              1275.1206
 Red. masses --      1.2453                 1.3764                 1.5719
 Frc consts  --      1.0661                 1.2223                 1.5058
 IR Inten    --      1.0668                 1.2153                12.0592

                     37                     38                     39
                      A                      A                      A
 Frequencies --   1300.6755              1336.2930              1340.9646
 Red. masses --      1.2997                 1.2812                 1.1254
 Frc consts  --      1.2955                 1.3479                 1.1923
 IR Inten    --     10.5502                 8.8980                 3.6633

                     40                     41                     42
                      A                      A                      A
 Frequencies --   1359.9489              1385.7823              1411.5051
 Red. masses --      1.2799                 1.3941                 1.4081
 Frc consts  --      1.3946                 1.5774                 1.6529
 IR Inten    --      4.9501                 5.3677                17.3758

                     43                     44                     45
                      A                      A                      A
 Frequencies --   1425.6487              1436.6959              1520.6447
 Red. masses --      3.3022                 1.2147                 1.0799
 Frc consts  --      3.9544                 1.4772                 1.4713
 IR Inten    --    116.1811                59.9228                 0.7887

                     46                     47                     48
                      A                      A                      A
 Frequencies --   1528.3980              1555.3825              1661.0725
 Red. masses --      1.0834                 1.1094                 1.2129
 Frc consts  --      1.4911                 1.5812                 1.9718
 IR Inten    --     10.2586                25.9242                59.2015

                     49                     50                     51
                      A                      A                      A
 Frequencies --   1692.0610              1764.1430              2355.3476
 Red. masses --      1.1951                 4.4132                12.6533
 Frc consts  --      2.0159                 8.0922                41.3584
 IR Inten    --    112.1696               386.0402                 2.8656

                     52                     53                     54
                      A                      A                      A
 Frequencies --   3001.6004              3033.0116              3034.8654
 Red. masses --      1.0638                 1.0715                 1.0876
 Frc consts  --      5.6472                 5.8074                 5.9023
 IR Inten    --     48.6207                23.6327                10.8979

                     55                     56                     57
                      A                      A                      A
 Frequencies --   3048.5089              3084.6286              3100.9501
 Red. masses --      1.0728                 1.0841                 1.0989
 Frc consts  --      5.8744                 6.0777                 6.2259
 IR Inten    --     56.6901                 7.2469                17.6421

                     58                     59                     60
                      A                      A                      A
 Frequencies --   3111.3573              3523.1580              3562.1650
 Red. masses --      1.0945                 1.0492                 1.0480
 Frc consts  --      6.2429                 7.6730                 7.8352
 IR Inten    --     36.8973                 8.8646                56.8724

                     61                     62                     63
                      A                      A                      A
 Frequencies --   3631.2329              3655.7471              3726.5930
 Red. masses --      1.0952                 1.0991                 1.0662
 Frc consts  --      8.5082                 8.6543                 8.7236
 IR Inten    --     12.9302                70.6422                22.0565

 - Thermochemistry -
 -------------------
 Temperature   298.150 Kelvin.  Pressure   1.00000 Atm.
 Atom     1 has atomic number  6 and mass  12.00000

 Molecular mass:   156.10111 amu.
 Principal axes and moments of inertia in atomic units:
                           1         2         3
     Eigenvalues --   824.525733282.585963889.41085
           X            0.99983  -0.01813   0.00368
           Y            0.01815   0.99982  -0.00525
           Z           -0.00358   0.00532   0.99998
 This molecule is an asymmetric top.
 Rotational symmetry number  1.
 Warning -- assumption of classical behavior for rotation
           may cause significant error
 Rotational temperatures (Kelvin)      0.10505     0.02639     0.02227
 Rotational constants (GHZ):           2.18882     0.54979     0.46401
 Zero-point vibrational energy     510867.7 (Joules/Mol)
                                  122.10031 (Kcal/Mol)
 Warning -- explicit consideration of  19 degrees of freedom as
           vibrations may cause significant error
 Vibrational temperatures:     63.15    89.56   132.43   154.97   185.95
          (Kelvin)            221.92   334.56   407.13   428.10   472.47
                              496.94   523.97   567.55   608.41   687.68
                              748.67   809.83   851.69   877.73   926.88
                             1016.17  1069.35  1157.42  1173.22  1302.87
                             1337.27  1438.45  1511.99  1534.01  1547.52
                             1594.52  1598.26  1629.90  1734.29  1766.35
                             1834.61  1871.38  1922.63  1929.35  1956.66
                             1993.83  2030.84  2051.19  2067.09  2187.87
                             2199.02  2237.85  2389.91  2434.50  2538.21
                             3388.82  4318.63  4363.83  4366.49  4386.12
                             4438.09  4461.58  4476.55  5069.04  5125.16
                             5224.53  5259.80  5361.74

 Zero-point correction=                           0.194579 (Hartree/Particle)
 Thermal correction to Energy=                    0.206803
 Thermal correction to Enthalpy=                  0.207747
 Thermal correction to Gibbs Free Energy=         0.155906
 Sum of electronic and zero-point Energies=           -529.899592
 Sum of electronic and thermal Energies=              -529.887369
 Sum of electronic and thermal Enthalpies=            -529.886424
 Sum of electronic and thermal Free Energies=         -529.938265

                     E (Thermal)             CV                S
                      KCal/Mol        Cal/Mol-Kelvin    Cal/Mol-Kelvin
 Total                  129.771             44.768            109.107
 Electronic               0.000              0.000              0.000
 Translational            0.889              2.981             41.045
 Rotational               0.889              2.981             30.732
 Vibrational            127.993             38.807             37.329
 Vibration     1          0.595              1.980              5.075
 Vibration     2          0.597              1.972              4.385
 Vibration     3          0.602              1.955              3.616
 Vibration     4          0.606              1.943              3.310
 Vibration     5          0.612              1.924              2.957
 Vibration     6          0.620              1.898              2.619
 Vibration     7          0.653              1.791              1.859
 Vibration     8          0.682              1.705              1.516
 Vibration     9          0.691              1.678              1.431
 Vibration    10          0.712              1.619              1.268
 Vibration    11          0.724              1.585              1.187
 Vibration    12          0.738              1.546              1.104
 Vibration    13          0.761              1.482              0.983
 Vibration    14          0.785              1.421              0.882
 Vibration    15          0.834              1.299              0.716
 Vibration    16          0.875              1.205              0.609
 Vibration    17          0.919              1.112              0.518
 Vibration    18          0.949              1.049              0.464
 Vibration    19          0.969              1.011              0.433

                           ! Non-Optimized Parameters !
 Normal termination of Gaussian 16 at Tue Dec  8 20:39:32 2020.

 ----------------------------------------------------------------------
 # B3LYP/6-311++G(d,p) empiricaldispersion=gd3bj scf=xqc pop=npa geom=c
 heck
 ----------------------------------------------------------------------

 --------------------------------------
 CID_90642917_JID_1626_Energie_neutraal
 --------------------------------------
 Structure from the checkpoint file:  "JID_1626.chk"
 Charge =  0 Multiplicity = 1

 SCF Done:  E(RB3LYP) =  -530.271715562     A.U. after   14 cycles
 Normal termination of Gaussian 16 at Tue Dec  8 20:42:32 2020.

 ----------------------------------------------------------------------
 # B3LYP/6-311++G(d,p) empiricaldispersion=gd3bj scf=xqc pop=npa geom=c
 heck
 ----------------------------------------------------------------------

 ------------------------------------
 CID_90642917_JID_1626_Energie_kation
 ------------------------------------
 Structure from the checkpoint file:  "JID_1626.chk"
 Charge =  1 Multiplicity = 2

 SCF Done:  E(UB3LYP) =  -529.965445478     A.U. after   22 cycles
 Normal termination of Gaussian 16 at Tue Dec  8 20:47:53 2020.
 Gaussian 16:  ES64L-G16RevA.03 25-Dec-2016

 ----------------------------------------------------------------------
 # B3LYP/6-311++G(d,p) empiricaldispersion=gd3bj scf=xqc pop=npa geom=c
 heck
 ----------------------------------------------------------------------

 -----------------------------------
 CID_90642917_JID_1626_Energie_anion
 -----------------------------------
 Structure from the checkpoint file:  "JID_1626.chk"
 Charge = -1 Multiplicity = 2

                         Standard orientation:
 ---------------------------------------------------------------------
 Center     Atomic      Atomic             Coordinates (Angstroms)
 Number     Number       Type             X           Y           Z
 ---------------------------------------------------------------------
      1          6           0        0.346631   -1.367155   -0.394137
      2          6           0        1.833725   -1.267376    0.000866
      3          6           0        2.507050    0.033357   -0.470994
      4          6           0        1.705316    1.220160   -0.077630
      5          7           0        1.058094    2.127652    0.246246
      6          8           0        3.849447    0.161984   -0.041563
      7          6           0       -0.607508   -1.018558    0.763319
      8          7           0       -1.986184   -1.030056    0.326954
      9          6           0       -2.561636    0.074523    0.014475
     10          7           0       -2.111293    1.378282    0.187866
     11          7           0       -3.833934    0.030202   -0.572048
     12          1           0        0.110203   -2.377168   -0.742789
     13          1           0        0.133972   -0.700010   -1.240514
     14          1           0        1.938014   -1.334811    1.093302
     15          1           0        2.425861   -2.084556   -0.423048
     16          1           0        2.552216    0.032859   -1.565503
     17          1           0        3.858110    0.097643    0.927700
     18          1           0       -0.488492   -1.784981    1.541754
     19          1           0       -0.286500   -0.074096    1.230483
     20          1           0       -2.455085    2.031489   -0.504656
     21          1           0       -1.125398    1.514991    0.374494
     22          1           0       -4.203539   -0.912748   -0.521271
     23          1           0       -4.483189    0.703256   -0.175968
 ---------------------------------------------------------------------

 SCF Done:  E(UB3LYP) =  -530.261642983     A.U. after   33 cycles
 SCF Done:  E(UB3LYP) =  -530.261642983     a.u. after    1 cycles

 The electronic state is 2-A.
 Alpha  occ. eigenvalues --  -19.03380 -14.21797 -14.21550 -14.21456 -14.16917
 Alpha  occ. eigenvalues --  -10.16489 -10.16331 -10.11272 -10.08815 -10.08133
 Alpha  occ. eigenvalues --  -10.07228  -0.94203  -0.87339  -0.81291  -0.76838
 Alpha  occ. eigenvalues --   -0.76626  -0.70407  -0.63262  -0.56761  -0.51008
 Alpha  occ. eigenvalues --   -0.48125  -0.46294  -0.42758  -0.42472  -0.39154
 Alpha  occ. eigenvalues --   -0.37042  -0.36510  -0.34855  -0.32474  -0.31339
 Alpha  occ. eigenvalues --   -0.30266  -0.28391  -0.27738  -0.26346  -0.25398
 Alpha  occ. eigenvalues --   -0.24622  -0.24287  -0.22674  -0.19604  -0.17438
 Alpha  occ. eigenvalues --   -0.15026  -0.12725   0.04456
 Alpha virt. eigenvalues --    0.05804   0.07588   0.08254   0.09174   0.09943
 Alpha virt. eigenvalues --    0.10810   0.11066   0.11701   0.12435   0.12810
 Alpha virt. eigenvalues --    0.13377   0.13562   0.14470   0.14987   0.16292

  Beta  occ. eigenvalues --  -19.03290 -14.21769 -14.21457 -14.21415 -14.16910
  Beta  occ. eigenvalues --  -10.16465 -10.16329 -10.11257 -10.08808 -10.08093
  Beta  occ. eigenvalues --  -10.07219  -0.94008  -0.87309  -0.81151  -0.76786
  Beta  occ. eigenvalues --   -0.76586  -0.70321  -0.63168  -0.56661  -0.50935
  Beta  occ. eigenvalues --   -0.48081  -0.46147  -0.42716  -0.42410  -0.39035
  Beta  occ. eigenvalues --   -0.36977  -0.36456  -0.34814  -0.32411  -0.31287
  Beta  occ. eigenvalues --   -0.30215  -0.28237  -0.27674  -0.26261  -0.25281
  Beta  occ. eigenvalues --   -0.24544  -0.24069  -0.22598  -0.19492  -0.17398
  Beta  occ. eigenvalues --   -0.15000  -0.12707
  Beta virt. eigenvalues --    0.06919   0.07466   0.08545   0.08638   0.09630
  Beta virt. eigenvalues --    0.10401   0.11087   0.11573   0.11950   0.12862
  Beta virt. eigenvalues --    0.13060   0.13418   0.13602   0.14628   0.15235

 Mulliken charges and spin densities:
               1          2
     1  C   -0.421880   0.415890
     2  C   -0.605684   0.331015
     3  C    0.974916  -1.197877
     4  C    0.517463  -0.449848
     5  N   -0.402656   0.105918
     6  O   -0.178792   0.010716
     7  C    0.538684  -1.180711
     8  N   -0.127878   0.002705
     9  C    0.437277  -0.509428
    10  N   -0.377849  -0.008786
    11  N   -0.409773   0.112527
    12  H    0.103478   0.053328
    13  H    0.105658   0.052169
    14  H   -0.177176   0.347208
    15  H   -0.503343   0.684605
    16  H   -0.167489   0.388844
    17  H   -0.381661   0.651641
    18  H    0.018523   0.154174
    19  H   -0.013716   0.105950
    20  H   -0.028380   0.273042
    21  H    0.312650  -0.043019
    22  H    0.107600   0.137379
    23  H   -0.319973   0.562560
 Sum of Mulliken charges =  -1.00000   1.00000

 Dipole moment (field-independent basis, Debye):
    X=             -2.1821    Y=             -1.2516    Z=             -1.5999  Tot=              2.9812
 Quadrupole moment (field-independent basis, Debye-Ang):
   XX=           -151.9766   YY=            -98.6620   ZZ=            -91.1611
   XY=              4.5262   XZ=             -6.1998   YZ=             -0.6537

 Summary of Natural Population Analysis:

                                       Natural Population
                Natural  -----------------------------------------------
    Atom  No    Charge         Core      Valence    Rydberg      Total
 -----------------------------------------------------------------------
      C    1   -0.19636      0.99962     2.18794    0.00880     3.19636
      C    2   -0.19672      0.99961     2.18685    0.01026     3.19672
      C    3    0.02046      0.99948     1.96506    0.01501     2.97954
      C    4    0.15777      0.99963     1.82343    0.01917     2.84223
      N    5   -0.18865      0.99978     2.67689    0.01198     3.68865
      O    6   -0.35381      0.99990     3.34698    0.00693     4.35381
      C    7   -0.09424      0.99960     2.08390    0.01074     3.09424
      N    8   -0.30950      0.99964     2.79889    0.01097     3.80950
      C    9    0.30256      0.99963     1.68145    0.01636     2.69744
      N   10   -0.42051      0.99970     2.91166    0.00915     3.92051
      N   11   -0.41227      0.99972     2.90216    0.01038     3.91227
      H   12    0.10188      0.00000     0.39692    0.00120     0.39812
      H   13    0.09561      0.00000     0.40289    0.00150     0.40439
      H   14    0.10115      0.00000     0.39635    0.00250     0.39885
      H   15    0.10680      0.00000     0.39176    0.00143     0.39320
      H   16    0.10666      0.00000     0.39125    0.00210     0.39334
      H   17    0.23853      0.00000     0.24244    0.01902     0.26147
      H   18    0.09044      0.00000     0.40786    0.00169     0.40956
      H   19    0.08251      0.00000     0.41522    0.00227     0.41749
      H   20    0.19023      0.00000     0.30778    0.00199     0.30977
      H   21    0.20260      0.00000     0.29522    0.00218     0.29740
      H   22    0.18960      0.00000     0.30792    0.00247     0.31040
      H   23    0.18527      0.00000     0.31066    0.00407     0.31473
 =======================================================================
   * Total *    0.00000     10.99630    30.83152    0.17218    42.00000

 Normal termination of Gaussian 16 at Tue Dec  8 20:55:35 2020.
