 Gaussian 16, Revision A.03,

 -----------------------------------------------------------
 # opt freq B3LYP/6-31G(d) empiricaldispersion=gd3bj scf=xqc
 -----------------------------------------------------------

 ------------------------------
 CID_134928282_JID_757_neutraal
 ------------------------------
 Symbolic Z-matrix:
 Charge =  0 Multiplicity = 1

 SCF Done:  E(RB3LYP) =  -499.562127167     A.U. after   14 cycles
 SCF Done:  E(RB3LYP) =  -499.565006467     A.U. after   12 cycles
 SCF Done:  E(RB3LYP) =  -499.565390366     A.U. after   12 cycles
 SCF Done:  E(RB3LYP) =  -499.565535260     A.U. after   11 cycles
 SCF Done:  E(RB3LYP) =  -499.565586594     A.U. after   11 cycles
 SCF Done:  E(RB3LYP) =  -499.565648341     A.U. after   11 cycles
 SCF Done:  E(RB3LYP) =  -499.565656315     A.U. after   10 cycles
 SCF Done:  E(RB3LYP) =  -499.565657551     A.U. after    8 cycles
 SCF Done:  E(RB3LYP) =  -499.565658836     A.U. after    9 cycles
 SCF Done:  E(RB3LYP) =  -499.565659173     A.U. after    8 cycles
 SCF Done:  E(RB3LYP) =  -499.565659428     A.U. after    8 cycles
 SCF Done:  E(RB3LYP) =  -499.565659540     A.U. after    7 cycles
 Optimization completed.
    -- Stationary point found.

 1\1\GINC-NODE124\FOpt\RB3LYP\6-31G(d)\C7H12O3\VSC10255\08-Dec-2020\0\\
 # opt freq B3LYP/6-31G(d) empiricaldispersion=gd3bj scf=xqc\\CID_13492
 8282_JID_757_neutraal\\0,1\C,0.9169050755,0.0052727689,0.0389662043\C,
 0.8965612092,-0.3061046242,-1.4607910109\C,-0.2475137334,-1.2391424395
 ,-1.8213464519\C,-0.3728515559,-2.5226475178,-1.5080572009\C,-1.239905
 2976,-0.398359991,-2.5978461145\O,-0.877580612,0.932418844,-2.24170862
 62\O,0.5878021218,0.8993166259,-2.2038523964\C,-2.7075156601,-0.551259
 875,-2.2198763019\O,-1.0129281976,-0.6504609232,-3.969834914\C,2.24905

 Normal termination of Gaussian 16 at Tue Dec  8 13:08:22 2020.

 --------------------------------------------------------------------
 #N Geom=AllCheck Guess=TCheck SCRF=Check GenChk RB3LYP/6-31G(d) Freq
 --------------------------------------------------------------------

 Structure from the checkpoint file:  "JID_757.chk"
 ------------------------------
 CID_134928282_JID_757_neutraal
 ------------------------------
 Charge =  0 Multiplicity = 1

 SCF Done:  E(RB3LYP) =  -499.565659540     A.U. after    1 cycles

  Exact polarizability:  93.099   0.211  84.412   1.264   0.330  66.316
 Approx polarizability: 120.878   0.760 134.617   2.592   2.136  94.111

                      1                      2                      3
                      A                      A                      A
 Frequencies --     39.8518               168.9155               192.1478
 Red. masses --      3.4550                 3.2481                 2.8693
 Frc consts  --      0.0032                 0.0546                 0.0624
 IR Inten    --      0.8577                 5.2567                 0.8615

                      4                      5                      6
                      A                      A                      A
 Frequencies --    226.5635               234.8175               242.4195
 Red. masses --      1.0575                 1.0642                 1.7384
 Frc consts  --      0.0320                 0.0346                 0.0602
 IR Inten    --      0.1218                 1.5973                 8.0586

                      7                      8                      9
                      A                      A                      A
 Frequencies --    260.4199               268.0416               282.7842
 Red. masses --      1.3256                 1.4018                 2.2210
 Frc consts  --      0.0530                 0.0593                 0.1046
 IR Inten    --     16.3700                65.2892                 4.5907

                     10                     11                     12
                      A                      A                      A
 Frequencies --    297.0520               345.5076               380.3854
 Red. masses --      2.4970                 2.9804                 2.9746
 Frc consts  --      0.1298                 0.2096                 0.2536
 IR Inten    --     12.4103                 0.8873                 1.7683

                     13                     14                     15
                      A                      A                      A
 Frequencies --    409.7390               489.5311               545.2098
 Red. masses --      4.0560                 3.3588                 3.7984
 Frc consts  --      0.4012                 0.4742                 0.6652
 IR Inten    --     10.8294                10.6039                19.8802

                     16                     17                     18
                      A                      A                      A
 Frequencies --    578.2962               663.2342               699.0506
 Red. masses --      3.8930                 5.2928                 3.6708
 Frc consts  --      0.7671                 1.3717                 1.0569
 IR Inten    --      1.3330                16.3952                 4.5493

                     19                     20                     21
                      A                      A                      A
 Frequencies --    705.3466               732.9695               818.8682
 Red. masses --      3.9642                 1.2366                 3.2305
 Frc consts  --      1.1620                 0.3914                 1.2763
 IR Inten    --      0.5387                 1.1779                 0.6083

                     22                     23                     24
                      A                      A                      A
 Frequencies --    877.4130               902.4239               912.3510
 Red. masses --      2.8498                 5.1946                 3.1298
 Frc consts  --      1.2926                 2.4924                 1.5349
 IR Inten    --     13.4262                 6.3983                12.1543

                     25                     26                     27
                      A                      A                      A
 Frequencies --    930.0439               950.4029               964.5143
 Red. masses --      1.3924                 1.5051                 1.9111
 Frc consts  --      0.7096                 0.8010                 1.0475
 IR Inten    --     30.5069                 0.3838                46.4713

                     28                     29                     30
                      A                      A                      A
 Frequencies --    970.4211              1037.1413              1120.5402
 Red. masses --      1.9112                 1.3154                 1.5825
 Frc consts  --      1.0604                 0.8337                 1.1707
 IR Inten    --      3.6753                 0.9150                51.7447

                     31                     32                     33
                      A                      A                      A
 Frequencies --   1138.2780              1183.1135              1206.1583
 Red. masses --      2.1612                 3.1950                 2.2808
 Frc consts  --      1.6498                 2.6349                 1.9550
 IR Inten    --     42.5344               105.0143                19.0869

                     34                     35                     36
                      A                      A                      A
 Frequencies --   1232.1540              1240.8336              1316.7983
 Red. masses --      3.6509                 2.8462                 2.8639
 Frc consts  --      3.2658                 2.5819                 2.9258
 IR Inten    --     52.8857                10.0205                23.2743

                     37                     38                     39
                      A                      A                      A
 Frequencies --   1399.8021              1421.0024              1433.0577
 Red. masses --      1.9187                 1.2626                 1.3233
 Frc consts  --      2.2151                 1.5021                 1.6011
 IR Inten    --     33.0953                 8.0396                16.2849

                     40                     41                     42
                      A                      A                      A
 Frequencies --   1436.8875              1474.1775              1505.8680
 Red. masses --      1.2481                 1.1649                 1.0501
 Frc consts  --      1.5183                 1.4915                 1.4030
 IR Inten    --      2.7143                16.5348                 1.2206

                     43                     44                     45
                      A                      A                      A
 Frequencies --   1513.3248              1516.8676              1519.5123
 Red. masses --      1.0479                 1.0490                 1.0842
 Frc consts  --      1.4140                 1.4220                 1.4750
 IR Inten    --      0.6381                 4.3245                 3.1645

                     46                     47                     48
                      A                      A                      A
 Frequencies --   1523.4489              1534.1360              1767.5686
 Red. masses --      1.0624                 1.0522                 6.4250
 Frc consts  --      1.4528                 1.4590                11.8271
 IR Inten    --      1.5764                 8.2561                 3.4068

                     49                     50                     51
                      A                      A                      A
 Frequencies --   3057.7656              3064.3397              3067.4991
 Red. masses --      1.0346                 1.0351                 1.0366
 Frc consts  --      5.6992                 5.7266                 5.7471
 IR Inten    --     12.7051                21.4841                11.6489

                     52                     53                     54
                      A                      A                      A
 Frequencies --   3127.4240              3133.9281              3139.2412
 Red. masses --      1.1033                 1.1025                 1.1002
 Frc consts  --      6.3579                 6.3797                 6.3883
 IR Inten    --      1.1679                34.4209                17.3834

                     55                     56                     57
                      A                      A                      A
 Frequencies --   3144.5296              3156.4194              3160.5653
 Red. masses --      1.1028                 1.1031                 1.1038
 Frc consts  --      6.4245                 6.4749                 6.4965
 IR Inten    --     16.5827                12.3417                13.1356

                     58                     59                     60
                      A                      A                      A
 Frequencies --   3166.4162              3242.7341              3714.1855
 Red. masses --      1.0610                 1.1160                 1.0651
 Frc consts  --      6.2674                 6.9141                 8.6569
 IR Inten    --      6.2534                 9.5747                20.2436

 - Thermochemistry -
 -------------------
 Temperature   298.150 Kelvin.  Pressure   1.00000 Atm.
 Atom     1 has atomic number  6 and mass  12.00000

 Molecular mass:   144.07864 amu.
 Principal axes and moments of inertia in atomic units:
                           1         2         3
     Eigenvalues --   900.046681519.341791663.88729
           X            0.99982   0.00229   0.01904
           Y           -0.00150   0.99914  -0.04154
           Z           -0.01912   0.04150   0.99896
 This molecule is an asymmetric top.
 Rotational symmetry number  1.
 Warning -- assumption of classical behavior for rotation
           may cause significant error
 Rotational temperatures (Kelvin)      0.09623     0.05701     0.05206
 Rotational constants (GHZ):           2.00516     1.18784     1.08465
 Zero-point vibrational energy     483198.3 (Joules/Mol)
                                  115.48716 (Kcal/Mol)
 Warning -- explicit consideration of  16 degrees of freedom as
           vibrations may cause significant error
 Vibrational temperatures:     57.34   243.03   276.46   325.97   337.85
          (Kelvin)            348.79   374.69   385.65   406.86   427.39
                              497.11   547.29   589.52   704.33   784.44
                              832.04   954.25  1005.78  1014.84  1054.58
                             1178.17  1262.40  1298.39  1312.67  1338.13
                             1367.42  1387.72  1396.22  1492.22  1612.21
                             1637.73  1702.24  1735.39  1772.79  1785.28
                             1894.58  2014.00  2044.51  2061.85  2067.36
                             2121.01  2166.61  2177.34  2182.43  2186.24
                             2191.90  2207.28  2543.14  4399.44  4408.90
                             4413.45  4499.67  4509.02  4516.67  4524.28
                             4541.38  4547.35  4555.77  4665.57  5343.88

 Zero-point correction=                           0.184040 (Hartree/Particle)
 Thermal correction to Energy=                    0.194908
 Thermal correction to Enthalpy=                  0.195852
 Thermal correction to Gibbs Free Energy=         0.148631
 Sum of electronic and zero-point Energies=           -499.381619
 Sum of electronic and thermal Energies=              -499.370752
 Sum of electronic and thermal Enthalpies=            -499.369808
 Sum of electronic and thermal Free Energies=         -499.417029

                     E (Thermal)             CV                S
                      KCal/Mol        Cal/Mol-Kelvin    Cal/Mol-Kelvin
 Total                  122.307             41.817             99.385
 Electronic               0.000              0.000              0.000
 Translational            0.889              2.981             40.807
 Rotational               0.889              2.981             29.210
 Vibrational            120.529             35.855             29.368
 Vibration     1          0.594              1.981              5.266
 Vibration     2          0.625              1.881              2.448
 Vibration     3          0.634              1.851              2.207
 Vibration     4          0.650              1.801              1.906
 Vibration     5          0.655              1.788              1.842
 Vibration     6          0.659              1.775              1.785
 Vibration     7          0.668              1.745              1.659
 Vibration     8          0.673              1.732              1.609
 Vibration     9          0.682              1.706              1.517
 Vibration    10          0.691              1.679              1.433
 Vibration    11          0.724              1.584              1.187
 Vibration    12          0.750              1.512              1.038
 Vibration    13          0.774              1.449              0.928
 Vibration    14          0.845              1.273              0.685
 Vibration    15          0.900              1.150              0.554
 Vibration    16          0.935              1.078              0.489

 Optimization completed.
    -- Stationary point found.

 1\1\GINC-NODE124\Freq\RB3LYP\6-31G(d)\C7H12O3\VSC10255\08-Dec-2020\0\\
 #N Geom=AllCheck Guess=TCheck SCRF=Check GenChk RB3LYP/6-31G(d) Freq\\
 CID_134928282_JID_757_neutraal\\0,1\C,0.9169050755,0.0052727689,0.0389
 662043\C,0.8965612092,-0.3061046242,-1.4607910109\C,-0.2475137334,-1.2
 391424395,-1.8213464519\C,-0.3728515559,-2.5226475178,-1.5080572009\C,
 -1.2399052976,-0.398359991,-2.5978461145\O,-0.877580612,0.932418844,-2
 .2417086262\O,0.5878021218,0.8993166259,-2.2038523964\C,-2.7075156601,
 -0.551259875,-2.2198763019\O,-1.0129281976,-0.6504609232,-3.969834914\

 Normal termination of Gaussian 16 at Tue Dec  8 13:23:30 2020.

 ----------------------------------------------------------------------
 # B3LYP/6-311++G(d,p) empiricaldispersion=gd3bj scf=xqc pop=npa geom=c
 heck
 ----------------------------------------------------------------------

 --------------------------------------
 CID_134928282_JID_757_Energie_neutraal
 --------------------------------------
 Structure from the checkpoint file:  "JID_757.chk"
 Charge =  0 Multiplicity = 1

 SCF Done:  E(RB3LYP) =  -499.718964691     A.U. after   14 cycles
 Normal termination of Gaussian 16 at Tue Dec  8 13:26:51 2020.

 ----------------------------------------------------------------------
 # B3LYP/6-311++G(d,p) empiricaldispersion=gd3bj scf=xqc pop=npa geom=c
 heck
 ----------------------------------------------------------------------

 ------------------------------------
 CID_134928282_JID_757_Energie_kation
 ------------------------------------
 Structure from the checkpoint file:  "JID_757.chk"
 Charge =  1 Multiplicity = 2

 SCF Done:  E(UB3LYP) =  -499.382788339     A.U. after   23 cycles
 Normal termination of Gaussian 16 at Tue Dec  8 13:35:50 2020.
 Gaussian 16:  ES64L-G16RevA.03 25-Dec-2016

 -----------------------------------
 CID_134928282_JID_757_Energie_anion
 -----------------------------------
 Structure from the checkpoint file:  "JID_757.chk"
 Charge = -1 Multiplicity = 2

                         Standard orientation:
 ---------------------------------------------------------------------
 Center     Atomic      Atomic             Coordinates (Angstroms)
 Number     Number       Type             X           Y           Z
 ---------------------------------------------------------------------
      1          6           0        1.897244    0.019510   -1.397706
      2          6           0        1.208801   -0.109415   -0.035331
      3          6           0       -0.003147    0.801868    0.065726
      4          6           0       -0.014083    2.127083    0.135949
      5          6           0       -1.211792   -0.111092    0.046028
      6          8           0       -0.691732   -1.316472   -0.506857
      7          8           0        0.638584   -1.435139    0.098165
      8          6           0       -2.366062    0.303495   -0.857244
      9          8           0       -1.620337   -0.287195    1.387484
     10          6           0        2.174973    0.037975    1.137469
     11          1           0        2.282523    1.034722   -1.540823
     12          1           0        1.184098   -0.197238   -2.197779
     13          1           0        2.729432   -0.688462   -1.467664
     14          1           0       -0.942633    2.687567    0.189512
     15          1           0        0.905448    2.706184    0.154389
     16          1           0       -3.132267   -0.479262   -0.867899
     17          1           0       -2.815559    1.220734   -0.468174
     18          1           0       -2.021635    0.474020   -1.879860
     19          1           0       -2.162361   -1.094440    1.405755
     20          1           0        2.958448   -0.724990    1.083354
     21          1           0        2.651740    1.023010    1.108233
     22          1           0        1.635049   -0.067957    2.081272
 ---------------------------------------------------------------------

 SCF Done:  E(UB3LYP) =  -499.701895966     A.U. after   33 cycles
 SCF Done:  E(UB3LYP) =  -499.701895966     a.u. after    1 cycles

 The electronic state is 2-A.
 Alpha  occ. eigenvalues --  -19.07504 -19.06796 -19.02177 -10.17778 -10.13553
 Alpha  occ. eigenvalues --  -10.08057 -10.06374 -10.06360 -10.06071 -10.05736
 Alpha  occ. eigenvalues --   -1.03045  -0.92820  -0.81957  -0.71947  -0.64239
 Alpha  occ. eigenvalues --   -0.62470  -0.59425  -0.55588  -0.48668  -0.45691
 Alpha  occ. eigenvalues --   -0.40885  -0.38259  -0.37830  -0.35193  -0.34076
 Alpha  occ. eigenvalues --   -0.32521  -0.32194  -0.30194  -0.29572  -0.28871
 Alpha  occ. eigenvalues --   -0.28461  -0.27035  -0.25890  -0.25402  -0.23529
 Alpha  occ. eigenvalues --   -0.21044  -0.18736  -0.16775  -0.14868   0.04963
 Alpha virt. eigenvalues --    0.06928   0.08245   0.08858   0.08988   0.09696
 Alpha virt. eigenvalues --    0.10202   0.10990   0.11533   0.12164   0.13080
 Alpha virt. eigenvalues --    0.13224   0.13924   0.14593   0.16091   0.16641

  Beta  occ. eigenvalues --  -19.07494 -19.06784 -19.02141 -10.17775 -10.13553
  Beta  occ. eigenvalues --  -10.08041 -10.06330 -10.06328 -10.06019 -10.05704
  Beta  occ. eigenvalues --   -1.03025  -0.92749  -0.81934  -0.71908  -0.64195
  Beta  occ. eigenvalues --   -0.62401  -0.59368  -0.55510  -0.48604  -0.45627
  Beta  occ. eigenvalues --   -0.40825  -0.38207  -0.37765  -0.35134  -0.34048
  Beta  occ. eigenvalues --   -0.32471  -0.32147  -0.30156  -0.29533  -0.28823
  Beta  occ. eigenvalues --   -0.28411  -0.26989  -0.25853  -0.25361  -0.23495
  Beta  occ. eigenvalues --   -0.21005  -0.18686  -0.16699  -0.14830
  Beta virt. eigenvalues --    0.07460   0.08041   0.09085   0.09340   0.09408
  Beta virt. eigenvalues --    0.10578   0.10977   0.11561   0.11679   0.12758
  Beta virt. eigenvalues --    0.13555   0.13892   0.14351   0.15080   0.16204

 Mulliken charges and spin densities:
               1          2
     1  C    0.444401  -0.941126
     2  C   -1.119018   1.453300
     3  C   -1.667606   2.124321
     4  C    2.002181  -2.655274
     5  C   -0.241484  -0.327452
     6  O   -0.054072   0.027236
     7  O   -0.053389   0.049394
     8  C    1.719102  -2.102852
     9  O   -0.252005   0.136394
    10  C    0.580165  -1.161703
    11  H   -0.393550   0.554973
    12  H   -0.035506   0.228847
    13  H   -0.011911   0.151077
    14  H   -0.116087   0.263692
    15  H   -0.302869   0.452704
    16  H   -0.327553   0.481679
    17  H   -0.335582   0.516706
    18  H   -0.471104   0.640102
    19  H   -0.092097   0.353667
    20  H   -0.020678   0.171183
    21  H   -0.167673   0.314482
    22  H   -0.083664   0.268650
 Sum of Mulliken charges =  -1.00000   1.00000

 Dipole moment (field-independent basis, Debye):
    X=              1.7554    Y=             -2.1317    Z=              0.9983  Tot=              2.9363
 Quadrupole moment (field-independent basis, Debye-Ang):
   XX=           -111.8261   YY=            -99.2309   ZZ=            -94.3657
   XY=             -4.5681   XZ=             -0.0182   YZ=              3.6459

 Summary of Natural Population Analysis:

                                       Natural Population
                Natural  -----------------------------------------------
    Atom  No    Charge         Core      Valence    Rydberg      Total
 -----------------------------------------------------------------------
      C    1   -0.28949      0.99961     2.28259    0.00729     3.28949
      C    2    0.11352      0.99951     1.87077    0.01621     2.88648
      C    3   -0.01805      0.99943     2.00297    0.01565     3.01805
      C    4   -0.17452      0.99948     2.16649    0.00855     3.17452
      C    5    0.26366      0.99951     1.71625    0.02058     2.73634
      O    6   -0.16439      0.99988     3.15731    0.00720     4.16439
      O    7   -0.16314      0.99988     3.15567    0.00759     4.16314
      C    8   -0.29704      0.99960     2.29024    0.00721     3.29704
      O    9   -0.36885      0.99988     3.36160    0.00737     4.36885
      C   10   -0.28755      0.99960     2.28081    0.00713     3.28755
      H   11    0.10445      0.00000     0.39394    0.00161     0.39555
      H   12    0.10732      0.00000     0.39129    0.00139     0.39268
      H   13    0.09966      0.00000     0.39930    0.00104     0.40034
      H   14    0.10096      0.00000     0.39772    0.00132     0.39904
      H   15    0.09900      0.00000     0.39910    0.00190     0.40100
      H   16    0.10583      0.00000     0.39213    0.00204     0.39417
      H   17    0.10875      0.00000     0.38941    0.00185     0.39125
      H   18    0.10902      0.00000     0.38918    0.00181     0.39098
      H   19    0.23373      0.00000     0.26154    0.00472     0.26627
      H   20    0.10204      0.00000     0.39696    0.00099     0.39796
      H   21    0.10536      0.00000     0.39339    0.00125     0.39464
      H   22    0.10974      0.00000     0.38916    0.00110     0.39026
 =======================================================================
   * Total *    0.00000      9.99637    28.87781    0.12582    39.00000

 Normal termination of Gaussian 16 at Tue Dec  8 13:43:25 2020.
