 Gaussian 16, Revision A.03,

 -----------------------------------------------------------
 # opt freq B3LYP/6-31G(d) empiricaldispersion=gd3bj scf=xqc
 -----------------------------------------------------------

 -------------------------------
 CID_112507434_JID_8039_neutraal
 -------------------------------
 Symbolic Z-matrix:
 Charge =  0 Multiplicity = 1

 SCF Done:  E(RB3LYP) =  -1238.53584815     A.U. after   15 cycles
 SCF Done:  E(RB3LYP) =  -1238.54965409     A.U. after   13 cycles
 SCF Done:  E(RB3LYP) =  -1238.55171675     A.U. after   12 cycles
 SCF Done:  E(RB3LYP) =  -1238.55209021     A.U. after   12 cycles
 SCF Done:  E(RB3LYP) =  -1238.55245832     A.U. after   12 cycles
 SCF Done:  E(RB3LYP) =  -1238.55278139     A.U. after   12 cycles
 SCF Done:  E(RB3LYP) =  -1238.55300551     A.U. after   12 cycles
 SCF Done:  E(RB3LYP) =  -1238.55306612     A.U. after   11 cycles
 SCF Done:  E(RB3LYP) =  -1238.55309531     A.U. after   11 cycles
 SCF Done:  E(RB3LYP) =  -1238.55310367     A.U. after    9 cycles
 SCF Done:  E(RB3LYP) =  -1238.55311131     A.U. after    9 cycles
 SCF Done:  E(RB3LYP) =  -1238.55311313     A.U. after    9 cycles
 SCF Done:  E(RB3LYP) =  -1238.55311400     A.U. after    9 cycles
 SCF Done:  E(RB3LYP) =  -1238.55311425     A.U. after    7 cycles
 SCF Done:  E(RB3LYP) =  -1238.55311426     A.U. after    6 cycles
 Optimization completed.
    -- Stationary point found.
 Normal termination of Gaussian 16 at Fri Dec 11 18:48:04 2020.

 --------------------------------------------------------------------
 #N Geom=AllCheck Guess=TCheck SCRF=Check GenChk RB3LYP/6-31G(d) Freq
 --------------------------------------------------------------------

 Structure from the checkpoint file:  "JID_8039.chk"
 -------------------------------
 CID_112507434_JID_8039_neutraal
 -------------------------------
 Charge =  0 Multiplicity = 1

 SCF Done:  E(RB3LYP) =  -1238.55311426     A.U. after    1 cycles

  Exact polarizability: 167.918   9.107 150.235  10.120  -3.768 127.880
 Approx polarizability: 230.846   9.431 243.171  21.219 -11.503 203.656

                      1                      2                      3
                      A                      A                      A
 Frequencies --     28.1704                39.3018                56.2298
 Red. masses --      3.9574                 4.2354                 3.4255
 Frc consts  --      0.0019                 0.0039                 0.0064
 IR Inten    --      0.0810                 0.1589                 0.1191

                      4                      5                      6
                      A                      A                      A
 Frequencies --     63.1284                98.0035               135.8160
 Red. masses --      1.1930                 3.3767                 2.0281
 Frc consts  --      0.0028                 0.0191                 0.0220
 IR Inten    --      0.3588                 1.7584                 4.0891

                      7                      8                      9
                      A                      A                      A
 Frequencies --    156.7091               160.6064               172.1781
 Red. masses --      4.2878                 1.3139                 3.1172
 Frc consts  --      0.0620                 0.0200                 0.0544
 IR Inten    --      3.5362                 1.0830                 1.2412

                     10                     11                     12
                      A                      A                      A
 Frequencies --    201.2270               224.1360               231.0103
 Red. masses --      2.3837                 2.9157                 1.5716
 Frc consts  --      0.0569                 0.0863                 0.0494
 IR Inten    --      0.9469                 3.2869                 1.5049

                     13                     14                     15
                      A                      A                      A
 Frequencies --    243.7975               252.7299               265.9514
 Red. masses --      2.9273                 2.1919                 3.1352
 Frc consts  --      0.1025                 0.0825                 0.1307
 IR Inten    --      8.0066                 1.7489                 3.3175

                     16                     17                     18
                      A                      A                      A
 Frequencies --    293.8778               310.0115               332.9350
 Red. masses --      2.1414                 3.5643                 2.6496
 Frc consts  --      0.1090                 0.2018                 0.1730
 IR Inten    --      1.5449                 1.7811                 0.4083

                     19                     20                     21
                      A                      A                      A
 Frequencies --    344.7889               350.6291               373.7830
 Red. masses --      4.0693                 4.1342                 4.2586
 Frc consts  --      0.2850                 0.2995                 0.3506
 IR Inten    --      0.1753                 0.8497                 0.2034

                     22                     23                     24
                      A                      A                      A
 Frequencies --    383.3432               426.3582               470.3507
 Red. masses --      2.7917                 2.2662                 2.7393
 Frc consts  --      0.2417                 0.2427                 0.3571
 IR Inten    --      0.3975                 7.0578                 4.9745

                     25                     26                     27
                      A                      A                      A
 Frequencies --    477.8376               499.8701               512.8855
 Red. masses --      3.6329                 3.2108                 5.4612
 Frc consts  --      0.4887                 0.4727                 0.8464
 IR Inten    --     22.3280                 5.0275                13.2080

                     28                     29                     30
                      A                      A                      A
 Frequencies --    540.0175               578.4072               608.2950
 Red. masses --      5.8623                 5.2478                 4.5820
 Frc consts  --      1.0072                 1.0344                 0.9989
 IR Inten    --      9.5064                50.3307                 7.4926

                     31                     32                     33
                      A                      A                      A
 Frequencies --    635.6549               648.1181               668.0089
 Red. masses --      7.1944                 4.2675                 4.2755
 Frc consts  --      1.7127                 1.0562                 1.1241
 IR Inten    --      0.5590                26.9587                99.3566

                     34                     35                     36
                      A                      A                      A
 Frequencies --    692.5737               768.0124               811.3853
 Red. masses --      5.3079                 5.7916                 2.9631
 Frc consts  --      1.5001                 2.0127                 1.1493
 IR Inten    --     32.6685                 6.5502                82.4407

                     37                     38                     39
                      A                      A                      A
 Frequencies --    875.5320               901.6220               916.0416
 Red. masses --      2.5227                 8.2471                 2.1606
 Frc consts  --      1.1394                 3.9500                 1.0682
 IR Inten    --     17.4066                10.0179                19.1674

                     40                     41                     42
                      A                      A                      A
 Frequencies --    936.3766               948.4181               964.3022
 Red. masses --      2.3001                 2.7072                 1.4327
 Frc consts  --      1.1882                 1.4347                 0.7849
 IR Inten    --     12.1989               107.4852                 3.7161

                     43                     44                     45
                      A                      A                      A
 Frequencies --   1004.9458              1018.6632              1047.5263
 Red. masses --      1.8997                 1.8044                 1.7037
 Frc consts  --      1.1304                 1.1032                 1.1015
 IR Inten    --      4.2894                13.3421                 0.9253

                     46                     47                     48
                      A                      A                      A
 Frequencies --   1052.3442              1072.1691              1074.5698
 Red. masses --      1.7704                 3.0681                 1.6502
 Frc consts  --      1.1551                 2.0780                 1.1227
 IR Inten    --      1.9228                 0.6667                 4.2205

                     49                     50                     51
                      A                      A                      A
 Frequencies --   1080.1557              1082.0453              1106.0873
 Red. masses --      1.7363                 1.6251                 6.1501
 Frc consts  --      1.1935                 1.1210                 4.4332
 IR Inten    --     15.1511                 9.3198               111.5286

                     52                     53                     54
                      A                      A                      A
 Frequencies --   1118.1443              1135.7620              1171.1004
 Red. masses --      4.1030                 2.0721                 5.9655
 Frc consts  --      3.0224                 1.5748                 4.8205
 IR Inten    --     32.3942                16.9758                78.3447

                     55                     56                     57
                      A                      A                      A
 Frequencies --   1187.9264              1220.0273              1236.2253
 Red. masses --      8.7910                 2.0946                 3.2187
 Frc consts  --      7.3092                 1.8369                 2.8982
 IR Inten    --     23.9803                22.7044                12.3356

                     58                     59                     60
                      A                      A                      A
 Frequencies --   1268.2152              1293.8716              1309.8623
 Red. masses --      2.1086                 1.3609                 7.8077
 Frc consts  --      1.9982                 1.3423                 7.8927
 IR Inten    --     13.7162                10.0378               135.7065

                     61                     62                     63
                      A                      A                      A
 Frequencies --   1325.6364              1329.7258              1360.6513
 Red. masses --      2.5609                 1.8156                 1.2123
 Frc consts  --      2.6515                 1.8915                 1.3223
 IR Inten    --      4.4363                66.3061                10.4759

                     64                     65                     66
                      A                      A                      A
 Frequencies --   1401.4766              1417.3892              1429.2941
 Red. masses --      1.2465                 1.3465                 1.5253
 Frc consts  --      1.4425                 1.5938                 1.8359
 IR Inten    --      3.8258                 2.7826                29.9488

                     67                     68                     69
                      A                      A                      A
 Frequencies --   1434.7064              1436.1158              1439.3845
 Red. masses --      1.2440                 1.3161                 1.3304
 Frc consts  --      1.5087                 1.5993                 1.6240
 IR Inten    --     13.4023                17.8222                10.2291

                     70                     71                     72
                      A                      A                      A
 Frequencies --   1459.3526              1464.0809              1490.8217
 Red. masses --      1.2451                 2.1672                 1.4720
 Frc consts  --      1.5623                 2.7371                 1.9275
 IR Inten    --     13.0053                74.8756                 3.4615

                     73                     74                     75
                      A                      A                      A
 Frequencies --   1496.3350              1503.6521              1506.2491
 Red. masses --      1.0879                 1.0457                 1.0783
 Frc consts  --      1.4352                 1.3930                 1.4414
 IR Inten    --     11.9773                 6.5643                 0.5699

                     76                     77                     78
                      A                      A                      A
 Frequencies --   1511.9219              1517.7604              1518.0480
 Red. masses --      1.0691                 1.1045                 1.0742
 Frc consts  --      1.4398                 1.4991                 1.4585
 IR Inten    --      3.0901                 9.9624                 4.5558

                     79                     80                     81
                      A                      A                      A
 Frequencies --   1525.7019              1527.0743              1537.7732
 Red. masses --      1.0805                 1.0933                 1.0501
 Frc consts  --      1.4819                 1.5022                 1.4631
 IR Inten    --     10.9775                 6.5772                 9.3744

                     82                     83                     84
                      A                      A                      A
 Frequencies --   1542.9126              1551.3160              1636.2777
 Red. masses --      1.0619                 3.2977                 7.7632
 Frc consts  --      1.4894                 4.6758                12.2463
 IR Inten    --      3.6100                 9.0623                89.3043

                     85                     86                     87
                      A                      A                      A
 Frequencies --   2993.5945              2999.9952              3060.7695
 Red. masses --      1.0703                 1.0706                 1.0436
 Frc consts  --      5.6511                 5.6770                 5.7605
 IR Inten    --     18.3188                73.6890                13.1339

                     88                     89                     90
                      A                      A                      A
 Frequencies --   3063.8163              3067.3669              3068.5094
 Red. masses --      1.0539                 1.0383                 1.0441
 Frc consts  --      5.8285                 5.7556                 5.7924
 IR Inten    --     23.3151                 5.4464                12.0609

                     91                     92                     93
                      A                      A                      A
 Frequencies --   3077.5409              3115.1859              3120.8003
 Red. masses --      1.0351                 1.1023                 1.0941
 Frc consts  --      5.7764                 6.3026                 6.2784
 IR Inten    --      5.3522                21.8574                11.1576

                     94                     95                     96
                      A                      A                      A
 Frequencies --   3123.1696              3128.7366              3133.3629
 Red. masses --      1.0963                 1.0982                 1.0972
 Frc consts  --      6.3002                 6.3337                 6.3471
 IR Inten    --     21.0843                31.6544                 2.1466

                     97                     98                     99
                      A                      A                      A
 Frequencies --   3134.8862              3141.5577              3154.8127
 Red. masses --      1.0991                 1.1006                 1.1034
 Frc consts  --      6.3642                 6.3998                 6.4706
 IR Inten    --     41.3966                 4.8441                12.6040

                    100                    101                    102
                      A                      A                      A
 Frequencies --   3166.1150              3168.6499              3198.7602
 Red. masses --      1.1049                 1.1044                 1.0969
 Frc consts  --      6.5256                 6.5330                 6.6130
 IR Inten    --      8.4720                 3.8944                 3.3440

 - Thermochemistry -
 -------------------
 Temperature   298.150 Kelvin.  Pressure   1.00000 Atm.
 Atom     1 has atomic number  6 and mass  12.00000

 Molecular mass:   274.09873 amu.
 Principal axes and moments of inertia in atomic units:
                           1         2         3
     Eigenvalues --  2808.102346236.261456259.03807
           X            0.99980   0.01967   0.00430
           Y           -0.01982   0.99908   0.03792
           Z           -0.00355  -0.03800   0.99927
 This molecule is an asymmetric top.
 Rotational symmetry number  1.
 Warning -- assumption of classical behavior for rotation
           may cause significant error
 Rotational temperatures (Kelvin)      0.03084     0.01389     0.01384
 Rotational constants (GHZ):           0.64269     0.28939     0.28834
 Zero-point vibrational energy     779722.1 (Joules/Mol)
                                  186.35806 (Kcal/Mol)
 Warning -- explicit consideration of  30 degrees of freedom as
           vibrations may cause significant error
 Vibrational temperatures:     40.53    56.55    80.90    90.83   141.01
          (Kelvin)            195.41   225.47   231.08   247.73   289.52
                              322.48   332.37   350.77   363.62   382.64
                              422.82   446.04   479.02   496.07   504.48
                              537.79   551.55   613.43   676.73   687.50
                              719.20   737.93   776.96   832.20   875.20
                              914.57   932.50   961.12   996.46  1105.00
                             1167.40  1259.70  1297.23  1317.98  1347.24
                             1364.56  1387.42  1445.89  1465.63  1507.16
                             1514.09  1542.61  1546.07  1554.10  1556.82
                             1591.41  1608.76  1634.11  1684.95  1709.16
                             1755.35  1778.65  1824.68  1861.59  1884.60
                             1907.30  1913.18  1957.67  2016.41  2039.31
                             2056.44  2064.22  2066.25  2070.95  2099.68
                             2106.49  2144.96  2152.89  2163.42  2167.16
                             2175.32  2183.72  2184.13  2195.14  2197.12
                             2212.51  2219.91  2232.00  2354.24  4307.11
                             4316.32  4403.76  4408.15  4413.26  4414.90
                             4427.89  4482.06  4490.14  4493.54  4501.55
                             4508.21  4510.40  4520.00  4539.07  4555.33
                             4558.98  4602.30

 Zero-point correction=                           0.296980 (Hartree/Particle)
 Thermal correction to Energy=                    0.315359
 Thermal correction to Enthalpy=                  0.316303
 Thermal correction to Gibbs Free Energy=         0.250503
 Sum of electronic and zero-point Energies=          -1238.256134
 Sum of electronic and thermal Energies=             -1238.237755
 Sum of electronic and thermal Enthalpies=           -1238.236811
 Sum of electronic and thermal Free Energies=        -1238.302611

                     E (Thermal)             CV                S
                      KCal/Mol        Cal/Mol-Kelvin    Cal/Mol-Kelvin
 Total                  197.891             69.456            138.487
 Electronic               0.000              0.000              0.000
 Translational            0.889              2.981             42.724
 Rotational               0.889              2.981             33.060
 Vibrational            196.113             63.495             62.703
 Vibration     1          0.593              1.984              5.954
 Vibration     2          0.594              1.981              5.294
 Vibration     3          0.596              1.975              4.585
 Vibration     4          0.597              1.972              4.357
 Vibration     5          0.603              1.951              3.494
 Vibration     6          0.614              1.918              2.862
 Vibration     7          0.620              1.895              2.589
 Vibration     8          0.622              1.891              2.543
 Vibration     9          0.626              1.877              2.412
 Vibration    10          0.638              1.838              2.122
 Vibration    11          0.649              1.804              1.925
 Vibration    12          0.653              1.794              1.871
 Vibration    13          0.659              1.773              1.775
 Vibration    14          0.664              1.758              1.711
 Vibration    15          0.672              1.736              1.622
 Vibration    16          0.689              1.685              1.452
 Vibration    17          0.699              1.655              1.362
 Vibration    18          0.715              1.610              1.246
 Vibration    19          0.723              1.586              1.190
 Vibration    20          0.728              1.574              1.163
 Vibration    21          0.745              1.526              1.064
 Vibration    22          0.753              1.506              1.026
 Vibration    23          0.788              1.413              0.871
 Vibration    24          0.827              1.316              0.737
 Vibration    25          0.834              1.299              0.716
 Vibration    26          0.855              1.250              0.658
 Vibration    27          0.868              1.221              0.627
 Vibration    28          0.895              1.162              0.565
 Vibration    29          0.935              1.078              0.488
 Vibration    30          0.967              1.014              0.436

 Optimization completed.
    -- Stationary point found.
 Normal termination of Gaussian 16 at Fri Dec 11 19:06:39 2020.

 ----------------------------------------------------------------------
 # B3LYP/6-311++G(d,p) empiricaldispersion=gd3bj scf=xqc pop=npa geom=c
 heck
 ----------------------------------------------------------------------

 ---------------------------------------
 CID_112507434_JID_8039_Energie_neutraal
 ---------------------------------------
 Structure from the checkpoint file:  "JID_8039.chk"
 Charge =  0 Multiplicity = 1

 SCF Done:  E(RB3LYP) =  -1238.81198804     A.U. after   16 cycles
 Normal termination of Gaussian 16 at Fri Dec 11 19:14:02 2020.

 ----------------------------------------------------------------------
 # B3LYP/6-311++G(d,p) empiricaldispersion=gd3bj scf=xqc pop=npa geom=c
 heck
 ----------------------------------------------------------------------

 -------------------------------------
 CID_112507434_JID_8039_Energie_kation
 -------------------------------------
 Structure from the checkpoint file:  "JID_8039.chk"
 Charge =  1 Multiplicity = 2

 SCF Done:  E(UB3LYP) =  -1238.48434400     A.U. after   24 cycles
 Normal termination of Gaussian 16 at Fri Dec 11 19:29:17 2020.
 Gaussian 16:  ES64L-G16RevA.03 25-Dec-2016

 ----------------------------------------------------------------------
 # B3LYP/6-311++G(d,p) empiricaldispersion=gd3bj scf=xqc pop=npa geom=c
 heck
 ----------------------------------------------------------------------

 ------------------------------------
 CID_112507434_JID_8039_Energie_anion
 ------------------------------------
 Structure from the checkpoint file:  "JID_8039.chk"
 Charge = -1 Multiplicity = 2

                         Standard orientation:
 ---------------------------------------------------------------------
 Center     Atomic      Atomic             Coordinates (Angstroms)
 Number     Number       Type             X           Y           Z
 ---------------------------------------------------------------------
      1          6           0       -1.304894    2.599375   -0.629791
      2          6           0       -2.027266    1.308063   -0.503235
      3          6           0       -1.725006    0.131785    0.130874
      4          6           0       -2.829608   -0.738638   -0.141661
      5          7           0       -3.720934   -0.127292   -0.887953
      6          8           0       -3.208151    1.171167   -1.116979
      7          6           0       -3.053455   -2.147877    0.299822
      8         16           0       -0.292464   -0.160693    1.107145
      9          8           0       -0.125498    0.948965    2.048588
     10          8           0       -0.389762   -1.536231    1.614558
     11          7           0        0.914523   -0.028335   -0.095867
     12          6           0        0.844461   -1.203881   -0.997985
     13          6           0        1.758691   -0.986918   -2.191972
     14          8           0        3.088375   -0.757199   -1.764255
     15          6           0        3.136318    0.410645   -0.969853
     16          6           0        2.317499    0.324400    0.337917
     17          6           0        2.384641    1.724502    0.963346
     18          6           0        2.916416   -0.730194    1.279681
     19          1           0       -0.942497    2.916145    0.351991
     20          1           0       -0.430875    2.476197   -1.279280
     21          1           0       -1.962118    3.363576   -1.049784
     22          1           0       -2.242277   -2.795043   -0.046279
     23          1           0       -3.061742   -2.210049    1.391318
     24          1           0       -4.004670   -2.508744   -0.097299
     25          1           0        1.119208   -2.126990   -0.475272
     26          1           0       -0.187742   -1.305456   -1.346618
     27          1           0        1.398497   -0.134894   -2.791669
     28          1           0        1.773184   -1.881183   -2.820860
     29          1           0        2.780719    1.275945   -1.553131
     30          1           0        4.186779    0.569168   -0.712282
     31          1           0        1.999022    1.739683    1.980443
     32          1           0        3.431809    2.048827    0.980997
     33          1           0        1.812069    2.441326    0.367500
     34          1           0        2.982256   -1.707544    0.795198
     35          1           0        3.929487   -0.432202    1.570936
     36          1           0        2.316701   -0.829463    2.188369
 ---------------------------------------------------------------------

 SCF Done:  E(UB3LYP) =  -1238.80561893     A.U. after   33 cycles
 SCF Done:  E(UB3LYP) =  -1238.80561893     a.u. after    1 cycles

 The electronic state is 2-A.
 Alpha  occ. eigenvalues --  -88.95786 -19.08403 -19.03469 -19.01122 -19.01038
 Alpha  occ. eigenvalues --  -14.24239 -14.23916 -10.12745 -10.12674 -10.12064
 Alpha  occ. eigenvalues --  -10.11865 -10.11380 -10.11044 -10.08021 -10.07885
 Alpha  occ. eigenvalues --  -10.07089 -10.06415 -10.05848  -8.01893  -5.98167
 Alpha  occ. eigenvalues --   -5.98144  -5.98013  -1.02502  -1.01314  -0.95505
 Alpha  occ. eigenvalues --   -0.90364  -0.83405  -0.77278  -0.71861  -0.70499
 Alpha  occ. eigenvalues --   -0.65089  -0.62721  -0.61745  -0.59790  -0.59301
 Alpha  occ. eigenvalues --   -0.55706  -0.52818  -0.49043  -0.46270  -0.44779
 Alpha  occ. eigenvalues --   -0.43057  -0.40441  -0.39540  -0.38059  -0.37623
 Alpha  occ. eigenvalues --   -0.36891  -0.36113  -0.35926  -0.35594  -0.33745
 Alpha  occ. eigenvalues --   -0.32922  -0.32563  -0.32525  -0.31025  -0.30032
 Alpha  occ. eigenvalues --   -0.29842  -0.29180  -0.28527  -0.28343  -0.27618
 Alpha  occ. eigenvalues --   -0.27018  -0.25687  -0.25470  -0.24799  -0.22715
 Alpha  occ. eigenvalues --   -0.22081  -0.21399  -0.20213  -0.19719  -0.18735
 Alpha  occ. eigenvalues --   -0.17194  -0.16037  -0.14794   0.04650
 Alpha virt. eigenvalues --    0.06621   0.07334   0.07861   0.08487   0.09247
 Alpha virt. eigenvalues --    0.09968   0.10475   0.10590   0.10917   0.11672
 Alpha virt. eigenvalues --    0.12170   0.12563   0.13081   0.13131   0.13252

  Beta  occ. eigenvalues --  -88.95771 -19.08144 -19.03461 -19.01108 -19.01016
  Beta  occ. eigenvalues --  -14.24207 -14.23783 -10.12737 -10.12655 -10.11832
  Beta  occ. eigenvalues --  -10.11600 -10.11390 -10.11034 -10.08042 -10.07884
  Beta  occ. eigenvalues --  -10.07114 -10.06402 -10.05834  -8.01877  -5.98150
  Beta  occ. eigenvalues --   -5.98105  -5.98003  -1.02084  -1.01238  -0.95490
  Beta  occ. eigenvalues --   -0.90326  -0.83351  -0.77059  -0.71725  -0.70184
  Beta  occ. eigenvalues --   -0.64997  -0.62676  -0.61589  -0.59754  -0.59246
  Beta  occ. eigenvalues --   -0.55541  -0.52762  -0.48901  -0.46027  -0.44612
  Beta  occ. eigenvalues --   -0.42991  -0.40387  -0.39484  -0.37975  -0.37363
  Beta  occ. eigenvalues --   -0.36358  -0.35987  -0.35763  -0.35448  -0.33659
  Beta  occ. eigenvalues --   -0.32832  -0.32414  -0.32352  -0.30973  -0.29810
  Beta  occ. eigenvalues --   -0.29599  -0.29151  -0.28488  -0.28261  -0.27581
  Beta  occ. eigenvalues --   -0.26846  -0.25653  -0.25442  -0.24735  -0.22639
  Beta  occ. eigenvalues --   -0.22028  -0.21302  -0.20147  -0.19515  -0.18131
  Beta  occ. eigenvalues --   -0.17110  -0.15674  -0.13942
  Beta virt. eigenvalues --    0.06985   0.07705   0.08379   0.08531   0.09327
  Beta virt. eigenvalues --    0.09836   0.10436   0.10689   0.10981   0.11123
  Beta virt. eigenvalues --    0.11706   0.12334   0.12640   0.13160   0.13244

 Mulliken charges and spin densities:
               1          2
     1  C    0.257862  -0.812254
     2  C   -0.945663   0.808580
     3  C   -0.719276  -0.238788
     4  C    1.054932   0.246295
     5  N   -0.479032   0.055352
     6  O    0.232663   0.058196
     7  C   -0.532159   0.057806
     8  S    0.169958  -0.134022
     9  O   -0.069643  -0.010219
    10  O   -0.078214   0.002130
    11  N    0.367458  -0.067588
    12  C   -0.506860   0.365305
    13  C    0.528564  -1.010436
    14  O   -0.123373   0.065079
    15  C    0.817264  -1.141775
    16  C   -1.233281   0.801008
    17  C   -0.864707   0.255764
    18  C    0.519385  -0.929933
    19  H    0.136031   0.043831
    20  H   -0.192413   0.407634
    21  H    0.163014   0.006364
    22  H    0.126621   0.027515
    23  H    0.180584  -0.003331
    24  H    0.154596   0.003231
    25  H    0.232606  -0.012337
    26  H    0.277880  -0.075128
    27  H   -0.212234   0.379408
    28  H    0.039733   0.130968
    29  H   -0.304472   0.481881
    30  H   -0.312886   0.500680
    31  H    0.154480   0.051552
    32  H   -0.278233   0.420976
    33  H    0.142593   0.003887
    34  H    0.029421   0.121727
    35  H   -0.006048   0.164775
    36  H    0.272847  -0.024131
 Sum of Mulliken charges =  -1.00000   1.00000

 Dipole moment (field-independent basis, Debye):
    X=             -2.1317    Y=             -3.0627    Z=              1.7591  Tot=              4.1253
 Quadrupole moment (field-independent basis, Debye-Ang):
   XX=           -187.9708   YY=           -140.4087   ZZ=           -152.4679
   XY=             -3.1765   XZ=              2.7618   YZ=              7.0538

 Summary of Natural Population Analysis:

                                       Natural Population
                Natural  -----------------------------------------------
    Atom  No    Charge         Core      Valence    Rydberg      Total
 -----------------------------------------------------------------------
      C    1   -0.32028      0.99962     2.31523    0.00543     3.32028
      C    2    0.27945      0.99943     1.70578    0.01534     2.72055
      C    3   -0.24093      0.99921     2.22686    0.01487     3.24093
      C    4    0.08681      0.99956     1.89912    0.01450     2.91319
      N    5   -0.08560      0.99966     2.57244    0.01349     3.58560
      O    6   -0.14518      0.99985     3.13728    0.00806     4.14518
      C    7   -0.29780      0.99962     2.29393    0.00425     3.29780
      S    8    1.12775      4.99913     1.77376    0.09936     6.87225
      O    9   -0.46529      0.99990     3.45957    0.00582     4.46529
      O   10   -0.47025      0.99991     3.46512    0.00522     4.47025
      N   11   -0.37583      0.99970     2.86073    0.01540     3.87583
      C   12   -0.10721      0.99959     2.09656    0.01106     3.10721
      C   13   -0.01272      0.99957     2.00014    0.01302     3.01272
      O   14   -0.29600      0.99989     3.28656    0.00956     4.29600
      C   15   -0.01355      0.99949     1.99755    0.01651     3.01355
      C   16    0.05402      0.99956     1.93071    0.01571     2.94598
      C   17   -0.29144      0.99960     2.28433    0.00751     3.29144
      C   18   -0.29896      0.99960     2.29209    0.00727     3.29896
      H   19    0.11769      0.00000     0.38138    0.00093     0.38231
      H   20    0.12178      0.00000     0.37581    0.00240     0.37822
      H   21    0.10701      0.00000     0.39201    0.00098     0.39299
      H   22    0.10838      0.00000     0.39045    0.00117     0.39162
      H   23    0.11153      0.00000     0.38755    0.00092     0.38847
      H   24    0.10458      0.00000     0.39442    0.00101     0.39542
      H   25    0.09592      0.00000     0.40284    0.00124     0.40408
      H   26    0.10908      0.00000     0.38963    0.00130     0.39092
      H   27    0.08488      0.00000     0.41341    0.00171     0.41512
      H   28    0.09227      0.00000     0.40676    0.00098     0.40773
      H   29    0.08823      0.00000     0.40895    0.00282     0.41177
      H   30    0.09770      0.00000     0.40009    0.00221     0.40230
      H   31    0.11501      0.00000     0.38391    0.00108     0.38499
      H   32    0.09900      0.00000     0.40002    0.00097     0.40100
      H   33    0.10709      0.00000     0.39181    0.00110     0.39291
      H   34    0.10426      0.00000     0.39474    0.00100     0.39574
      H   35    0.10200      0.00000     0.39716    0.00084     0.39800
      H   36    0.10661      0.00000     0.39239    0.00100     0.39339
 =======================================================================
   * Total *   -0.00000     21.99289    50.70110    0.30601    73.00000

 Normal termination of Gaussian 16 at Fri Dec 11 19:50:32 2020.
