 Gaussian 16, Revision A.03,

 -----------------------------------------------------------
 # opt freq B3LYP/6-31G(d) empiricaldispersion=gd3bj scf=xqc
 -----------------------------------------------------------

 -------------------------------
 CID_44389578_JID_10996_neutraal
 -------------------------------
 Symbolic Z-matrix:
 Charge =  0 Multiplicity = 1

 SCF Done:  E(RB3LYP) =  -857.094489461     A.U. after   15 cycles
 SCF Done:  E(RB3LYP) =  -857.100102609     A.U. after   12 cycles
 SCF Done:  E(RB3LYP) =  -857.100588476     A.U. after   11 cycles
 SCF Done:  E(RB3LYP) =  -857.100714330     A.U. after   11 cycles
 SCF Done:  E(RB3LYP) =  -857.100758550     A.U. after   10 cycles
 SCF Done:  E(RB3LYP) =  -857.100778132     A.U. after    9 cycles
 SCF Done:  E(RB3LYP) =  -857.100781290     A.U. after    8 cycles
 SCF Done:  E(RB3LYP) =  -857.100782290     A.U. after    8 cycles
 SCF Done:  E(RB3LYP) =  -857.100782832     A.U. after    8 cycles
 SCF Done:  E(RB3LYP) =  -857.100783252     A.U. after    7 cycles
 SCF Done:  E(RB3LYP) =  -857.100799775     A.U. after    9 cycles
 SCF Done:  E(RB3LYP) =  -857.100799832     A.U. after    7 cycles
 SCF Done:  E(RB3LYP) =  -857.100799851     A.U. after    6 cycles
 SCF Done:  E(RB3LYP) =  -857.100799865     A.U. after    8 cycles
 SCF Done:  E(RB3LYP) =  -857.100799871     A.U. after    7 cycles
 SCF Done:  E(RB3LYP) =  -857.100799874     A.U. after    6 cycles
 Optimization completed on the basis of negligible forces.
    -- Stationary point found.
 Normal termination of Gaussian 16 at Sun Dec 13 16:56:42 2020.

 --------------------------------------------------------------------
 #N Geom=AllCheck Guess=TCheck SCRF=Check GenChk RB3LYP/6-31G(d) Freq
 --------------------------------------------------------------------

 Structure from the checkpoint file:  "JID_10996.chk"
 -------------------------------
 CID_44389578_JID_10996_neutraal
 -------------------------------
 Charge =  0 Multiplicity = 1

 SCF Done:  E(RB3LYP) =  -857.100799874     A.U. after    1 cycles

  Exact polarizability: 313.397  -2.867 222.251  -0.082  -0.275  72.269
 Approx polarizability: 442.881  -4.413 384.119   0.170   0.827 116.368

                      1                      2                      3
                      A                      A                      A
 Frequencies --      8.1218                42.9936                59.9951
 Red. masses --      1.0324                 4.2901                 4.3802
 Frc consts  --      0.0000                 0.0047                 0.0093
 IR Inten    --      0.1782                 0.3720                 0.1909

                      4                      5                      6
                      A                      A                      A
 Frequencies --     88.6901                95.1036               117.2611
 Red. masses --      5.2709                 4.6730                 5.3478
 Frc consts  --      0.0244                 0.0249                 0.0433
 IR Inten    --      0.5624                 1.2503                 0.7709

                      7                      8                      9
                      A                      A                      A
 Frequencies --    164.3988               168.7837               235.8263
 Red. masses --      4.3518                 3.1324                 5.0109
 Frc consts  --      0.0693                 0.0526                 0.1642
 IR Inten    --      0.1109                 8.2257                 1.3316

                     10                     11                     12
                      A                      A                      A
 Frequencies --    268.8555               274.3781               314.4062
 Red. masses --      7.2746                 4.3278                 5.1723
 Frc consts  --      0.3098                 0.1920                 0.3012
 IR Inten    --      0.4853                 1.6980                 1.3364

                     13                     14                     15
                      A                      A                      A
 Frequencies --    318.5091               319.4150               344.9511
 Red. masses --      2.9424                 3.4543                 3.7477
 Frc consts  --      0.1759                 0.2076                 0.2627
 IR Inten    --      0.8957                 1.4068                 0.4683

                     16                     17                     18
                      A                      A                      A
 Frequencies --    401.2414               439.1996               452.9367
 Red. masses --      3.5865                 2.8352                 1.7354
 Frc consts  --      0.3402                 0.3222                 0.2098
 IR Inten    --     10.9057                14.1149               270.6596

                     19                     20                     21
                      A                      A                      A
 Frequencies --    464.5006               487.5812               500.3811
 Red. masses --      2.4679                 1.2847                 4.0766
 Frc consts  --      0.3137                 0.1799                 0.6014
 IR Inten    --     99.1527                 4.8872                15.7099

                     22                     23                     24
                      A                      A                      A
 Frequencies --    535.3027               589.8680               607.9936
 Red. masses --      3.6661                 4.5329                 3.3005
 Frc consts  --      0.6189                 0.9293                 0.7188
 IR Inten    --      2.2758                 4.6901                 5.7057

                     25                     26                     27
                      A                      A                      A
 Frequencies --    617.4382               658.1002               682.2363
 Red. masses --      6.5599                 5.4659                 6.4309
 Frc consts  --      1.4734                 1.3948                 1.7636
 IR Inten    --      3.8443                 2.6166                12.7604

                     28                     29                     30
                      A                      A                      A
 Frequencies --    684.0332               728.0256               747.5909
 Red. masses --      4.8473                 3.5589                 1.4432
 Frc consts  --      1.3363                 1.1114                 0.4752
 IR Inten    --      5.9153                 8.3258                33.7289

                     31                     32                     33
                      A                      A                      A
 Frequencies --    762.8867               773.2521               808.0799
 Red. masses --      4.7844                 4.9588                 5.3742
 Frc consts  --      1.6406                 1.7469                 2.0676
 IR Inten    --      3.3012                19.2112                14.1686

                     34                     35                     36
                      A                      A                      A
 Frequencies --    815.1026               829.4461               832.2734
 Red. masses --      4.2117                 1.4330                 1.4033
 Frc consts  --      1.6486                 0.5809                 0.5727
 IR Inten    --     51.5434                 6.2371                 7.4866

                     37                     38                     39
                      A                      A                      A
 Frequencies --    834.4727               886.2253               889.7130
 Red. masses --      5.7810                 6.0391                 1.3533
 Frc consts  --      2.3718                 2.7945                 0.6312
 IR Inten    --      4.5863                 7.4788                 1.1487

                     40                     41                     42
                      A                      A                      A
 Frequencies --    909.6715               920.5671               950.7420
 Red. masses --      6.1699                 1.3952                 1.4300
 Frc consts  --      3.0082                 0.6966                 0.7616
 IR Inten    --     13.5144                 2.4750                 0.0062

                     43                     44                     45
                      A                      A                      A
 Frequencies --    966.9312               974.3794               988.1284
 Red. masses --      3.4878                 1.8703                 3.7437
 Frc consts  --      1.9213                 1.0462                 2.1536
 IR Inten    --      6.5884                 0.5554                11.5030

                     46                     47                     48
                      A                      A                      A
 Frequencies --   1030.6686              1040.5261              1076.6501
 Red. masses --      1.5321                 1.3526                 1.5120
 Frc consts  --      0.9589                 0.8628                 1.0326
 IR Inten    --      5.0725                45.8308                 4.4544

                     49                     50                     51
                      A                      A                      A
 Frequencies --   1090.1845              1100.9657              1127.7918
 Red. masses --      2.3236                 2.1199                 3.2024
 Frc consts  --      1.6271                 1.5139                 2.3998
 IR Inten    --      6.3259                 0.9080                12.2313

                     52                     53                     54
                      A                      A                      A
 Frequencies --   1156.6355              1168.1075              1182.3250
 Red. masses --      1.9046                 1.1207                 2.2783
 Frc consts  --      1.5012                 0.9010                 1.8764
 IR Inten    --      0.1349                 0.2134                 7.2807

                     55                     56                     57
                      A                      A                      A
 Frequencies --   1194.7602              1216.6031              1232.1734
 Red. masses --      2.1743                 1.8177                 1.7369
 Frc consts  --      1.8287                 1.5852                 1.5537
 IR Inten    --      4.1063                 1.9760                13.1776

                     58                     59                     60
                      A                      A                      A
 Frequencies --   1257.0147              1266.8457              1272.1412
 Red. masses --      2.0361                 4.3893                 6.3051
 Frc consts  --      1.8955                 4.1504                 6.0119
 IR Inten    --      4.5236                16.4844                 7.5359

                     61                     62                     63
                      A                      A                      A
 Frequencies --   1316.0867              1320.1705              1367.3532
 Red. masses --      4.4988                 1.7552                 4.5110
 Frc consts  --      4.5910                 1.8023                 4.9692
 IR Inten    --     23.9883                17.3818                 3.2613

                     64                     65                     66
                      A                      A                      A
 Frequencies --   1392.4026              1423.8331              1442.8980
 Red. masses --      5.0058                 3.1436                 1.2498
 Frc consts  --      5.7181                 3.7548                 1.5330
 IR Inten    --     57.8095                 7.5636                 0.7504

                     67                     68                     69
                      A                      A                      A
 Frequencies --   1464.4619              1478.5690              1487.5858
 Red. masses --      4.2054                 1.6049                 1.8362
 Frc consts  --      5.3139                 2.0672                 2.3941
 IR Inten    --     37.8830                53.9345               140.2697

                     70                     71                     72
                      A                      A                      A
 Frequencies --   1504.7553              1516.0678              1526.7788
 Red. masses --      2.7874                 1.0447                 1.6366
 Frc consts  --      3.7187                 1.4148                 2.2478
 IR Inten    --    106.2701                 5.4532                64.9007

                     73                     74                     75
                      A                      A                      A
 Frequencies --   1533.2860              1538.4169              1597.7691
 Red. masses --      3.5209                 2.3856                 7.0166
 Frc consts  --      4.8769                 3.3266                10.5538
 IR Inten    --      5.6182                18.1792               348.4292

                     76                     77                     78
                      A                      A                      A
 Frequencies --   1627.2328              1634.6027              1652.9225
 Red. masses --      7.9727                 6.3995                 2.1290
 Frc consts  --     12.4381                10.0744                 3.4271
 IR Inten    --    300.3357                19.4062               141.5473

                     79                     80                     81
                      A                      A                      A
 Frequencies --   1668.2602              1681.9563              3044.0321
 Red. masses --      3.0941                 6.2993                 1.0378
 Frc consts  --      5.0735                10.4995                 5.6657
 IR Inten    --    391.8967                36.6993                41.6098

                     82                     83                     84
                      A                      A                      A
 Frequencies --   3050.4954              3076.9145              3095.8654
 Red. masses --      1.0603                 1.1019                 1.1007
 Frc consts  --      5.8132                 6.1463                 6.2155
 IR Inten    --     11.5678                 9.7725                21.4335

                     85                     86                     87
                      A                      A                      A
 Frequencies --   3128.6514              3173.5836              3192.4301
 Red. masses --      1.1008                 1.0871                 1.0942
 Frc consts  --      6.3484                 6.4506                 6.5704
 IR Inten    --     15.1721                 9.5362                32.3720

                     88                     89                     90
                      A                      A                      A
 Frequencies --   3201.1872              3270.3722              3297.0897
 Red. masses --      1.0908                 1.0911                 1.0964
 Frc consts  --      6.5859                 6.8756                 7.0220
 IR Inten    --      6.2986                 5.7670                 0.5364

                     91                     92                     93
                      A                      A                      A
 Frequencies --   3303.5163              3595.4490              3716.6267
 Red. masses --      1.1055                 1.0456                 1.1026
 Frc consts  --      7.1080                 7.9637                 8.9735
 IR Inten    --      0.9961                59.7699                29.3094

 - Thermochemistry -
 -------------------
 Temperature   298.150 Kelvin.  Pressure   1.00000 Atm.
 Atom     1 has atomic number  6 and mass  12.00000

 Molecular mass:   263.10586 amu.
 Principal axes and moments of inertia in atomic units:
                           1         2         3
     Eigenvalues --  2752.613188502.08505**********
           X            1.00000   0.00037  -0.00016
           Y           -0.00037   1.00000  -0.00243
           Z            0.00016   0.00243   1.00000
 This molecule is an asymmetric top.
 Rotational symmetry number  1.
 Warning -- assumption of classical behavior for rotation
           may cause significant error
 Rotational temperatures (Kelvin)      0.03147     0.01019     0.00771
 Rotational constants (GHZ):           0.65565     0.21227     0.16069
 Zero-point vibrational energy     683635.9 (Joules/Mol)
                                  163.39291 (Kcal/Mol)
 Warning -- explicit consideration of  25 degrees of freedom as
           vibrations may cause significant error
 Vibrational temperatures:     11.69    61.86    86.32   127.61   136.83
          (Kelvin)            168.71   236.53   242.84   339.30   386.82
                              394.77   452.36   458.26   459.57   496.31
                              577.30   631.91   651.67   668.31   701.52
                              719.94   770.18   848.69   874.77   888.36
                              946.86   981.59   984.17  1047.47  1075.62
                             1097.62  1112.54  1162.65  1172.75  1193.39
                             1197.46  1200.62  1275.08  1280.10  1308.81
                             1324.49  1367.91  1391.20  1401.91  1421.70
                             1482.90  1497.09  1549.06  1568.53  1584.04
                             1622.64  1664.14  1680.65  1701.10  1718.99
                             1750.42  1772.82  1808.56  1822.71  1830.33
                             1893.56  1899.43  1967.32  2003.36  2048.58
                             2076.01  2107.03  2127.33  2140.30  2165.01
                             2181.28  2196.69  2206.06  2213.44  2298.83
                             2341.23  2351.83  2378.19  2400.25  2419.96
                             4379.68  4388.98  4426.99  4454.26  4501.43
                             4566.08  4593.19  4605.79  4705.34  4743.78
                             4753.02  5173.05  5347.40

 Zero-point correction=                           0.260383 (Hartree/Particle)
 Thermal correction to Energy=                    0.276340
 Thermal correction to Enthalpy=                  0.277284
 Thermal correction to Gibbs Free Energy=         0.214778
 Sum of electronic and zero-point Energies=           -856.840417
 Sum of electronic and thermal Energies=              -856.824460
 Sum of electronic and thermal Enthalpies=            -856.823516
 Sum of electronic and thermal Free Energies=         -856.886022

                     E (Thermal)             CV                S
                      KCal/Mol        Cal/Mol-Kelvin    Cal/Mol-Kelvin
 Total                  173.406             62.941            131.555
 Electronic               0.000              0.000              0.000
 Translational            0.889              2.981             42.602
 Rotational               0.889              2.981             33.930
 Vibrational            171.628             56.979             55.024
 Vibration     1          0.593              1.987              8.424
 Vibration     2          0.595              1.980              5.116
 Vibration     3          0.597              1.973              4.457
 Vibration     4          0.602              1.957              3.689
 Vibration     5          0.603              1.953              3.552
 Vibration     6          0.608              1.935              3.145
 Vibration     7          0.623              1.886              2.499
 Vibration     8          0.625              1.881              2.449
 Vibration     9          0.655              1.786              1.834
 Vibration    10          0.673              1.730              1.604
 Vibration    11          0.677              1.721              1.568
 Vibration    12          0.702              1.646              1.339
 Vibration    13          0.705              1.638              1.318
 Vibration    14          0.705              1.636              1.313
 Vibration    15          0.723              1.586              1.189
 Vibration    16          0.767              1.467              0.958
 Vibration    17          0.799              1.385              0.829
 Vibration    18          0.811              1.354              0.787
 Vibration    19          0.822              1.329              0.753
 Vibration    20          0.844              1.278              0.690
 Vibration    21          0.856              1.249              0.657
 Vibration    22          0.890              1.172              0.575
 Vibration    23          0.947              1.053              0.467
 Vibration    24          0.967              1.015              0.436
 Vibration    25          0.977              0.995              0.421

 Optimization completed on the basis of negligible forces.
    -- Stationary point found.
 Normal termination of Gaussian 16 at Sun Dec 13 17:11:21 2020.

 ----------------------------------------------------------------------
 # B3LYP/6-311++G(d,p) empiricaldispersion=gd3bj scf=xqc pop=npa geom=c
 heck
 ----------------------------------------------------------------------

 ---------------------------------------
 CID_44389578_JID_10996_Energie_neutraal
 ---------------------------------------
 Structure from the checkpoint file:  "JID_10996.chk"
 Charge =  0 Multiplicity = 1

 SCF Done:  E(RB3LYP) =  -857.322086160     A.U. after   14 cycles
 Normal termination of Gaussian 16 at Sun Dec 13 17:16:15 2020.

 ----------------------------------------------------------------------
 # B3LYP/6-311++G(d,p) empiricaldispersion=gd3bj scf=xqc pop=npa geom=c
 heck
 ----------------------------------------------------------------------

 -------------------------------------
 CID_44389578_JID_10996_Energie_kation
 -------------------------------------
 Structure from the checkpoint file:  "JID_10996.chk"
 Charge =  1 Multiplicity = 2

 SCF Done:  E(UB3LYP) =  -857.049953165     A.U. after   23 cycles
 Normal termination of Gaussian 16 at Sun Dec 13 17:26:50 2020.
 Gaussian 16:  ES64L-G16RevA.03 25-Dec-2016

 ----------------------------------------------------------------------
 # B3LYP/6-311++G(d,p) empiricaldispersion=gd3bj scf=xqc pop=npa geom=c
 heck
 ----------------------------------------------------------------------

 ------------------------------------
 CID_44389578_JID_10996_Energie_anion
 ------------------------------------
 Structure from the checkpoint file:  "JID_10996.chk"
 Charge = -1 Multiplicity = 2

                         Standard orientation:
 ---------------------------------------------------------------------
 Center     Atomic      Atomic             Coordinates (Angstroms)
 Number     Number       Type             X           Y           Z
 ---------------------------------------------------------------------
      1          6           0       -5.694399    0.147900   -0.007712
      2          6           0       -4.261132   -0.327550   -0.008066
      3          6           0       -3.200405    0.581855   -0.005500
      4          6           0       -1.891566    0.102538    0.001950
      5          6           0       -1.610842   -1.275030    0.006662
      6          6           0       -0.111815   -1.513197    0.013727
      7          6           0        0.436161   -0.104902    0.013085
      8          6           0        1.724268    0.428902    0.005542
      9          7           0        1.918277    1.766523    0.000656
     10          6           0        0.829549    2.548462    0.007797
     11          7           0       -0.463387    2.150958    0.001813
     12          6           0       -0.619218    0.829133    0.006376
     13          7           0        1.045691    3.902113    0.057333
     14          6           0        2.934011   -0.373787   -0.000709
     15          6           0        4.261453   -0.033769   -0.000533
     16          6           0        4.997258   -1.257330   -0.007215
     17          6           0        4.070022   -2.258503   -0.010829
     18          8           0        2.810931   -1.742799   -0.006991
     19          6           0       -2.661779   -2.185746    0.003350
     20          6           0       -3.972861   -1.704767   -0.004493
     21          1           0       -5.750708    1.237460   -0.089438
     22          1           0       -6.211741   -0.144671    0.914581
     23          1           0       -6.259029   -0.282023   -0.843739
     24          1           0       -3.383316    1.652639   -0.008707
     25          1           0        0.220054   -2.088523   -0.859823
     26          1           0        0.212272   -2.084613    0.892861
     27          1           0        0.265564    4.482188   -0.214955
     28          1           0        1.966890    4.213850   -0.213041
     29          1           0        4.642328    0.975961    0.005436
     30          1           0        6.071403   -1.376979   -0.008493
     31          1           0        4.134297   -3.335705   -0.015592
     32          1           0       -2.473467   -3.256425    0.005685
     33          1           0       -4.798288   -2.413186   -0.008046
 ---------------------------------------------------------------------

 SCF Done:  E(UB3LYP) =  -857.340402979     A.U. after   20 cycles

 The electronic state is 2-A.
 Alpha  occ. eigenvalues --  -19.05730 -14.19409 -14.14222 -14.14189 -10.12190
 Alpha  occ. eigenvalues --  -10.09725 -10.08945 -10.06693 -10.06197 -10.06097
 Alpha  occ. eigenvalues --  -10.05527 -10.05497 -10.05355 -10.04878 -10.04822
 Alpha  occ. eigenvalues --  -10.04321 -10.03895 -10.03830 -10.03530 -10.03288
 Alpha  occ. eigenvalues --   -0.98525  -0.84887  -0.77060  -0.74717  -0.73007
 Alpha  occ. eigenvalues --   -0.69223  -0.67653  -0.64433  -0.63001  -0.61565
 Alpha  occ. eigenvalues --   -0.57778  -0.54814  -0.52743  -0.48693  -0.47615
 Alpha  occ. eigenvalues --   -0.46815  -0.45089  -0.43319  -0.41833  -0.40323
 Alpha  occ. eigenvalues --   -0.37170  -0.35945  -0.35358  -0.33599  -0.32535
 Alpha  occ. eigenvalues --   -0.32076  -0.31997  -0.31378  -0.30599  -0.29608
 Alpha  occ. eigenvalues --   -0.28848  -0.28337  -0.27911  -0.27240  -0.26904
 Alpha  occ. eigenvalues --   -0.26422  -0.24034  -0.23288  -0.22509  -0.20888
 Alpha  occ. eigenvalues --   -0.19742  -0.18712  -0.16310  -0.15934  -0.12895
 Alpha  occ. eigenvalues --   -0.11723  -0.10438  -0.10345  -0.08138   0.03242
 Alpha virt. eigenvalues --    0.07485   0.07960   0.08716   0.09063   0.09450
 Alpha virt. eigenvalues --    0.09747   0.10381   0.10920   0.11178   0.11669
 Alpha virt. eigenvalues --    0.12506   0.12642   0.13224   0.13990   0.14410

  Beta  occ. eigenvalues --  -19.05569 -14.19421 -14.13883 -14.13876 -10.12254
  Beta  occ. eigenvalues --  -10.09575 -10.08959 -10.06688 -10.06164 -10.05880
  Beta  occ. eigenvalues --  -10.05565 -10.05350 -10.05323 -10.04852 -10.04785
  Beta  occ. eigenvalues --  -10.04136 -10.03840 -10.03727 -10.03408 -10.03363
  Beta  occ. eigenvalues --   -0.98267  -0.84558  -0.76893  -0.74350  -0.72508
  Beta  occ. eigenvalues --   -0.69089  -0.67474  -0.64223  -0.62705  -0.61433
  Beta  occ. eigenvalues --   -0.57555  -0.54651  -0.52216  -0.48621  -0.47393
  Beta  occ. eigenvalues --   -0.46712  -0.44989  -0.43153  -0.41708  -0.40215
  Beta  occ. eigenvalues --   -0.37020  -0.35820  -0.35250  -0.32993  -0.32425
  Beta  occ. eigenvalues --   -0.31940  -0.31876  -0.31188  -0.30468  -0.29536
  Beta  occ. eigenvalues --   -0.28742  -0.27884  -0.27631  -0.27076  -0.26808
  Beta  occ. eigenvalues --   -0.26290  -0.23871  -0.22797  -0.22388  -0.20806
  Beta  occ. eigenvalues --   -0.19084  -0.17098  -0.15711  -0.15534  -0.12180
  Beta  occ. eigenvalues --   -0.11109  -0.09973  -0.09111  -0.07494
  Beta virt. eigenvalues --    0.07458   0.07930   0.08245   0.08697   0.09036
  Beta virt. eigenvalues --    0.09716   0.09772   0.10891   0.11101   0.11161
  Beta virt. eigenvalues --    0.11836   0.12487   0.12612   0.13303   0.13979

 Mulliken charges and spin densities:
               1          2
     1  C   -0.391086   0.010416
     2  C    0.802329  -0.051922
     3  C   -0.823513   0.134007
     4  C   -0.079505  -0.020904
     5  C   -0.437868   0.044649
     6  C   -0.473950   0.000139
     7  C    0.372797  -0.114186
     8  C   -0.050512   0.222729
     9  N   -0.223063   0.153206
    10  C    0.305696  -0.041028
    11  N   -0.201616   0.177911
    12  C   -0.076925   0.136727
    13  N   -0.299000  -0.001742
    14  C   -0.058295  -0.028392
    15  C   -0.257699   0.148520
    16  C   -0.485228  -0.045864
    17  C    0.101029   0.127430
    18  O   -0.028032   0.030012
    19  C   -0.224515   0.010526
    20  C   -0.455122   0.148963
    21  H    0.147321   0.000051
    22  H    0.135537  -0.000594
    23  H    0.127400   0.000245
    24  H    0.116933  -0.010003
    25  H    0.170276  -0.000661
    26  H    0.171863  -0.000808
    27  H    0.239719   0.000578
    28  H    0.240113   0.000006
    29  H    0.171038  -0.010363
    30  H    0.119773   0.003315
    31  H    0.134433  -0.008666
    32  H    0.109870  -0.001991
    33  H    0.099803  -0.012304
 Sum of Mulliken charges =  -1.00000   1.00000

 Dipole moment (field-independent basis, Debye):
    X=             -0.9943    Y=             -1.4330    Z=             -0.7437  Tot=              1.8960
 Quadrupole moment (field-independent basis, Debye-Ang):
   XX=           -160.0557   YY=           -126.6022   ZZ=           -127.8047
   XY=             -1.1369   XZ=             -0.9173   YZ=             -3.7859

 Summary of Natural Population Analysis:

                                       Natural Population
                Natural  -----------------------------------------------
    Atom  No    Charge         Core      Valence    Rydberg      Total
 -----------------------------------------------------------------------
      C    1   -0.28331      0.99958     2.27894    0.00479     3.28331
      C    2   -0.04504      0.99954     2.03763    0.00786     3.04504
      C    3   -0.06087      0.99942     2.05259    0.00887     3.06087
      C    4   -0.02685      0.99936     2.01809    0.00940     3.02685
      C    5    0.01895      0.99939     1.97357    0.00809     2.98105
      C    6   -0.20465      0.99961     2.19807    0.00698     3.20465
      C    7   -0.07124      0.99946     2.06331    0.00848     3.07124
      C    8    0.14347      0.99935     1.84483    0.01235     2.85653
      N    9   -0.24323      0.99965     2.73111    0.01248     3.74323
      C   10    0.27546      0.99966     1.70624    0.01864     2.72454
      N   11   -0.21887      0.99964     2.70572    0.01351     3.71887
      C   12    0.13907      0.99947     1.84566    0.01580     2.86093
      N   13   -0.40627      0.99970     2.89679    0.00979     3.90627
      C   14    0.14466      0.99936     1.84149    0.01449     2.85534
      C   15   -0.10997      0.99946     2.10107    0.00945     3.10997
      C   16   -0.16671      0.99944     2.15823    0.00904     3.16671
      C   17    0.07413      0.99956     1.91050    0.01581     2.92587
      O   18   -0.22651      0.99986     3.21474    0.01191     4.22651
      C   19   -0.11026      0.99954     2.10136    0.00936     3.11026
      C   20   -0.07097      0.99953     2.06270    0.00874     3.07097
      H   21    0.09766      0.00000     0.40116    0.00118     0.40234
      H   22    0.09578      0.00000     0.40286    0.00136     0.40422
      H   23    0.09545      0.00000     0.40321    0.00134     0.40455
      H   24    0.09905      0.00000     0.39911    0.00184     0.40095
      H   25    0.10841      0.00000     0.39026    0.00132     0.39159
      H   26    0.10830      0.00000     0.39036    0.00134     0.39170
      H   27    0.18723      0.00000     0.31135    0.00142     0.31277
      H   28    0.18731      0.00000     0.31136    0.00133     0.31269
      H   29    0.11252      0.00000     0.38641    0.00106     0.38748
      H   30    0.09893      0.00000     0.39977    0.00129     0.40107
      H   31    0.08547      0.00000     0.41354    0.00098     0.41453
      H   32    0.09194      0.00000     0.40640    0.00166     0.40806
      H   33    0.08659      0.00000     0.41185    0.00155     0.41341
 =======================================================================
   * Total *    0.00565     19.99057    48.77029    0.23349    68.99435

 Normal termination of Gaussian 16 at Sun Dec 13 17:36:09 2020.
