 Gaussian 16, Revision A.03,

 -----------------------------------------------------------
 # opt freq B3LYP/6-31G(d) empiricaldispersion=gd3bj scf=xqc
 -----------------------------------------------------------

 --------------------------------
 CID_106749446_JID_10981_neutraal
 --------------------------------
 Symbolic Z-matrix:
 Charge =  0 Multiplicity = 1

 SCF Done:  E(RB3LYP) =  -950.853546011     A.U. after   18 cycles
 SCF Done:  E(RB3LYP) =  -950.844724777     A.U. after   15 cycles
 SCF Done:  E(RB3LYP) =  -950.860928921     A.U. after   15 cycles
 SCF Done:  E(RB3LYP) =  -950.859370391     A.U. after   16 cycles
 SCF Done:  E(RB3LYP) =  -950.863343164     A.U. after   14 cycles
 SCF Done:  E(RB3LYP) =  -950.864703553     A.U. after   14 cycles
 SCF Done:  E(RB3LYP) =  -950.865793923     A.U. after   15 cycles
 SCF Done:  E(RB3LYP) =  -950.866733109     A.U. after   13 cycles
 SCF Done:  E(RB3LYP) =  -950.867658118     A.U. after   14 cycles
 SCF Done:  E(RB3LYP) =  -950.868387031     A.U. after   14 cycles
 SCF Done:  E(RB3LYP) =  -950.877210399     A.U. after   11 cycles
 SCF Done:  E(RB3LYP) =  -950.877224788     A.U. after   10 cycles
 SCF Done:  E(RB3LYP) =  -950.877229907     A.U. after    9 cycles
 SCF Done:  E(RB3LYP) =  -950.877233307     A.U. after    9 cycles
 SCF Done:  E(RB3LYP) =  -950.877234918     A.U. after    8 cycles
 SCF Done:  E(RB3LYP) =  -950.877235251     A.U. after    8 cycles
 Optimization completed.
    -- Stationary point found.
 Normal termination of Gaussian 16 at Sat Dec 12 17:02:06 2020.

 --------------------------------------------------------------------
 #N Geom=AllCheck Guess=TCheck SCRF=Check GenChk RB3LYP/6-31G(d) Freq
 --------------------------------------------------------------------

 Structure from the checkpoint file:  "JID_10981.chk"
 --------------------------------
 CID_106749446_JID_10981_neutraal
 --------------------------------
 Charge =  0 Multiplicity = 1

 SCF Done:  E(RB3LYP) =  -950.877235251     A.U. after    1 cycles

  Exact polarizability: 229.320  34.083 156.129  14.091 -23.373 138.665
 Approx polarizability: 371.730  69.527 252.558  39.655 -60.394 248.482

                      1                      2                      3
                      A                      A                      A
 Frequencies --     39.6048                45.9560                60.2287
 Red. masses --      7.1711                 5.4485                 5.8424
 Frc consts  --      0.0066                 0.0068                 0.0125
 IR Inten    --      0.6138                 1.7630                 0.8237

                      4                      5                      6
                      A                      A                      A
 Frequencies --     67.6057                87.2738               114.2385
 Red. masses --      4.9310                10.1789                 3.6508
 Frc consts  --      0.0133                 0.0457                 0.0281
 IR Inten    --      2.4248                 1.5254                 2.0652

                      7                      8                      9
                      A                      A                      A
 Frequencies --    126.6126               128.8986               141.2997
 Red. masses --      6.2848                 4.6690                 3.9172
 Frc consts  --      0.0594                 0.0457                 0.0461
 IR Inten    --      2.5310                 0.1234                 0.7489

                     10                     11                     12
                      A                      A                      A
 Frequencies --    164.1654               201.0422               228.8177
 Red. masses --      2.9983                 4.1746                 3.2023
 Frc consts  --      0.0476                 0.0994                 0.0988
 IR Inten    --      0.6713                 2.3420                 1.1404

                     13                     14                     15
                      A                      A                      A
 Frequencies --    243.4316               273.9726               293.0259
 Red. masses --      3.6301                 1.8697                 3.1123
 Frc consts  --      0.1267                 0.0827                 0.1575
 IR Inten    --      4.0360                79.7483                 8.7643

                     16                     17                     18
                      A                      A                      A
 Frequencies --    312.5170               326.4834               348.2209
 Red. masses --      2.6223                 3.8332                 2.7603
 Frc consts  --      0.1509                 0.2407                 0.1972
 IR Inten    --     67.2620                 4.1463                61.4192

                     19                     20                     21
                      A                      A                      A
 Frequencies --    364.0724               385.1245               392.4773
 Red. masses --      2.7173                 4.4486                 3.7473
 Frc consts  --      0.2122                 0.3888                 0.3401
 IR Inten    --     10.6639                 6.0609                13.6720

                     22                     23                     24
                      A                      A                      A
 Frequencies --    442.1401               452.7309               498.1847
 Red. masses --      3.0336                 2.9734                 2.6155
 Frc consts  --      0.3494                 0.3591                 0.3825
 IR Inten    --     22.3153                 4.5493                 7.2018

                     25                     26                     27
                      A                      A                      A
 Frequencies --    516.2223               527.6153               570.0645
 Red. masses --      1.5755                 1.6574                 2.1691
 Frc consts  --      0.2474                 0.2718                 0.4153
 IR Inten    --     46.2567                65.0402                 2.5691

                     28                     29                     30
                      A                      A                      A
 Frequencies --    576.3824               587.8547               604.1317
 Red. masses --      1.9798                 3.1623                 2.1797
 Frc consts  --      0.3875                 0.6439                 0.4687
 IR Inten    --     37.8850                25.3394                20.2568

                     31                     32                     33
                      A                      A                      A
 Frequencies --    626.3555               632.9924               654.3624
 Red. masses --      3.2108                 1.5920                 4.7277
 Frc consts  --      0.7422                 0.3758                 1.1927
 IR Inten    --      9.0854                88.9037                 3.8713

                     34                     35                     36
                      A                      A                      A
 Frequencies --    661.3858               698.9710               752.0663
 Red. masses --      4.0799                 2.7995                 2.3413
 Frc consts  --      1.0515                 0.8058                 0.7802
 IR Inten    --      1.1729                 1.4862                13.7390

                     37                     38                     39
                      A                      A                      A
 Frequencies --    756.7858               764.1333               795.3946
 Red. masses --      5.4971                 4.8947                 1.2005
 Frc consts  --      1.8549                 1.6839                 0.4475
 IR Inten    --     15.3898                 3.3404                 8.4050

                     40                     41                     42
                      A                      A                      A
 Frequencies --    805.9643               825.1065               838.8347
 Red. masses --      1.7284                 1.6153                 2.2682
 Frc consts  --      0.6615                 0.6479                 0.9404
 IR Inten    --     17.6937                62.9711                16.5683

                     43                     44                     45
                      A                      A                      A
 Frequencies --    846.9150               851.5637               869.9060
 Red. masses --      4.5631                 1.5590                 2.6945
 Frc consts  --      1.9284                 0.6661                 1.2014
 IR Inten    --      7.9790                 8.1632                 1.6438

                     46                     47                     48
                      A                      A                      A
 Frequencies --    894.7710               956.5711               959.3883
 Red. masses --      2.4508                 3.2694                 2.7702
 Frc consts  --      1.1560                 1.7626                 1.5023
 IR Inten    --      1.3914                 2.5327                 4.1129

                     49                     50                     51
                      A                      A                      A
 Frequencies --    983.8982               997.0712              1050.8425
 Red. masses --      1.2715                 2.2019                 1.8562
 Frc consts  --      0.7252                 1.2897                 1.2077
 IR Inten    --      0.5891                 8.6080                 2.6222

                     52                     53                     54
                      A                      A                      A
 Frequencies --   1064.6687              1076.7953              1080.0431
 Red. masses --      2.0756                 1.3336                 2.0048
 Frc consts  --      1.3862                 0.9111                 1.3778
 IR Inten    --      3.5271                 9.2606                22.6953

                     55                     56                     57
                      A                      A                      A
 Frequencies --   1102.2420              1107.5222              1135.5443
 Red. masses --      1.3560                 2.7013                 1.6737
 Frc consts  --      0.9707                 1.9522                 1.2716
 IR Inten    --      6.1434                20.1056                 6.7912

                     58                     59                     60
                      A                      A                      A
 Frequencies --   1141.5514              1145.6998              1207.5658
 Red. masses --      1.1617                 2.6474                 2.0613
 Frc consts  --      0.8919                 2.0474                 1.7710
 IR Inten    --      4.1108                75.6676                 3.3508

                     61                     62                     63
                      A                      A                      A
 Frequencies --   1213.6684              1216.3630              1224.7196
 Red. masses --      1.3605                 1.5457                 1.2641
 Frc consts  --      1.1807                 1.3474                 1.1171
 IR Inten    --      0.3146                15.1404                 8.8549

                     64                     65                     66
                      A                      A                      A
 Frequencies --   1242.7040              1260.5389              1275.9896
 Red. masses --      1.5076                 1.6497                 1.9557
 Frc consts  --      1.3717                 1.5444                 1.8761
 IR Inten    --     30.9073                34.6655                29.0676

                     67                     68                     69
                      A                      A                      A
 Frequencies --   1316.8788              1321.7543              1330.9590
 Red. masses --      1.6286                 1.3772                 1.8830
 Frc consts  --      1.6641                 1.4176                 1.9653
 IR Inten    --      8.9862                42.8067               115.3817

                     70                     71                     72
                      A                      A                      A
 Frequencies --   1346.3098              1392.6004              1400.5740
 Red. masses --      2.7434                 1.4669                 2.2726
 Frc consts  --      2.9298                 1.6761                 2.6266
 IR Inten    --    798.4862                 6.2348                10.9154

                     73                     74                     75
                      A                      A                      A
 Frequencies --   1413.0816              1415.3383              1425.4176
 Red. masses --      1.4242                 2.5606                 1.9462
 Frc consts  --      1.6756                 3.0222                 2.3298
 IR Inten    --     37.3100                 3.2238                17.1799

                     76                     77                     78
                      A                      A                      A
 Frequencies --   1446.0568              1475.3879              1478.3934
 Red. masses --      1.7806                 2.5552                 2.5150
 Frc consts  --      2.1937                 3.2771                 3.2387
 IR Inten    --     18.6585                34.2478               150.5752

                     79                     80                     81
                      A                      A                      A
 Frequencies --   1488.6258              1494.2692              1504.3418
 Red. masses --      1.1054                 1.1190                 1.1158
 Frc consts  --      1.4433                 1.4721                 1.4877
 IR Inten    --      0.6952                13.5253                 4.9189

                     82                     83                     84
                      A                      A                      A
 Frequencies --   1529.4777              1531.9865              1540.0622
 Red. masses --      1.6335                 1.9419                 1.1376
 Frc consts  --      2.2515                 2.6853                 1.5897
 IR Inten    --     32.1146                46.9851                14.4669

                     85                     86                     87
                      A                      A                      A
 Frequencies --   1557.3578              1599.4659              1624.7618
 Red. masses --      3.3355                 2.4741                 4.9943
 Frc consts  --      4.7663                 3.7292                 7.7680
 IR Inten    --    128.9149                49.7165               136.2929

                     88                     89                     90
                      A                      A                      A
 Frequencies --   1650.6052              1683.9165              1767.2626
 Red. masses --      1.5163                 5.7201                 7.5867
 Frc consts  --      2.4341                 9.5565                13.9607
 IR Inten    --    112.2093               602.7062               271.2625

                     91                     92                     93
                      A                      A                      A
 Frequencies --   3038.7720              3051.5892              3072.8177
 Red. masses --      1.0678                 1.0718                 1.0739
 Frc consts  --      5.8096                 5.8807                 5.9741
 IR Inten    --     22.7146                29.4273                70.1037

                     94                     95                     96
                      A                      A                      A
 Frequencies --   3100.9726              3119.4288              3130.7871
 Red. masses --      1.0955                 1.0874                 1.0886
 Frc consts  --      6.2064                 6.2342                 6.2869
 IR Inten    --     14.6397                34.7465                14.8303

                     97                     98                     99
                      A                      A                      A
 Frequencies --   3156.5620              3164.7902              3169.5734
 Red. masses --      1.0544                 1.0890                 1.0610
 Frc consts  --      6.1900                 6.4263                 6.2802
 IR Inten    --      9.1644                15.6585                12.3816

                    100                    101                    102
                      A                      A                      A
 Frequencies --   3180.8535              3239.8396              3248.8968
 Red. masses --      1.0923                 1.1188                 1.0882
 Frc consts  --      6.5114                 6.9194                 6.7674
 IR Inten    --      4.5625                 7.2000                 0.6855

                    103                    104                    105
                      A                      A                      A
 Frequencies --   3264.0115              3271.5805              3561.5026
 Red. masses --      1.0935                 1.1119                 1.0473
 Frc consts  --      6.8640                 7.0121                 7.8266
 IR Inten    --      1.3345                 3.3253                81.2601

                    106                    107                    108
                      A                      A                      A
 Frequencies --   3577.9860              3585.0929              3701.4109
 Red. masses --      1.0756                 1.0753                 1.1019
 Frc consts  --      8.1130                 8.1431                 8.8942
 IR Inten    --     19.2096                20.1103                52.5498

 - Thermochemistry -
 -------------------
 Temperature   298.150 Kelvin.  Pressure   1.00000 Atm.
 Atom     1 has atomic number  6 and mass  12.00000

 Molecular mass:   278.13789 amu.
 Principal axes and moments of inertia in atomic units:
                           1         2         3
     Eigenvalues --  3530.701146644.449438303.36254
           X            0.99993   0.01139   0.00195
           Y           -0.01140   0.99992   0.00575
           Z           -0.00188  -0.00578   0.99998
 This molecule is an asymmetric top.
 Rotational symmetry number  1.
 Warning -- assumption of classical behavior for rotation
           may cause significant error
 Rotational temperatures (Kelvin)      0.02453     0.01304     0.01043
 Rotational constants (GHZ):           0.51116     0.27162     0.21735
 Zero-point vibrational energy     826683.2 (Joules/Mol)
                                  197.58203 (Kcal/Mol)
 Warning -- explicit consideration of  30 degrees of freedom as
           vibrations may cause significant error
 Vibrational temperatures:     56.98    66.12    86.66    97.27   125.57
          (Kelvin)            164.36   182.17   185.46   203.30   236.20
                              289.25   329.22   350.24   394.19   421.60
                              449.64   469.74   501.01   523.82   554.11
                              564.69   636.14   651.38   716.78   742.73
                              759.12   820.20   829.29   845.79   869.21
                              901.19   910.73   941.48   951.59  1005.66
                             1082.06  1088.85  1099.42  1144.40  1159.60
                             1187.14  1206.90  1218.52  1225.21  1251.60
                             1287.38  1376.29  1380.35  1415.61  1434.56
                             1511.93  1531.82  1549.27  1553.94  1585.88
                             1593.48  1633.79  1642.44  1648.41  1737.42
                             1746.20  1750.07  1762.10  1787.97  1813.63
                             1835.86  1894.69  1901.71  1914.95  1937.04
                             2003.64  2015.11  2033.11  2036.36  2050.86
                             2080.55  2122.75  2127.08  2141.80  2149.92
                             2164.41  2200.58  2204.19  2215.81  2240.69
                             2301.27  2337.67  2374.85  2422.78  2542.70
                             4372.12  4390.56  4421.10  4461.61  4488.16
                             4504.50  4541.59  4553.43  4560.31  4576.54
                             4661.41  4674.44  4696.18  4707.07  5124.21
                             5147.92  5158.15  5325.50

 Zero-point correction=                           0.314867 (Hartree/Particle)
 Thermal correction to Energy=                    0.333677
 Thermal correction to Enthalpy=                  0.334622
 Thermal correction to Gibbs Free Energy=         0.268024
 Sum of electronic and zero-point Energies=           -950.562368
 Sum of electronic and thermal Energies=              -950.543558
 Sum of electronic and thermal Enthalpies=            -950.542614
 Sum of electronic and thermal Free Energies=         -950.609212

                     E (Thermal)             CV                S
                      KCal/Mol        Cal/Mol-Kelvin    Cal/Mol-Kelvin
 Total                  209.386             73.166            140.167
 Electronic               0.000              0.000              0.000
 Translational            0.889              2.981             42.767
 Rotational               0.889              2.981             33.632
 Vibrational            207.608             67.204             63.768
 Vibration     1          0.594              1.981              5.279
 Vibration     2          0.595              1.979              4.984
 Vibration     3          0.597              1.973              4.450
 Vibration     4          0.598              1.970              4.222
 Vibration     5          0.601              1.958              3.720
 Vibration     6          0.607              1.938              3.196
 Vibration     7          0.611              1.927              2.997
 Vibration     8          0.611              1.924              2.962
 Vibration     9          0.615              1.912              2.786
 Vibration    10          0.623              1.886              2.501
 Vibration    11          0.638              1.838              2.124
 Vibration    12          0.651              1.797              1.888
 Vibration    13          0.659              1.774              1.778
 Vibration    14          0.676              1.721              1.571
 Vibration    15          0.688              1.687              1.456
 Vibration    16          0.701              1.650              1.349
 Vibration    17          0.710              1.623              1.277
 Vibration    18          0.726              1.579              1.174
 Vibration    19          0.738              1.546              1.105
 Vibration    20          0.754              1.502              1.019
 Vibration    21          0.760              1.486              0.991
 Vibration    22          0.802              1.378              0.820
 Vibration    23          0.811              1.355              0.788
 Vibration    24          0.854              1.254              0.663
 Vibration    25          0.871              1.214              0.619
 Vibration    26          0.883              1.189              0.593
 Vibration    27          0.926              1.096              0.504
 Vibration    28          0.933              1.082              0.492
 Vibration    29          0.945              1.058              0.471
 Vibration    30          0.963              1.023              0.443

 Optimization completed.
    -- Stationary point found.
 Normal termination of Gaussian 16 at Sat Dec 12 17:23:38 2020.

 ----------------------------------------------------------------------
 # B3LYP/6-311++G(d,p) empiricaldispersion=gd3bj scf=xqc pop=npa geom=c
 heck
 ----------------------------------------------------------------------

 ----------------------------------------
 CID_106749446_JID_10981_Energie_neutraal
 ----------------------------------------
 Structure from the checkpoint file:  "JID_10981.chk"
 Charge =  0 Multiplicity = 1

 SCF Done:  E(RB3LYP) =  -951.156690387     A.U. after   17 cycles
 Normal termination of Gaussian 16 at Sat Dec 12 17:32:29 2020.

 ----------------------------------------------------------------------
 # B3LYP/6-311++G(d,p) empiricaldispersion=gd3bj scf=xqc pop=npa geom=c
 heck
 ----------------------------------------------------------------------

 --------------------------------------
 CID_106749446_JID_10981_Energie_kation
 --------------------------------------
 Structure from the checkpoint file:  "JID_10981.chk"
 Charge =  1 Multiplicity = 2

 SCF Done:  E(UB3LYP) =  -950.871119930     A.U. after   31 cycles
 Normal termination of Gaussian 16 at Sat Dec 12 17:54:12 2020.
 Gaussian 16:  ES64L-G16RevA.03 25-Dec-2016

 ----------------------------------------------------------------------
 # B3LYP/6-311++G(d,p) empiricaldispersion=gd3bj scf=xqc pop=npa geom=c
 heck
 ----------------------------------------------------------------------

 -------------------------------------
 CID_106749446_JID_10981_Energie_anion
 -------------------------------------
 Structure from the checkpoint file:  "JID_10981.chk"
 Charge = -1 Multiplicity = 2

                         Standard orientation:
 ---------------------------------------------------------------------
 Center     Atomic      Atomic             Coordinates (Angstroms)
 Number     Number       Type             X           Y           Z
 ---------------------------------------------------------------------
      1          6           0        0.107447    1.674787    1.645612
      2          6           0        0.592799    2.864554    0.865061
      3          6           0       -0.886310    2.580016    0.954536
      4          7           0       -1.558893    2.153497   -0.238021
      5          6           0       -2.488579    1.162452   -0.384263
      6          8           0       -3.049272    0.980298   -1.463688
      7          6           0       -2.778182    0.297135    0.835842
      8          6           0       -3.600102   -0.948949    0.496004
      9          6           0       -2.904410   -1.943289   -0.451205
     10          7           0       -1.606288   -2.420417    0.015178
     11          6           0       -0.408219   -1.780047   -0.189273
     12          6           0        0.681973   -2.072299    0.642180
     13          6           0        1.930191   -1.440289    0.510041
     14          6           0        2.054692   -0.448086   -0.508813
     15          6           0        0.971688   -0.189556   -1.366747
     16          6           0       -0.231223   -0.838391   -1.239994
     17          7           0        3.235051    0.339475   -0.679392
     18          8           0        4.268386    0.042269   -0.042599
     19          8           0        3.197722    1.304255   -1.455638
     20          7           0        2.934517   -1.733934    1.381983
     21          1           0        0.139446    1.709920    2.730660
     22          1           0        0.284645    0.697083    1.215886
     23          1           0        0.975554    3.727479    1.401273
     24          1           0        1.087208    2.659675   -0.080545
     25          1           0       -1.467557    3.238478    1.600875
     26          1           0       -1.437763    2.714726   -1.073320
     27          1           0       -1.839473    0.021942    1.322743
     28          1           0       -3.320586    0.910414    1.568603
     29          1           0       -3.855133   -1.461253    1.433438
     30          1           0       -4.541943   -0.649723    0.023807
     31          1           0       -3.547749   -2.819898   -0.586659
     32          1           0       -2.785616   -1.484437   -1.431018
     33          1           0       -1.640948   -2.992737    0.849178
     34          1           0        0.558716   -2.797697    1.443724
     35          1           0        1.113127    0.555707   -2.138581
     36          1           0       -1.040553   -0.593944   -1.912853
     37          1           0        2.850823   -2.562067    1.950961
     38          1           0        3.851817   -1.366827    1.165101
 ---------------------------------------------------------------------

 SCF Done:  E(UB3LYP) =  -951.178874706     A.U. after   28 cycles

 The electronic state is 2-A.
 Alpha  occ. eigenvalues --  -18.98947 -18.92858 -18.92644 -14.29978 -14.23928
 Alpha  occ. eigenvalues --  -14.20702 -14.18352 -10.17560 -10.12092 -10.10084
 Alpha  occ. eigenvalues --  -10.08774 -10.08424 -10.07995 -10.07769 -10.07332
 Alpha  occ. eigenvalues --  -10.07303 -10.05010 -10.03178 -10.02256 -10.02192
 Alpha  occ. eigenvalues --   -1.00386  -0.94025  -0.83547  -0.83143  -0.82409
 Alpha  occ. eigenvalues --   -0.79205  -0.74327  -0.70713  -0.68992  -0.63718
 Alpha  occ. eigenvalues --   -0.60323  -0.59809  -0.54489  -0.52525  -0.51237
 Alpha  occ. eigenvalues --   -0.50286  -0.48148  -0.45942  -0.44435  -0.42518
 Alpha  occ. eigenvalues --   -0.41571  -0.40112  -0.39275  -0.39037  -0.37774
 Alpha  occ. eigenvalues --   -0.36117  -0.35259  -0.34498  -0.33699  -0.32885
 Alpha  occ. eigenvalues --   -0.31646  -0.31417  -0.30440  -0.29776  -0.29301
 Alpha  occ. eigenvalues --   -0.27730  -0.27404  -0.27039  -0.26745  -0.25525
 Alpha  occ. eigenvalues --   -0.25121  -0.24904  -0.22057  -0.21508  -0.21156
 Alpha  occ. eigenvalues --   -0.20855  -0.16248  -0.16123  -0.15275  -0.12166
 Alpha  occ. eigenvalues --   -0.11256  -0.09062  -0.08610  -0.07176   0.04040
 Alpha virt. eigenvalues --    0.06212   0.07234   0.08107   0.08750   0.09345
 Alpha virt. eigenvalues --    0.09895   0.10308   0.10576   0.11256   0.11834
 Alpha virt. eigenvalues --    0.12253   0.12945   0.13288   0.13842   0.14279

  Beta  occ. eigenvalues --  -18.98939 -18.92312 -18.92174 -14.29153 -14.23930
  Beta  occ. eigenvalues --  -14.20631 -14.18305 -10.17554 -10.12093 -10.10084
  Beta  occ. eigenvalues --  -10.08678 -10.08425 -10.07988 -10.07508 -10.07328
  Beta  occ. eigenvalues --  -10.07301 -10.05102 -10.03230 -10.02319 -10.01949
  Beta  occ. eigenvalues --   -0.99147  -0.94013  -0.83546  -0.82277  -0.82134
  Beta  occ. eigenvalues --   -0.79038  -0.74324  -0.70559  -0.68873  -0.63408
  Beta  occ. eigenvalues --   -0.60054  -0.59680  -0.54361  -0.52352  -0.50750
  Beta  occ. eigenvalues --   -0.50193  -0.47982  -0.45886  -0.44118  -0.42508
  Beta  occ. eigenvalues --   -0.41410  -0.40054  -0.39259  -0.38973  -0.37718
  Beta  occ. eigenvalues --   -0.35931  -0.35138  -0.34012  -0.32981  -0.31776
  Beta  occ. eigenvalues --   -0.31051  -0.30387  -0.30061  -0.29658  -0.29134
  Beta  occ. eigenvalues --   -0.27587  -0.27046  -0.26895  -0.26615  -0.25474
  Beta  occ. eigenvalues --   -0.25000  -0.24413  -0.22041  -0.21394  -0.20862
  Beta  occ. eigenvalues --   -0.20531  -0.16126  -0.15850  -0.14798  -0.10802
  Beta  occ. eigenvalues --   -0.08775  -0.08575  -0.08148  -0.06504
  Beta virt. eigenvalues --    0.06167   0.07193   0.08071   0.08700   0.09336
  Beta virt. eigenvalues --    0.09855   0.10267   0.10371   0.11123   0.11596
  Beta virt. eigenvalues --    0.11804   0.12430   0.13254   0.13543   0.13815

 Mulliken charges and spin densities:
               1          2
     1  C   -0.112168  -0.033976
     2  C   -0.574166  -0.055885
     3  C   -0.230373   0.055034
     4  N   -0.083798  -0.001818
     5  C   -0.260645  -0.003524
     6  O   -0.311642   0.002256
     7  C    0.305194  -0.006925
     8  C   -0.628165   0.000083
     9  C   -0.355390   0.004737
    10  N   -0.009171   0.029287
    11  C   -0.844373   0.161420
    12  C   -0.121571  -0.032612
    13  C   -0.285469   0.078656
    14  C    0.526170  -0.105031
    15  C   -0.298713   0.231063
    16  C   -0.012094  -0.066316
    17  N   -0.391481   0.253536
    18  O   -0.214372   0.208394
    19  O   -0.203647   0.189682
    20  N   -0.269307   0.018888
    21  H    0.166530   0.002359
    22  H    0.299884  -0.002370
    23  H    0.135372   0.012151
    24  H    0.175358   0.041662
    25  H    0.191706   0.001481
    26  H    0.285863  -0.001979
    27  H    0.172264   0.013062
    28  H    0.188704  -0.002158
    29  H    0.123624   0.007490
    30  H    0.126850   0.013504
    31  H    0.152107  -0.002020
    32  H    0.198249  -0.000492
    33  H    0.213959   0.000404
    34  H    0.069578   0.000227
    35  H    0.225435  -0.012265
    36  H    0.152956   0.005430
    37  H    0.203571  -0.000019
    38  H    0.293170  -0.003418
 Sum of Mulliken charges =  -1.00000   1.00000

 Dipole moment (field-independent basis, Debye):
    X=            -10.3023    Y=             -1.5117    Z=              6.4998  Tot=             12.2747
 Quadrupole moment (field-independent basis, Debye-Ang):
   XX=           -188.8628   YY=           -126.4313   ZZ=           -132.0842
   XY=             -8.3193   XZ=              2.7426   YZ=              0.3731

 Summary of Natural Population Analysis:

                                       Natural Population
                Natural  -----------------------------------------------
    Atom  No    Charge         Core      Valence    Rydberg      Total
 -----------------------------------------------------------------------
      C    1   -0.20115      0.99962     2.19207    0.00946     3.20115
      C    2   -0.19672      0.99962     2.18744    0.00966     3.19672
      C    3   -0.02732      0.99958     2.01871    0.00903     3.02732
      N    4   -0.31585      0.99965     2.80437    0.01183     3.81585
      C    5    0.35350      0.99968     1.62502    0.02180     2.64650
      O    6   -0.33474      0.99988     3.32871    0.00615     4.33474
      C    7   -0.24061      0.99958     2.23490    0.00612     3.24061
      C    8   -0.19136      0.99963     2.18442    0.00731     3.19136
      C    9   -0.08656      0.99962     2.07727    0.00967     3.08656
      N   10   -0.30660      0.99967     2.79503    0.01190     3.80660
      C   11    0.13854      0.99951     1.84952    0.01243     2.86146
      C   12   -0.18441      0.99951     2.17756    0.00734     3.18441
      C   13    0.11656      0.99950     1.87298    0.01096     2.88344
      C   14   -0.02548      0.99941     2.01023    0.01585     3.02548
      C   15   -0.02670      0.99954     2.01639    0.01077     3.02670
      C   16   -0.18382      0.99952     2.17640    0.00789     3.18382
      N   17    0.32800      0.99968     2.14743    0.02488     3.17200
      O   18   -0.21640      0.99990     3.20894    0.00756     4.21640
      O   19   -0.20994      0.99990     3.20225    0.00779     4.20994
      N   20   -0.39219      0.99969     2.88418    0.00832     3.89219
      H   21    0.09792      0.00000     0.40130    0.00078     0.40208
      H   22    0.12254      0.00000     0.37456    0.00290     0.37746
      H   23    0.09836      0.00000     0.40095    0.00070     0.40164
      H   24    0.12369      0.00000     0.37435    0.00196     0.37631
      H   25    0.08878      0.00000     0.40989    0.00134     0.41122
      H   26    0.19294      0.00000     0.30522    0.00184     0.30706
      H   27    0.11996      0.00000     0.37859    0.00145     0.38004
      H   28    0.10561      0.00000     0.39325    0.00114     0.39439
      H   29    0.08972      0.00000     0.40918    0.00110     0.41028
      H   30    0.10135      0.00000     0.39735    0.00130     0.39865
      H   31    0.08787      0.00000     0.41114    0.00099     0.41213
      H   32    0.10848      0.00000     0.39039    0.00113     0.39152
      H   33    0.17561      0.00000     0.32276    0.00163     0.32439
      H   34    0.08517      0.00000     0.41309    0.00175     0.41483
      H   35    0.11208      0.00000     0.38692    0.00100     0.38792
      H   36    0.10315      0.00000     0.39545    0.00140     0.39685
      H   37    0.17643      0.00000     0.32220    0.00138     0.32357
      H   38    0.21359      0.00000     0.28461    0.00180     0.28641
 =======================================================================
   * Total *    0.00000     19.99270    53.76502    0.24229    74.00000

 Normal termination of Gaussian 16 at Sat Dec 12 18:13:54 2020.
