 Gaussian 16, Revision A.03,

 -----------------------------------------------------------
 # opt freq B3LYP/6-31G(d) empiricaldispersion=gd3bj scf=xqc
 -----------------------------------------------------------

 ------------------------------
 CID_81667357_JID_9945_neutraal
 ------------------------------
 Symbolic Z-matrix:
 Charge =  0 Multiplicity = 1

 SCF Done:  E(RB3LYP) =  -837.179828780     A.U. after   15 cycles
 SCF Done:  E(RB3LYP) =  -837.185050292     A.U. after   12 cycles
 SCF Done:  E(RB3LYP) =  -837.185825192     A.U. after   11 cycles
 SCF Done:  E(RB3LYP) =  -837.186159443     A.U. after   11 cycles
 SCF Done:  E(RB3LYP) =  -837.186498488     A.U. after   12 cycles
 SCF Done:  E(RB3LYP) =  -837.186798079     A.U. after   12 cycles
 SCF Done:  E(RB3LYP) =  -837.187290886     A.U. after   11 cycles
 SCF Done:  E(RB3LYP) =  -837.187537960     A.U. after   12 cycles
 SCF Done:  E(RB3LYP) =  -837.187566418     A.U. after   10 cycles
 SCF Done:  E(RB3LYP) =  -837.187511500     A.U. after   12 cycles
 SCF Done:  E(RB3LYP) =  -837.188953509     A.U. after    7 cycles
 SCF Done:  E(RB3LYP) =  -837.188953579     A.U. after    6 cycles
 SCF Done:  E(RB3LYP) =  -837.188953604     A.U. after    7 cycles
 SCF Done:  E(RB3LYP) =  -837.188953611     A.U. after    6 cycles
 Optimization completed.
    -- Stationary point found.
 Normal termination of Gaussian 16 at Sun Dec 13 16:59:47 2020.

 --------------------------------------------------------------------
 #N Geom=AllCheck Guess=TCheck SCRF=Check GenChk RB3LYP/6-31G(d) Freq
 --------------------------------------------------------------------

 Structure from the checkpoint file:  "JID_9945.chk"
 ------------------------------
 CID_81667357_JID_9945_neutraal
 ------------------------------
 Charge =  0 Multiplicity = 1

 SCF Done:  E(RB3LYP) =  -837.188953611     A.U. after    1 cycles

  Exact polarizability: 186.100  -5.858 171.461  -6.286 -12.719 153.395
 Approx polarizability: 244.394  -5.163 256.341  -8.785 -30.760 240.847

                      1                      2                      3
                      A                      A                      A
 Frequencies --     18.9099                24.7482                35.9259
 Red. masses --      3.6250                 4.3088                 3.8464
 Frc consts  --      0.0008                 0.0016                 0.0029
 IR Inten    --      1.9841                 0.5382                 3.9647

                      4                      5                      6
                      A                      A                      A
 Frequencies --     55.4338                68.4825                84.3160
 Red. masses --      2.9340                 3.6703                 3.5489
 Frc consts  --      0.0053                 0.0101                 0.0149
 IR Inten    --      0.3795                 1.6022                 9.5479

                      7                      8                      9
                      A                      A                      A
 Frequencies --    107.3651               116.2476               128.3791
 Red. masses --      2.5241                 1.0889                 2.4172
 Frc consts  --      0.0171                 0.0087                 0.0235
 IR Inten    --      2.4419                 0.1206                 1.0877

                     10                     11                     12
                      A                      A                      A
 Frequencies --    150.3001               161.3538               178.6506
 Red. masses --      1.1274                 1.5318                 2.1204
 Frc consts  --      0.0150                 0.0235                 0.0399
 IR Inten    --      0.7064                 0.5413                 0.6953

                     13                     14                     15
                      A                      A                      A
 Frequencies --    183.5725               204.4815               214.3178
 Red. masses --      1.9126                 2.8568                 3.5521
 Frc consts  --      0.0380                 0.0704                 0.0961
 IR Inten    --      7.0611                 4.6026                 2.6856

                     16                     17                     18
                      A                      A                      A
 Frequencies --    221.0551               245.4478               269.5287
 Red. masses --      2.5032                 2.2072                 2.0173
 Frc consts  --      0.0721                 0.0783                 0.0863
 IR Inten    --      0.1003                 1.7268                 1.7736

                     19                     20                     21
                      A                      A                      A
 Frequencies --    290.0243               303.3468               320.9579
 Red. masses --      3.9858                 2.2256                 2.4575
 Frc consts  --      0.1975                 0.1207                 0.1492
 IR Inten    --      4.1817                 0.3119                 1.2034

                     22                     23                     24
                      A                      A                      A
 Frequencies --    330.1655               357.4266               410.9001
 Red. masses --      2.7771                 3.3376                 2.5672
 Frc consts  --      0.1784                 0.2512                 0.2554
 IR Inten    --      1.2919                 0.5898                 2.8600

                     25                     26                     27
                      A                      A                      A
 Frequencies --    418.8785               486.6980               548.3935
 Red. masses --      4.6357                 2.4999                 2.8903
 Frc consts  --      0.4792                 0.3489                 0.5121
 IR Inten    --      0.6079                 1.0790                 2.4597

                     28                     29                     30
                      A                      A                      A
 Frequencies --    595.9834               637.4008               651.1825
 Red. masses --      4.0949                 4.7707                 5.1878
 Frc consts  --      0.8570                 1.1420                 1.2961
 IR Inten    --      1.3029                 6.5449                11.2663

                     31                     32                     33
                      A                      A                      A
 Frequencies --    673.7939               685.8761               704.0833
 Red. masses --      4.9653                 6.8977                 4.5604
 Frc consts  --      1.3282                 1.9118                 1.3320
 IR Inten    --     16.1240                 0.9707                 6.3584

                     34                     35                     36
                      A                      A                      A
 Frequencies --    736.3701               752.3985               772.8959
 Red. masses --      4.2945                 4.0103                 1.3528
 Frc consts  --      1.3720                 1.3376                 0.4761
 IR Inten    --     12.1924                 8.6330                 4.5142

                     37                     38                     39
                      A                      A                      A
 Frequencies --    792.4514               812.8725               822.3987
 Red. masses --      3.9391                 1.2045                 1.5480
 Frc consts  --      1.4575                 0.4689                 0.6169
 IR Inten    --     12.1191                54.9231                 8.5167

                     40                     41                     42
                      A                      A                      A
 Frequencies --    871.5244               910.0012               923.2680
 Red. masses --      2.7169                 2.4811                 1.2747
 Frc consts  --      1.2158                 1.2105                 0.6402
 IR Inten    --     12.4803                 0.8950                 5.1915

                     43                     44                     45
                      A                      A                      A
 Frequencies --    953.7430               978.5083               987.3025
 Red. masses --      2.6068                 1.9946                 3.7410
 Frc consts  --      1.3971                 1.1252                 2.1485
 IR Inten    --     11.9425                 5.3712                 5.1705

                     46                     47                     48
                      A                      A                      A
 Frequencies --   1025.0394              1032.7300              1064.4445
 Red. masses --      1.4638                 1.7866                 5.5694
 Frc consts  --      0.9062                 1.1227                 3.7180
 IR Inten    --      1.8616                 4.1966                 4.6485

                     49                     50                     51
                      A                      A                      A
 Frequencies --   1069.9732              1077.1388              1085.0676
 Red. masses --      2.7555                 1.5108                 1.6105
 Frc consts  --      1.8586                 1.0328                 1.1172
 IR Inten    --     12.8333                 2.7524                 3.6165

                     52                     53                     54
                      A                      A                      A
 Frequencies --   1092.8966              1101.5529              1140.6019
 Red. masses --      1.8016                 1.6424                 2.3526
 Frc consts  --      1.2678                 1.1742                 1.8033
 IR Inten    --     14.4068                11.0648                 7.4350

                     55                     56                     57
                      A                      A                      A
 Frequencies --   1147.6531              1167.4333              1170.3484
 Red. masses --      3.2376                 2.1946                 1.3183
 Frc consts  --      2.5124                 1.7623                 1.0639
 IR Inten    --     49.2276                16.5660                 5.8721

                     58                     59                     60
                      A                      A                      A
 Frequencies --   1179.4899              1198.3519              1228.2344
 Red. masses --      1.8379                 2.5962                 1.7240
 Frc consts  --      1.5065                 2.1966                 1.5323
 IR Inten    --      0.7769                 2.2388                14.4189

                     61                     62                     63
                      A                      A                      A
 Frequencies --   1250.6060              1251.8659              1284.1145
 Red. masses --      3.2389                 1.2161                 2.6711
 Frc consts  --      2.9847                 1.1229                 2.5951
 IR Inten    --      2.2218                 4.0559                10.0929

                     64                     65                     66
                      A                      A                      A
 Frequencies --   1307.4092              1330.1398              1348.9557
 Red. masses --      1.2268                 1.2438                 2.7321
 Frc consts  --      1.2355                 1.2966                 2.9291
 IR Inten    --      4.9050                 9.4031                35.1369

                     67                     68                     69
                      A                      A                      A
 Frequencies --   1378.6359              1387.4298              1388.7044
 Red. masses --      1.3323                 3.5559                 1.5441
 Frc consts  --      1.4919                 4.0329                 1.7545
 IR Inten    --     34.5148                 5.5601                21.7776

                     70                     71                     72
                      A                      A                      A
 Frequencies --   1396.3312              1417.3966              1433.7977
 Red. masses --      1.3981                 2.4884                 1.8661
 Frc consts  --      1.6060                 2.9455                 2.2603
 IR Inten    --      3.5714                35.3460                11.8819

                     73                     74                     75
                      A                      A                      A
 Frequencies --   1437.3260              1439.4643              1446.7795
 Red. masses --      1.3051                 2.3067                 1.6527
 Frc consts  --      1.5885                 2.8161                 2.0382
 IR Inten    --      3.0507                10.7916                 6.5343

                     76                     77                     78
                      A                      A                      A
 Frequencies --   1449.3264              1484.0354              1494.0146
 Red. masses --      1.3362                 1.3497                 1.1213
 Frc consts  --      1.6537                 1.7514                 1.4746
 IR Inten    --      3.4384                 7.3343                13.2910

                     79                     80                     81
                      A                      A                      A
 Frequencies --   1499.0273              1503.2842              1511.1169
 Red. masses --      1.5018                 1.2071                 1.0887
 Frc consts  --      1.9883                 1.6072                 1.4647
 IR Inten    --     51.6926                30.5551                 6.8401

                     82                     83                     84
                      A                      A                      A
 Frequencies --   1512.1140              1519.6805              1528.2160
 Red. masses --      1.0671                 1.5940                 1.2854
 Frc consts  --      1.4376                 2.1689                 1.7687
 IR Inten    --     12.0673                15.7285                 3.4151

                     85                     86                     87
                      A                      A                      A
 Frequencies --   1529.7154              1533.6324              1536.4884
 Red. masses --      1.0662                 1.7092                 1.1209
 Frc consts  --      1.4699                 2.3686                 1.5591
 IR Inten    --     20.8970                16.8069                 1.9331

                     88                     89                     90
                      A                      A                      A
 Frequencies --   1539.3237              1542.1852              1545.2274
 Red. masses --      1.1274                 1.3106                 1.1155
 Frc consts  --      1.5739                 1.8365                 1.5692
 IR Inten    --      7.9520                 5.2883                 2.8125

                     91                     92                     93
                      A                      A                      A
 Frequencies --   1546.0265              1552.1406              1564.1413
 Red. masses --      2.2016                 1.0855                 3.0073
 Frc consts  --      3.1005                 1.5408                 4.3349
 IR Inten    --      8.4877                 0.8277                54.5267

                     94                     95                     96
                      A                      A                      A
 Frequencies --   1565.5198              1622.8669              2915.0762
 Red. masses --      2.5920                 5.6846                 1.0739
 Frc consts  --      3.7429                 8.8209                 5.3765
 IR Inten    --      5.7003                31.8368                80.1636

                     97                     98                     99
                      A                      A                      A
 Frequencies --   2941.7098              3026.0182              3038.4686
 Red. masses --      1.0736                 1.0859                 1.0450
 Frc consts  --      5.4740                 5.8584                 5.6841
 IR Inten    --     82.9899                33.3166                28.2697

                    100                    101                    102
                      A                      A                      A
 Frequencies --   3041.9622              3043.4603              3047.2512
 Red. masses --      1.0477                 1.0548                 1.0380
 Frc consts  --      5.7123                 5.7565                 5.6790
 IR Inten    --     18.7104                18.5971                31.3824

                    103                    104                    105
                      A                      A                      A
 Frequencies --   3058.7712              3060.2253              3081.7171
 Red. masses --      1.0818                 1.0348                 1.1015
 Frc consts  --      5.9634                 5.7099                 6.1632
 IR Inten    --     66.9956                53.9444                 8.4754

                    106                    107                    108
                      A                      A                      A
 Frequencies --   3096.7505              3102.1970              3105.3628
 Red. masses --      1.1011                 1.0721                 1.0812
 Frc consts  --      6.2213                 6.0790                 6.1430
 IR Inten    --     18.7459                16.0382                 1.6867

                    109                    110                    111
                      A                      A                      A
 Frequencies --   3110.0814              3116.3609              3136.3077
 Red. masses --      1.1025                 1.1011                 1.1033
 Frc consts  --      6.2830                 6.3006                 6.3943
 IR Inten    --     58.0587                47.3789                12.8226

                    112                    113                    114
                      A                      A                      A
 Frequencies --   3140.3334              3156.4074              3159.1006
 Red. masses --      1.1000                 1.1055                 1.1010
 Frc consts  --      6.3915                 6.4891                 6.4737
 IR Inten    --     14.1544                 2.4417                 0.1947

                    115                    116                    117
                      A                      A                      A
 Frequencies --   3162.5634              3275.4568              3498.4741
 Red. masses --      1.1069                 1.0981                 1.0736
 Frc consts  --      6.5226                 6.9413                 7.7416
 IR Inten    --     11.2517                 1.1191                 0.2064

 - Thermochemistry -
 -------------------
 Temperature   298.150 Kelvin.  Pressure   1.00000 Atm.
 Atom     1 has atomic number  6 and mass  12.00000

 Molecular mass:   262.19059 amu.
 Principal axes and moments of inertia in atomic units:
                           1         2         3
     Eigenvalues --  3642.267618396.408449969.78381
           X            0.99958   0.02899  -0.00011
           Y           -0.02899   0.99952  -0.01052
           Z           -0.00019   0.01052   0.99994
 This molecule is an asymmetric top.
 Rotational symmetry number  1.
 Warning -- assumption of classical behavior for rotation
           may cause significant error
 Rotational temperatures (Kelvin)      0.02378     0.01032     0.00869
 Rotational constants (GHZ):           0.49550     0.21494     0.18102
 Zero-point vibrational energy     935296.8 (Joules/Mol)
                                  223.54130 (Kcal/Mol)
 Warning -- explicit consideration of  28 degrees of freedom as
           vibrations may cause significant error
 Vibrational temperatures:     27.21    35.61    51.69    79.76    98.53
          (Kelvin)            121.31   154.47   167.25   184.71   216.25
                              232.15   257.04   264.12   294.20   308.36
                              318.05   353.14   387.79   417.28   436.45
                              461.79   475.03   514.26   591.19   602.67
                              700.25   789.02   857.49   917.08   936.91
                              969.44   986.82  1013.02  1059.47  1082.53
                             1112.02  1140.16  1169.54  1183.25  1253.93
                             1309.29  1328.38  1372.22  1407.86  1420.51
                             1474.80  1485.87  1531.50  1539.45  1549.76
                             1561.17  1572.43  1584.89  1641.07  1651.22
                             1679.68  1683.87  1697.02  1724.16  1767.16
                             1799.34  1801.16  1847.55  1881.07  1913.77
                             1940.85  1983.55  1996.20  1998.04  2009.01
                             2039.32  2062.92  2067.99  2071.07  2081.59
                             2085.26  2135.20  2149.55  2156.77  2162.89
                             2174.16  2175.59  2186.48  2198.76  2200.92
                             2206.55  2210.66  2214.74  2218.86  2223.24
                             2224.39  2233.18  2250.45  2252.43  2334.94
                             4194.14  4232.46  4353.77  4371.68  4376.71
                             4378.86  4384.31  4400.89  4402.98  4433.90
                             4455.53  4463.37  4467.92  4474.71  4483.75
                             4512.45  4518.24  4541.37  4545.24  4550.22
                             4712.65  5033.52

 Zero-point correction=                           0.356236 (Hartree/Particle)
 Thermal correction to Energy=                    0.376390
 Thermal correction to Enthalpy=                  0.377335
 Thermal correction to Gibbs Free Energy=         0.305257
 Sum of electronic and zero-point Energies=           -836.832718
 Sum of electronic and thermal Energies=              -836.812563
 Sum of electronic and thermal Enthalpies=            -836.811619
 Sum of electronic and thermal Free Energies=         -836.883697

                     E (Thermal)             CV                S
                      KCal/Mol        Cal/Mol-Kelvin    Cal/Mol-Kelvin
 Total                  236.189             73.076            151.700
 Electronic               0.000              0.000              0.000
 Translational            0.889              2.981             42.591
 Rotational               0.889              2.981             34.077
 Vibrational            234.411             67.114             75.032
 Vibration     1          0.593              1.986              6.745
 Vibration     2          0.593              1.985              6.211
 Vibration     3          0.594              1.982              5.472
 Vibration     4          0.596              1.975              4.613
 Vibration     5          0.598              1.969              4.197
 Vibration     6          0.601              1.960              3.788
 Vibration     7          0.606              1.943              3.316
 Vibration     8          0.608              1.936              3.162
 Vibration     9          0.611              1.925              2.970
 Vibration    10          0.618              1.902              2.668
 Vibration    11          0.622              1.890              2.534
 Vibration    12          0.629              1.869              2.342
 Vibration    13          0.631              1.862              2.292
 Vibration    14          0.640              1.834              2.092
 Vibration    15          0.644              1.819              2.007
 Vibration    16          0.648              1.809              1.950
 Vibration    17          0.660              1.770              1.763
 Vibration    18          0.674              1.729              1.599
 Vibration    19          0.686              1.692              1.474
 Vibration    20          0.695              1.667              1.398
 Vibration    21          0.706              1.633              1.305
 Vibration    22          0.713              1.615              1.259
 Vibration    23          0.733              1.560              1.133
 Vibration    24          0.775              1.447              0.923
 Vibration    25          0.782              1.429              0.896
 Vibration    26          0.843              1.280              0.692
 Vibration    27          0.904              1.143              0.548
 Vibration    28          0.954              1.040              0.457

                           ! Non-Optimized Parameters !
 Normal termination of Gaussian 16 at Sun Dec 13 17:19:51 2020.

 ----------------------------------------------------------------------
 # B3LYP/6-311++G(d,p) empiricaldispersion=gd3bj scf=xqc pop=npa geom=c
 heck
 ----------------------------------------------------------------------

 --------------------------------------
 CID_81667357_JID_9945_Energie_neutraal
 --------------------------------------
 Structure from the checkpoint file:  "JID_9945.chk"
 Charge =  0 Multiplicity = 1

 SCF Done:  E(RB3LYP) =  -837.412203012     A.U. after   16 cycles
 Normal termination of Gaussian 16 at Sun Dec 13 17:29:38 2020.

 ----------------------------------------------------------------------
 # B3LYP/6-311++G(d,p) empiricaldispersion=gd3bj scf=xqc pop=npa geom=c
 heck
 ----------------------------------------------------------------------

 ------------------------------------
 CID_81667357_JID_9945_Energie_kation
 ------------------------------------
 Structure from the checkpoint file:  "JID_9945.chk"
 Charge =  1 Multiplicity = 2

 SCF Done:  E(UB3LYP) =  -837.118480467     A.U. after   33 cycles
 SCF Done:  E(UB3LYP) =  -837.118480468     a.u. after    2 cycles
 Normal termination of Gaussian 16 at Sun Dec 13 18:22:01 2020.
 Gaussian 16:  ES64L-G16RevA.03 25-Dec-2016

 ----------------------------------------------------------------------
 # B3LYP/6-311++G(d,p) empiricaldispersion=gd3bj scf=xqc pop=npa geom=c
 heck
 ----------------------------------------------------------------------

 -----------------------------------
 CID_81667357_JID_9945_Energie_anion
 -----------------------------------
 Structure from the checkpoint file:  "JID_9945.chk"
 Charge = -1 Multiplicity = 2

                         Standard orientation:
 ---------------------------------------------------------------------
 Center     Atomic      Atomic             Coordinates (Angstroms)
 Number     Number       Type             X           Y           Z
 ---------------------------------------------------------------------
      1          6           0        4.206933    2.409065    1.415728
      2          6           0        4.779325    1.743888    0.159955
      3          6           0        4.363178    0.281052   -0.005372
      4          7           0        2.920537    0.143849   -0.175841
      5          6           0        2.495493   -1.241171   -0.395934
      6          6           0        1.000925   -1.360298   -0.413247
      7          6           0        0.105246   -0.612254   -1.169297
      8          7           0       -1.133860   -1.093428   -0.861850
      9          7           0       -1.099344   -2.087199    0.068476
     10          6           0        0.196325   -2.255918    0.339639
     11          6           0        0.632610   -3.299926    1.320710
     12          6           0       -2.420733   -0.555226   -1.274129
     13          6           0       -2.821821    0.651937   -0.484941
     14          7           0       -2.746773    1.889865   -0.927800
     15          7           0       -3.143950    2.727069    0.096566
     16          6           0       -3.441738    1.960444    1.118875
     17          7           0       -3.254306    0.638945    0.817617
     18          6           0       -3.516738   -0.514409    1.671407
     19          6           0        0.329862    0.492316   -2.150596
     20          1           0        3.114299    2.484479    1.370741
     21          1           0        4.594399    3.426642    1.533954
     22          1           0        4.471425    1.844164    2.318764
     23          1           0        4.461881    2.300401   -0.730273
     24          1           0        5.875647    1.787521    0.192732
     25          1           0        4.840830   -0.132767   -0.903127
     26          1           0        4.745417   -0.311114    0.851176
     27          1           0        2.440354    0.494504    0.650624
     28          1           0        2.925086   -1.563811   -1.355366
     29          1           0        2.902890   -1.934540    0.364214
     30          1           0        1.249701   -2.869566    2.118613
     31          1           0       -0.243805   -3.768264    1.776544
     32          1           0        1.227596   -4.085435    0.839380
     33          1           0       -2.369432   -0.258632   -2.323463
     34          1           0       -3.143601   -1.368499   -1.176053
     35          1           0       -3.788993    2.298506    2.085411
     36          1           0       -2.804298   -1.307512    1.432675
     37          1           0       -3.390670   -0.216250    2.714518
     38          1           0       -4.539668   -0.877692    1.525664
     39          1           0        0.185934    0.147483   -3.183504
     40          1           0       -0.358908    1.326856   -1.979837
     41          1           0        1.354590    0.852819   -2.040347
 ---------------------------------------------------------------------

 SCF Done:  E(UB3LYP) =  -837.403016362     A.U. after   33 cycles
 SCF Done:  E(UB3LYP) =  -837.403016362     a.u. after    1 cycles

 The electronic state is 2-A.
 Alpha  occ. eigenvalues --  -14.29762 -14.29757 -14.23719 -14.23582 -14.23430
 Alpha  occ. eigenvalues --  -14.21200 -10.15209 -10.14922 -10.14371 -10.12307
 Alpha  occ. eigenvalues --  -10.12133 -10.11289 -10.10689 -10.10662 -10.08571
 Alpha  occ. eigenvalues --  -10.08334 -10.07869 -10.07828 -10.07628  -0.97827
 Alpha  occ. eigenvalues --   -0.95880  -0.84008  -0.82461  -0.77702  -0.73035
 Alpha  occ. eigenvalues --   -0.71906  -0.69119  -0.65838  -0.64252  -0.63165
 Alpha  occ. eigenvalues --   -0.60737  -0.58952  -0.56299  -0.54387  -0.50209
 Alpha  occ. eigenvalues --   -0.50007  -0.48481  -0.46145  -0.44093  -0.42336
 Alpha  occ. eigenvalues --   -0.40722  -0.39674  -0.38875  -0.38299  -0.37980
 Alpha  occ. eigenvalues --   -0.35628  -0.35419  -0.34597  -0.33944  -0.33368
 Alpha  occ. eigenvalues --   -0.33183  -0.32491  -0.32333  -0.32090  -0.31696
 Alpha  occ. eigenvalues --   -0.31156  -0.30262  -0.29266  -0.29003  -0.27640
 Alpha  occ. eigenvalues --   -0.25907  -0.25713  -0.25517  -0.23017  -0.20829
 Alpha  occ. eigenvalues --   -0.20107  -0.18001  -0.17654  -0.15486  -0.15056
 Alpha  occ. eigenvalues --   -0.14371   0.03726
 Alpha virt. eigenvalues --    0.05263   0.06352   0.06555   0.07226   0.07305
 Alpha virt. eigenvalues --    0.07964   0.08172   0.08620   0.08861   0.09290
 Alpha virt. eigenvalues --    0.09971   0.10381   0.10653   0.10775   0.10926

  Beta  occ. eigenvalues --  -14.29761 -14.29757 -14.23717 -14.23581 -14.23419
  Beta  occ. eigenvalues --  -14.21188 -10.15207 -10.14910 -10.14357 -10.12303
  Beta  occ. eigenvalues --  -10.12075 -10.11275 -10.10672 -10.10662 -10.08562
  Beta  occ. eigenvalues --  -10.08329 -10.07841 -10.07808 -10.07628  -0.97820
  Beta  occ. eigenvalues --   -0.95873  -0.83998  -0.82443  -0.77692  -0.73024
  Beta  occ. eigenvalues --   -0.71893  -0.69098  -0.65811  -0.64184  -0.63143
  Beta  occ. eigenvalues --   -0.60714  -0.58918  -0.56261  -0.54366  -0.50175
  Beta  occ. eigenvalues --   -0.49965  -0.48461  -0.46122  -0.44039  -0.42317
  Beta  occ. eigenvalues --   -0.40698  -0.39648  -0.38844  -0.38268  -0.37948
  Beta  occ. eigenvalues --   -0.35605  -0.35397  -0.34568  -0.33918  -0.33345
  Beta  occ. eigenvalues --   -0.33163  -0.32450  -0.32303  -0.32058  -0.31675
  Beta  occ. eigenvalues --   -0.31133  -0.30235  -0.29246  -0.28981  -0.27622
  Beta  occ. eigenvalues --   -0.25880  -0.25692  -0.25489  -0.23009  -0.20801
  Beta  occ. eigenvalues --   -0.20080  -0.17992  -0.17646  -0.15472  -0.15041
  Beta  occ. eigenvalues --   -0.14347
  Beta virt. eigenvalues --    0.05563   0.06320   0.06763   0.06967   0.07442
  Beta virt. eigenvalues --    0.07942   0.08042   0.08403   0.08864   0.09157
  Beta virt. eigenvalues --    0.09408   0.10130   0.10665   0.10853   0.10959

 Mulliken charges and spin densities:
               1          2
     1  C    0.123617  -0.607480
     2  C   -0.522985   0.195077
     3  C    0.247760  -0.444861
     4  N   -0.048376   0.076543
     5  C   -0.995398  -0.340768
     6  C    1.566809   0.124758
     7  C    0.066177  -0.591352
     8  N    0.298900   0.020468
     9  N    0.005587   0.030070
    10  C   -1.689603   1.484821
    11  C    0.717550  -1.456610
    12  C    0.090565  -1.071095
    13  C   -0.383153   0.414825
    14  N   -0.054782   0.080936
    15  N   -0.113549  -0.063949
    16  C    0.077391   0.097977
    17  N   -0.171612   0.210832
    18  C    1.167760  -1.502869
    19  C   -0.464499  -0.226793
    20  H    0.063386   0.077445
    21  H   -0.097886   0.238151
    22  H   -0.064478   0.204248
    23  H    0.103363   0.034183
    24  H   -0.052607   0.178847
    25  H    0.002595   0.135948
    26  H   -0.158261   0.287339
    27  H    0.216331  -0.064382
    28  H    0.011487   0.145408
    29  H    0.123214   0.046356
    30  H   -0.253792   0.426589
    31  H   -0.099896   0.254921
    32  H   -0.020182   0.178100
    33  H    0.159646   0.049273
    34  H   -0.054435   0.272735
    35  H   -0.515521   0.711086
    36  H    0.295724  -0.083203
    37  H   -0.503087   0.661301
    38  H   -0.581575   0.780559
    39  H    0.092329   0.073271
    40  H    0.132672   0.037408
    41  H    0.282814  -0.076113
 Sum of Mulliken charges =  -1.00000   1.00000

 Dipole moment (field-independent basis, Debye):
    X=              3.3709    Y=             -1.0953    Z=             -5.8927  Tot=              6.8766
 Quadrupole moment (field-independent basis, Debye-Ang):
   XX=           -209.4428   YY=           -172.5881   ZZ=           -160.6377
   XY=              3.6411   XZ=              5.3440   YZ=              6.6964

 Summary of Natural Population Analysis:

                                       Natural Population
                Natural  -----------------------------------------------
    Atom  No    Charge         Core      Valence    Rydberg      Total
 -----------------------------------------------------------------------
      C    1   -0.28856      0.99967     2.28449    0.00440     3.28856
      C    2   -0.19213      0.99964     2.18519    0.00730     3.19213
      C    3   -0.08581      0.99963     2.07353    0.01264     3.08581
      N    4   -0.34181      0.99974     2.83098    0.01109     3.84181
      C    5   -0.10309      0.99963     2.08840    0.01507     3.10309
      C    6   -0.03170      0.99941     2.02652    0.00577     3.03170
      C    7    0.09035      0.99952     1.89615    0.01398     2.90965
      N    8   -0.11310      0.99961     2.60133    0.01216     3.61310
      N    9   -0.17253      0.99970     2.66084    0.01199     3.67253
      C   10    0.07012      0.99959     1.91218    0.01810     2.92988
      C   11   -0.29564      0.99963     2.29190    0.00410     3.29564
      C   12   -0.10691      0.99957     2.09562    0.01172     3.10691
      C   13    0.17615      0.99959     1.80695    0.01731     2.82385
      N   14   -0.16613      0.99968     2.65388    0.01256     3.66613
      N   15   -0.16191      0.99973     2.64858    0.01359     3.66191
      C   16    0.10254      0.99963     1.88116    0.01667     2.89746
      N   17   -0.20601      0.99961     2.69551    0.01089     3.70601
      C   18   -0.18352      0.99962     2.17570    0.00820     3.18352
      C   19   -0.31603      0.99963     2.31165    0.00476     3.31603
      H   20    0.09782      0.00000     0.40105    0.00113     0.40218
      H   21    0.09869      0.00000     0.40037    0.00093     0.40131
      H   22    0.09767      0.00000     0.40107    0.00126     0.40233
      H   23    0.09607      0.00000     0.40263    0.00130     0.40393
      H   24    0.09462      0.00000     0.40432    0.00106     0.40538
      H   25    0.09031      0.00000     0.40840    0.00129     0.40969
      H   26    0.07836      0.00000     0.41999    0.00165     0.42164
      H   27    0.17301      0.00000     0.32273    0.00426     0.32699
      H   28    0.09256      0.00000     0.40617    0.00127     0.40744
      H   29    0.08795      0.00000     0.41043    0.00163     0.41205
      H   30    0.10606      0.00000     0.39246    0.00148     0.39394
      H   31    0.10931      0.00000     0.38955    0.00114     0.39069
      H   32    0.10148      0.00000     0.39720    0.00132     0.39852
      H   33    0.11500      0.00000     0.38382    0.00118     0.38500
      H   34    0.11677      0.00000     0.38183    0.00141     0.38323
      H   35    0.10043      0.00000     0.39794    0.00164     0.39957
      H   36    0.12033      0.00000     0.37718    0.00249     0.37967
      H   37    0.10665      0.00000     0.39032    0.00303     0.39335
      H   38    0.10079      0.00000     0.39633    0.00289     0.39921
      H   39    0.10132      0.00000     0.39762    0.00106     0.39868
      H   40    0.11838      0.00000     0.38017    0.00146     0.38162
      H   41    0.12227      0.00000     0.37646    0.00127     0.37773
 =======================================================================
   * Total *    0.00013     18.99282    51.75858    0.24847    70.99987

 Normal termination of Gaussian 16 at Sun Dec 13 18:49:39 2020.
