 Gaussian 16, Revision A.03,

 -----------------------------------------------------------
 # opt freq B3LYP/6-31G(d) empiricaldispersion=gd3bj scf=xqc
 -----------------------------------------------------------

 ------------------------------
 CID_89352947_JID_1572_neutraal
 ------------------------------
 Symbolic Z-matrix:
 Charge =  0 Multiplicity = 1

 SCF Done:  E(RB3LYP) =  -896.633574705     A.U. after   14 cycles
 SCF Done:  E(RB3LYP) =  -896.638508519     A.U. after   13 cycles
 SCF Done:  E(RB3LYP) =  -896.638871050     A.U. after   12 cycles
 SCF Done:  E(RB3LYP) =  -896.639841934     A.U. after   14 cycles
 SCF Done:  E(RB3LYP) =  -896.640663400     A.U. after   12 cycles
 SCF Done:  E(RB3LYP) =  -896.641189969     A.U. after   13 cycles
 SCF Done:  E(RB3LYP) =  -896.641359784     A.U. after   12 cycles
 SCF Done:  E(RB3LYP) =  -896.641520111     A.U. after   11 cycles
 SCF Done:  E(RB3LYP) =  -896.641569370     A.U. after   11 cycles
 SCF Done:  E(RB3LYP) =  -896.641579602     A.U. after   11 cycles
 SCF Done:  E(RB3LYP) =  -896.641580366     A.U. after    8 cycles
 SCF Done:  E(RB3LYP) =  -896.641580724     A.U. after    8 cycles
 SCF Done:  E(RB3LYP) =  -896.641580756     A.U. after    7 cycles
 SCF Done:  E(RB3LYP) =  -896.641580779     A.U. after    7 cycles
 Optimization completed.
    -- Stationary point found.
 Normal termination of Gaussian 16 at Tue Dec  8 20:24:40 2020.

 --------------------------------------------------------------------
 #N Geom=AllCheck Guess=TCheck SCRF=Check GenChk RB3LYP/6-31G(d) Freq
 --------------------------------------------------------------------

 Structure from the checkpoint file:  "JID_1572.chk"
 ------------------------------
 CID_89352947_JID_1572_neutraal
 ------------------------------
 Charge =  0 Multiplicity = 1

 SCF Done:  E(RB3LYP) =  -896.641580779     A.U. after    1 cycles

  Exact polarizability: 116.845   3.844 113.802   0.295   4.580  63.875
 Approx polarizability: 150.303  11.773 200.072   1.664   9.957  99.133

                      1                      2                      3
                      A                      A                      A
 Frequencies --     40.9372                98.9708               109.4155
 Red. masses --      5.0743                 3.3447                 3.5681
 Frc consts  --      0.0050                 0.0193                 0.0252
 IR Inten    --      4.8181                 2.4043                 1.8989

                      4                      5                      6
                      A                      A                      A
 Frequencies --    131.1841               143.3463               150.4013
 Red. masses --      3.3133                 1.4539                 2.9846
 Frc consts  --      0.0336                 0.0176                 0.0398
 IR Inten    --      0.7127                 0.2676                 0.6419

                      7                      8                      9
                      A                      A                      A
 Frequencies --    158.8954               228.9421               291.1763
 Red. masses --      2.2957                 4.1552                 3.0908
 Frc consts  --      0.0342                 0.1283                 0.1544
 IR Inten    --      0.3590                 2.7834                 4.6036

                     10                     11                     12
                      A                      A                      A
 Frequencies --    293.1204               344.7786               396.1888
 Red. masses --      6.7539                 4.5713                 5.7149
 Frc consts  --      0.3419                 0.3202                 0.5285
 IR Inten    --      2.4803                 8.3011                 1.3835

                     13                     14                     15
                      A                      A                      A
 Frequencies --    454.6746               494.8864               525.8774
 Red. masses --      6.3587                 3.3398                 1.2636
 Frc consts  --      0.7745                 0.4819                 0.2059
 IR Inten    --     15.1066                 1.5458                73.7098

                     16                     17                     18
                      A                      A                      A
 Frequencies --    564.5694               644.7379               700.6922
 Red. masses --      3.7250                 5.0763                 3.6041
 Frc consts  --      0.6995                 1.2433                 1.0426
 IR Inten    --     13.5373                28.7879                 9.2377

                     19                     20                     21
                      A                      A                      A
 Frequencies --    777.6084               788.5380               839.6478
 Red. masses --     10.2587                 3.7272                 2.1535
 Frc consts  --      3.6548                 1.3654                 0.8945
 IR Inten    --     11.4902                 6.0503                 1.0405

                     22                     23                     24
                      A                      A                      A
 Frequencies --    905.7507               937.0082               999.3707
 Red. masses --      2.4345                 3.5079                 2.5845
 Frc consts  --      1.1767                 1.8146                 1.5208
 IR Inten    --     14.5780                36.3548                14.9692

                     25                     26                     27
                      A                      A                      A
 Frequencies --   1007.3972              1027.9839              1071.9437
 Red. masses --      1.9054                 2.1487                 5.5704
 Frc consts  --      1.1393                 1.3378                 3.7712
 IR Inten    --      5.7807                19.2290                48.8234

                     28                     29                     30
                      A                      A                      A
 Frequencies --   1090.9518              1155.3786              1173.2485
 Red. masses --      7.1552                 1.2341                 1.8396
 Frc consts  --      5.0175                 0.9706                 1.4919
 IR Inten    --    143.6056                27.6911               100.2965

                     31                     32                     33
                      A                      A                      A
 Frequencies --   1185.9848              1219.3106              1228.2530
 Red. masses --      1.2719                 1.4249                 1.4445
 Frc consts  --      1.0540                 1.2482                 1.2839
 IR Inten    --      1.2556                 8.1982                55.5206

                     34                     35                     36
                      A                      A                      A
 Frequencies --   1270.7504              1289.2126              1324.8001
 Red. masses --      1.3067                 3.5187                 1.2366
 Frc consts  --      1.2432                 3.4457                 1.2788
 IR Inten    --      8.5192               206.5456                13.9238

                     37                     38                     39
                      A                      A                      A
 Frequencies --   1374.0468              1398.0773              1454.9119
 Red. masses --      2.1849                 1.2683                 1.1905
 Frc consts  --      2.4304                 1.4606                 1.4848
 IR Inten    --     45.6577                11.1278                76.7098

                     40                     41                     42
                      A                      A                      A
 Frequencies --   1492.1094              1497.5144              1511.0348
 Red. masses --      1.1961                 1.0892                 1.0483
 Frc consts  --      1.5690                 1.4391                 1.4102
 IR Inten    --      9.9671                 3.5253                 7.2556

                     43                     44                     45
                      A                      A                      A
 Frequencies --   1519.2877              1525.3322              1529.2167
 Red. masses --      1.1007                 1.0509                 1.0810
 Frc consts  --      1.4969                 1.4406                 1.4894
 IR Inten    --      1.0875                13.0561                 1.4511

                     46                     47                     48
                      A                      A                      A
 Frequencies --   1664.2406              1803.3679              3013.8835
 Red. masses --      8.4895                11.8764                 1.0691
 Frc consts  --     13.8536                22.7563                 5.7217
 IR Inten    --     46.7961               259.7390                19.4928

                     49                     50                     51
                      A                      A                      A
 Frequencies --   3035.7972              3073.0710              3082.9103
 Red. masses --      1.0666                 1.0794                 1.0287
 Frc consts  --      5.7914                 6.0062                 5.7608
 IR Inten    --     44.0929                 7.0503                32.5549

                     52                     53                     54
                      A                      A                      A
 Frequencies --   3087.2574              3111.6374              3149.8640
 Red. masses --      1.0769                 1.0974                 1.1035
 Frc consts  --      6.0475                 6.2602                 6.4507
 IR Inten    --     36.6270                40.8232                 9.8977

                     55                     56                     57
                      A                      A                      A
 Frequencies --   3162.3371              3188.7158              3719.7398
 Red. masses --      1.1080                 1.1082                 1.0648
 Frc consts  --      6.5285                 6.6388                 8.6805
 IR Inten    --     15.2553                11.7317                50.0211

 - Thermochemistry -
 -------------------
 Temperature   298.150 Kelvin.  Pressure   1.00000 Atm.
 Atom     1 has atomic number  6 and mass  12.00000

 Molecular mass:   174.03507 amu.
 Principal axes and moments of inertia in atomic units:
                           1         2         3
     Eigenvalues --  1382.784762169.924453396.49565
           X            0.99917   0.04062   0.00182
           Y           -0.04064   0.99915   0.00698
           Z           -0.00154  -0.00705   0.99997
 This molecule is an asymmetric top.
 Rotational symmetry number  1.
 Warning -- assumption of classical behavior for rotation
           may cause significant error
 Rotational temperatures (Kelvin)      0.06264     0.03992     0.02550
 Rotational constants (GHZ):           1.30515     0.83171     0.53135
 Zero-point vibrational energy     439390.1 (Joules/Mol)
                                  105.01675 (Kcal/Mol)
 Warning -- explicit consideration of  16 degrees of freedom as
           vibrations may cause significant error
 Vibrational temperatures:     58.90   142.40   157.42   188.74   206.24
          (Kelvin)            216.39   228.61   329.40   418.94   421.73
                              496.06   570.03   654.18   712.03   756.62
                              812.29   927.63  1008.14  1118.81  1134.53
                             1208.07  1303.17  1348.15  1437.87  1449.42
                             1479.04  1542.29  1569.64  1662.33  1688.04
                             1706.37  1754.32  1767.18  1828.33  1854.89
                             1906.09  1976.95  2011.52  2093.29  2146.81
                             2154.59  2174.04  2185.92  2194.61  2200.20
                             2394.47  2594.64  4336.31  4367.83  4421.46
                             4435.62  4441.87  4476.95  4531.95  4549.90
                             4587.85  5351.88

 Zero-point correction=                           0.167355 (Hartree/Particle)
 Thermal correction to Energy=                    0.178946
 Thermal correction to Enthalpy=                  0.179890
 Thermal correction to Gibbs Free Energy=         0.129105
 Sum of electronic and zero-point Energies=           -896.474226
 Sum of electronic and thermal Energies=              -896.462635
 Sum of electronic and thermal Enthalpies=            -896.461691
 Sum of electronic and thermal Free Energies=         -896.512476

                     E (Thermal)             CV                S
                      KCal/Mol        Cal/Mol-Kelvin    Cal/Mol-Kelvin
 Total                  112.290             41.268            106.887
 Electronic               0.000              0.000              0.000
 Translational            0.889              2.981             41.370
 Rotational               0.889              2.981             30.700
 Vibrational            110.513             35.307             34.817
 Vibration     1          0.594              1.981              5.213
 Vibration     2          0.604              1.950              3.474
 Vibration     3          0.606              1.942              3.279
 Vibration     4          0.612              1.922              2.929
 Vibration     5          0.616              1.910              2.759
 Vibration     6          0.618              1.902              2.667
 Vibration     7          0.621              1.893              2.563
 Vibration     8          0.652              1.797              1.887
 Vibration     9          0.687              1.690              1.467
 Vibration    10          0.688              1.687              1.456
 Vibration    11          0.723              1.586              1.190
 Vibration    12          0.763              1.478              0.977
 Vibration    13          0.813              1.351              0.782
 Vibration    14          0.850              1.261              0.671
 Vibration    15          0.881              1.193              0.596
 Vibration    16          0.920              1.108              0.515

 Optimization completed.
    -- Stationary point found.
 Normal termination of Gaussian 16 at Tue Dec  8 20:28:31 2020.

 ----------------------------------------------------------------------
 # B3LYP/6-311++G(d,p) empiricaldispersion=gd3bj scf=xqc pop=npa geom=c
 heck
 ----------------------------------------------------------------------

 --------------------------------------
 CID_89352947_JID_1572_Energie_neutraal
 --------------------------------------
 Structure from the checkpoint file:  "JID_1572.chk"
 Charge =  0 Multiplicity = 1

 SCF Done:  E(RB3LYP) =  -896.822446010     A.U. after   16 cycles
 Normal termination of Gaussian 16 at Tue Dec  8 20:30:23 2020.

 ----------------------------------------------------------------------
 # B3LYP/6-311++G(d,p) empiricaldispersion=gd3bj scf=xqc pop=npa geom=c
 heck
 ----------------------------------------------------------------------

 ------------------------------------
 CID_89352947_JID_1572_Energie_kation
 ------------------------------------
 Structure from the checkpoint file:  "JID_1572.chk"
 Charge =  1 Multiplicity = 2

 SCF Done:  E(UB3LYP) =  -896.526945717     A.U. after   21 cycles
 Normal termination of Gaussian 16 at Tue Dec  8 20:33:04 2020.
 Gaussian 16:  ES64L-G16RevA.03 25-Dec-2016

 ----------------------------------------------------------------------
 # B3LYP/6-311++G(d,p) empiricaldispersion=gd3bj scf=xqc pop=npa geom=c
 heck
 ----------------------------------------------------------------------

 -----------------------------------
 CID_89352947_JID_1572_Energie_anion
 -----------------------------------
 Structure from the checkpoint file:  "JID_1572.chk"
 Charge = -1 Multiplicity = 2

                         Standard orientation:
 ---------------------------------------------------------------------
 Center     Atomic      Atomic             Coordinates (Angstroms)
 Number     Number       Type             X           Y           Z
 ---------------------------------------------------------------------
      1          6           0       -3.365730   -0.500052    0.122729
      2          8           0       -2.024261    0.022251    0.102336
      3          6           0       -1.041887   -0.922475    0.054614
      4          8           0       -1.281070   -2.109446   -0.011661
      5          6           0        0.317208   -0.347559    0.065280
      6          6           0        0.702904    0.937638    0.221949
      7          6           0        2.187674    1.132782    0.013629
      8          6           0        2.875973   -0.224834    0.214463
      9         16           0        1.633696   -1.513316   -0.242815
     10          6           0       -0.193196    2.138072    0.446081
     11          8           0       -0.922518    2.508594   -0.716296
     12          1           0       -4.015221    0.373641    0.174882
     13          1           0       -3.508255   -1.142039    0.994809
     14          1           0       -3.561722   -1.078326   -0.783103
     15          1           0        2.602644    1.890220    0.689016
     16          1           0        2.338688    1.506812   -1.011390
     17          1           0        3.766958   -0.348387   -0.403695
     18          1           0        3.151272   -0.371954    1.263362
     19          1           0       -0.864947    1.947414    1.293712
     20          1           0        0.425803    3.003413    0.699191
     21          1           0       -1.549243    1.779644   -0.859246
 ---------------------------------------------------------------------

 SCF Done:  E(UB3LYP) =  -896.827079530     A.U. after   31 cycles

 The electronic state is 2-A.
 Alpha  occ. eigenvalues --  -88.69702 -19.01382 -18.97066 -18.92741 -10.11301
 Alpha  occ. eigenvalues --  -10.09706 -10.07164 -10.06730 -10.04186 -10.02726
 Alpha  occ. eigenvalues --  -10.00281  -7.78285  -5.74677  -5.74312  -5.73674
 Alpha  occ. eigenvalues --   -0.94733  -0.87430  -0.85215  -0.70746  -0.61467
 Alpha  occ. eigenvalues --   -0.59480  -0.57466  -0.51852  -0.46429  -0.43675
 Alpha  occ. eigenvalues --   -0.39886  -0.36856  -0.34510  -0.33805  -0.33110
 Alpha  occ. eigenvalues --   -0.32047  -0.30005  -0.28668  -0.26447  -0.25627
 Alpha  occ. eigenvalues --   -0.24559  -0.23055  -0.22484  -0.21050  -0.20218
 Alpha  occ. eigenvalues --   -0.17771  -0.16461  -0.14575  -0.12980  -0.11442
 Alpha  occ. eigenvalues --   -0.06245   0.05554
 Alpha virt. eigenvalues --    0.08433   0.09052   0.10433   0.11309   0.11709
 Alpha virt. eigenvalues --    0.12361   0.12686   0.13421   0.14212   0.15216
 Alpha virt. eigenvalues --    0.15348   0.16413   0.17197   0.18154   0.18598

  Beta  occ. eigenvalues --  -88.69700 -19.01289 -18.96981 -18.92320 -10.10993
  Beta  occ. eigenvalues --  -10.09700 -10.07191 -10.06719 -10.04227 -10.02611
  Beta  occ. eigenvalues --   -9.99727  -7.78282  -5.74679  -5.74314  -5.73659
  Beta  occ. eigenvalues --   -0.94387  -0.87216  -0.84583  -0.70397  -0.61097
  Beta  occ. eigenvalues --   -0.58992  -0.57342  -0.51716  -0.46066  -0.43217
  Beta  occ. eigenvalues --   -0.39572  -0.36686  -0.34081  -0.33555  -0.32771
  Beta  occ. eigenvalues --   -0.31866  -0.29704  -0.28413  -0.26114  -0.24527
  Beta  occ. eigenvalues --   -0.24312  -0.22786  -0.22175  -0.20750  -0.20007
  Beta  occ. eigenvalues --   -0.17640  -0.15482  -0.13282  -0.12736  -0.11043
  Beta  occ. eigenvalues --   -0.04822
  Beta virt. eigenvalues --    0.08457   0.08955   0.10229   0.11268   0.11643
  Beta virt. eigenvalues --    0.12276   0.12669   0.12868   0.13370   0.14137
  Beta virt. eigenvalues --    0.15302   0.15426   0.16440   0.17117   0.18148

 Mulliken charges and spin densities:
               1          2
     1  C    0.013531  -0.236473
     2  O   -0.218427   0.027181
     3  C   -0.150728   0.333387
     4  O   -0.371853   0.138518
     5  C    0.936426  -0.141824
     6  C    0.018524   0.736764
     7  C   -0.198074  -0.026575
     8  C   -0.402378  -0.022680
     9  S   -0.715229   0.004751
    10  C   -0.619996  -0.410610
    11  O   -0.248949  -0.014549
    12  H   -0.082224   0.203333
    13  H    0.095172   0.068315
    14  H    0.128861   0.034683
    15  H    0.089185   0.008408
    16  H    0.097226   0.040062
    17  H    0.110787   0.029484
    18  H    0.175491   0.001621
    19  H    0.050582   0.112695
    20  H    0.108512   0.033207
    21  H    0.183562   0.080300
 Sum of Mulliken charges =  -1.00000   1.00000

 Dipole moment (field-independent basis, Debye):
    X=              1.4061    Y=              1.2354    Z=              1.0273  Tot=              2.1351
 Quadrupole moment (field-independent basis, Debye-Ang):
   XX=            -87.8834   YY=           -107.9191   ZZ=            -82.2835
   XY=              3.8573   XZ=              1.9249   YZ=              2.8456

 Summary of Natural Population Analysis:

                                       Natural Population
                Natural  -----------------------------------------------
    Atom  No    Charge         Core      Valence    Rydberg      Total
 -----------------------------------------------------------------------
      C    1   -0.10277      0.99960     2.09467    0.00849     3.10277
      O    2   -0.29379      0.99986     3.28451    0.00942     4.29379
      C    3    0.41960      0.99958     1.55371    0.02711     2.58040
      O    4   -0.28346      0.99987     3.27857    0.00502     4.28346
      C    5   -0.12109      0.99929     2.10727    0.01453     3.12109
      C    6    0.08374      0.99942     1.90433    0.01251     2.91626
      C    7   -0.20355      0.99961     2.19651    0.00743     3.20355
      C    8   -0.24083      0.99962     2.23377    0.00745     3.24083
      S    9    0.10358      4.99959     2.87640    0.02043     7.89642
      C   10   -0.02538      0.99954     2.00905    0.01679     3.02538
      O   11   -0.37640      0.99990     3.36906    0.00745     4.37640
      H   12    0.08344      0.00000     0.41521    0.00135     0.41656
      H   13    0.08796      0.00000     0.41048    0.00156     0.41204
      H   14    0.08684      0.00000     0.41167    0.00149     0.41316
      H   15    0.09514      0.00000     0.40346    0.00140     0.40486
      H   16    0.10326      0.00000     0.39530    0.00144     0.39674
      H   17    0.09287      0.00000     0.40436    0.00277     0.40713
      H   18    0.09027      0.00000     0.40836    0.00137     0.40973
      H   19    0.08604      0.00000     0.41246    0.00149     0.41396
      H   20    0.07869      0.00000     0.42017    0.00115     0.42131
      H   21    0.23586      0.00000     0.26066    0.00348     0.26414
 =======================================================================
   * Total *   -0.00000     14.99589    30.84998    0.15413    46.00000

 Normal termination of Gaussian 16 at Tue Dec  8 20:38:02 2020.
