 Gaussian 16, Revision A.03,

 -----------------------------------------------------------
 # opt freq B3LYP/6-31G(d) empiricaldispersion=gd3bj scf=xqc
 -----------------------------------------------------------

 -------------------------------
 CID_153776731_JID_7708_neutraal
 -------------------------------
 Symbolic Z-matrix:
 Charge =  0 Multiplicity = 1

 SCF Done:  E(RB3LYP) =  -1198.03318952     A.U. after   18 cycles
 SCF Done:  E(RB3LYP) =  -1198.04125471     A.U. after   15 cycles
 SCF Done:  E(RB3LYP) =  -1198.04466389     A.U. after   15 cycles
 SCF Done:  E(RB3LYP) =  -1198.04635849     A.U. after   16 cycles
 SCF Done:  E(RB3LYP) =  -1198.04694303     A.U. after   13 cycles
 SCF Done:  E(RB3LYP) =  -1198.04742306     A.U. after   13 cycles
 SCF Done:  E(RB3LYP) =  -1198.04748240     A.U. after   12 cycles
 SCF Done:  E(RB3LYP) =  -1198.04753287     A.U. after   11 cycles
 SCF Done:  E(RB3LYP) =  -1198.04753911     A.U. after   10 cycles
 SCF Done:  E(RB3LYP) =  -1198.04754271     A.U. after    9 cycles
 SCF Done:  E(RB3LYP) =  -1198.04754430     A.U. after    8 cycles
 SCF Done:  E(RB3LYP) =  -1198.04754466     A.U. after    9 cycles
 SCF Done:  E(RB3LYP) =  -1198.04754487     A.U. after    8 cycles
 SCF Done:  E(RB3LYP) =  -1198.04754500     A.U. after    8 cycles
 SCF Done:  E(RB3LYP) =  -1198.04754503     A.U. after    7 cycles
 Optimization completed.
    -- Stationary point found.
 Normal termination of Gaussian 16 at Fri Dec 11 13:15:29 2020.

 --------------------------------------------------------------------
 #N Geom=AllCheck Guess=TCheck SCRF=Check GenChk RB3LYP/6-31G(d) Freq
 --------------------------------------------------------------------

 Structure from the checkpoint file:  "JID_7708.chk"
 -------------------------------
 CID_153776731_JID_7708_neutraal
 -------------------------------
 Charge =  0 Multiplicity = 1

 SCF Done:  E(RB3LYP) =  -1198.04754503     A.U. after    1 cycles

  Exact polarizability: 154.230  11.661 175.017   0.023  -4.652 100.485
 Approx polarizability: 223.354  28.940 274.277  -3.773 -13.650 172.645

                      1                      2                      3
                      A                      A                      A
 Frequencies --     47.1755                54.3816                78.2244
 Red. masses --      7.7407                 8.2615                 5.1005
 Frc consts  --      0.0101                 0.0144                 0.0184
 IR Inten    --      0.4121                 3.1799                 3.1298

                      4                      5                      6
                      A                      A                      A
 Frequencies --     82.4676               113.5242               148.0003
 Red. masses --      3.3456                10.8559                 5.2507
 Frc consts  --      0.0134                 0.0824                 0.0678
 IR Inten    --      0.3106                 0.9417                 5.4129

                      7                      8                      9
                      A                      A                      A
 Frequencies --    163.4288               175.0731               210.3998
 Red. masses --      2.8660                 2.1759                 2.8372
 Frc consts  --      0.0451                 0.0393                 0.0740
 IR Inten    --      0.5430                56.2569                13.1754

                     10                     11                     12
                      A                      A                      A
 Frequencies --    243.7112               249.2843               260.7077
 Red. masses --      4.1585                 4.0474                 3.9213
 Frc consts  --      0.1455                 0.1482                 0.1570
 IR Inten    --      0.1594                17.4386                 4.1328

                     13                     14                     15
                      A                      A                      A
 Frequencies --    297.6295               311.7490               320.4807
 Red. masses --      6.6921                 2.8101                 2.0100
 Frc consts  --      0.3493                 0.1609                 0.1216
 IR Inten    --      5.6077                 6.1679                 6.9211

                     16                     17                     18
                      A                      A                      A
 Frequencies --    342.7392               395.3727               429.7353
 Red. masses --      4.9630                 5.7226                 4.5944
 Frc consts  --      0.3435                 0.5271                 0.4999
 IR Inten    --      0.8937                 3.4176                 7.4618

                     19                     20                     21
                      A                      A                      A
 Frequencies --    437.6161               452.8998               468.5280
 Red. masses --      3.5269                 5.4863                 5.0582
 Frc consts  --      0.3979                 0.6630                 0.6542
 IR Inten    --     12.8375                 2.3219                10.7466

                     22                     23                     24
                      A                      A                      A
 Frequencies --    496.9344               533.6533               542.1714
 Red. masses --      3.9515                 2.3870                 4.0110
 Frc consts  --      0.5749                 0.4005                 0.6947
 IR Inten    --     17.7772                 0.5841                 3.1155

                     25                     26                     27
                      A                      A                      A
 Frequencies --    556.1647               576.3863               643.1597
 Red. masses --      7.7368                 7.1925                 3.9712
 Frc consts  --      1.4100                 1.4079                 0.9679
 IR Inten    --     53.5739                42.8459                13.3517

                     28                     29                     30
                      A                      A                      A
 Frequencies --    700.9761               732.8057               787.9485
 Red. masses --      6.6991                 6.0484                 2.8054
 Frc consts  --      1.9394                 1.9137                 1.0262
 IR Inten    --      8.9543                60.4958                11.1554

                     31                     32                     33
                      A                      A                      A
 Frequencies --    816.0424               845.1754               865.3664
 Red. masses --      2.6464                 4.0264                 1.8391
 Frc consts  --      1.0383                 1.6946                 0.8114
 IR Inten    --     38.6288                55.6881                 1.1155

                     34                     35                     36
                      A                      A                      A
 Frequencies --    881.2467               907.4899               941.2190
 Red. masses --      2.3272                 1.6654                 2.1096
 Frc consts  --      1.0648                 0.8081                 1.1011
 IR Inten    --     27.7533                 2.4599                 6.4186

                     37                     38                     39
                      A                      A                      A
 Frequencies --    971.8776               976.0181              1049.5771
 Red. masses --      2.3948                 1.8950                 2.8225
 Frc consts  --      1.3327                 1.0636                 1.8320
 IR Inten    --      1.4711                 2.1537                12.1327

                     40                     41                     42
                      A                      A                      A
 Frequencies --   1068.8510              1088.7296              1098.3529
 Red. masses --      1.7766                 2.1021                 2.5324
 Frc consts  --      1.1959                 1.4680                 1.8000
 IR Inten    --      7.3794                12.5107                13.9331

                     43                     44                     45
                      A                      A                      A
 Frequencies --   1104.0164              1116.7966              1117.9768
 Red. masses --      1.7106                 3.0474                 2.7059
 Frc consts  --      1.2284                 2.2394                 1.9926
 IR Inten    --      4.4751                60.6506                 4.6301

                     46                     47                     48
                      A                      A                      A
 Frequencies --   1138.5654              1168.2906              1181.0093
 Red. masses --      1.9219                 1.8668                 1.8695
 Frc consts  --      1.4679                 1.5013                 1.5363
 IR Inten    --      2.9959                14.6824               154.8599

                     49                     50                     51
                      A                      A                      A
 Frequencies --   1213.7292              1243.8367              1264.2706
 Red. masses --      1.4016                 1.3947                 1.4826
 Frc consts  --      1.2166                 1.2713                 1.3962
 IR Inten    --      6.9055                 2.8110                46.7077

                     52                     53                     54
                      A                      A                      A
 Frequencies --   1272.9451              1291.8987              1310.8939
 Red. masses --      1.3874                 1.6516                 1.4719
 Frc consts  --      1.3246                 1.6241                 1.4902
 IR Inten    --      8.5913                40.8694                31.0946

                     55                     56                     57
                      A                      A                      A
 Frequencies --   1314.9155              1327.9029              1348.9823
 Red. masses --      2.4316                 1.6330                 2.4805
 Frc consts  --      2.4771                 1.6965                 2.6595
 IR Inten    --      2.1042                 0.8204               204.6222

                     58                     59                     60
                      A                      A                      A
 Frequencies --   1352.8342              1354.7604              1378.6195
 Red. masses --      1.4610                 2.4261                 1.4136
 Frc consts  --      1.5754                 2.6235                 1.5829
 IR Inten    --     90.9956                 4.8535                 9.9294

                     61                     62                     63
                      A                      A                      A
 Frequencies --   1382.4424              1389.7921              1399.0826
 Red. masses --      1.3268                 1.4067                 1.4183
 Frc consts  --      1.4940                 1.6009                 1.6357
 IR Inten    --      1.0406                12.3128                 2.0056

                     64                     65                     66
                      A                      A                      A
 Frequencies --   1407.0932              1407.8090              1423.1029
 Red. masses --      1.7318                 1.5360                 1.5056
 Frc consts  --      2.0202                 1.7936                 1.7966
 IR Inten    --    110.0423                38.8803                 1.7957

                     67                     68                     69
                      A                      A                      A
 Frequencies --   1509.3757              1516.0003              1519.0827
 Red. masses --      1.0940                 1.0905                 1.0824
 Frc consts  --      1.4685                 1.4767                 1.4716
 IR Inten    --      4.6874                 2.9330                 9.7909

                     70                     71                     72
                      A                      A                      A
 Frequencies --   1527.6560              1532.2417              1739.0221
 Red. masses --      1.0857                 1.0992                12.9917
 Frc consts  --      1.4929                 1.5205                23.1487
 IR Inten    --     11.5098                 0.7034               188.4543

                     73                     74                     75
                      A                      A                      A
 Frequencies --   2234.5708              2986.6731              3025.7712
 Red. masses --     13.7668                 1.0802                 1.0711
 Frc consts  --     40.5014                 5.6769                 5.7779
 IR Inten    --    551.7601                 7.0649                15.2374

                     76                     77                     78
                      A                      A                      A
 Frequencies --   3029.8372              3034.4925              3037.6008
 Red. masses --      1.0683                 1.0758                 1.0697
 Frc consts  --      5.7782                 5.8364                 5.8153
 IR Inten    --     15.5596                 8.6084                10.6866

                     79                     80                     81
                      A                      A                      A
 Frequencies --   3041.3953              3049.5591              3075.4284
 Red. masses --      1.0694                 1.0728                 1.0835
 Frc consts  --      5.8280                 5.8784                 6.0381
 IR Inten    --     19.4605                39.8867                 6.4772

                     82                     83                     84
                      A                      A                      A
 Frequencies --   3082.7083              3086.5193              3118.7947
 Red. masses --      1.0945                 1.1000                 1.0949
 Frc consts  --      6.1280                 6.1743                 6.2748
 IR Inten    --     59.4359                55.2990                 4.7381

                     85                     86                     87
                      A                      A                      A
 Frequencies --   3127.3923              3136.5633              3694.0621
 Red. masses --      1.0934                 1.0928                 1.0659
 Frc consts  --      6.3008                 6.3344                 8.5700
 IR Inten    --     13.8702                13.6502               125.8942

 - Thermochemistry -
 -------------------
 Temperature   298.150 Kelvin.  Pressure   1.00000 Atm.
 Atom     1 has atomic number  6 and mass  12.00000

 Molecular mass:   258.06743 amu.
 Principal axes and moments of inertia in atomic units:
                           1         2         3
     Eigenvalues --  3574.480464606.340817630.66988
           X            0.99733  -0.07285   0.00450
           Y            0.07285   0.99734   0.00015
           Z           -0.00450   0.00017   0.99999
 This molecule is an asymmetric top.
 Rotational symmetry number  1.
 Warning -- assumption of classical behavior for rotation
           may cause significant error
 Rotational temperatures (Kelvin)      0.02423     0.01880     0.01135
 Rotational constants (GHZ):           0.50490     0.39179     0.23651
 Zero-point vibrational energy     648253.9 (Joules/Mol)
                                  154.93640 (Kcal/Mol)
 Warning -- explicit consideration of  26 degrees of freedom as
           vibrations may cause significant error
 Vibrational temperatures:     67.88    78.24   112.55   118.65   163.34
          (Kelvin)            212.94   235.14   251.89   302.72   350.65
                              358.66   375.10   428.22   448.54   461.10
                              493.13   568.85   618.29   629.63   651.62
                              674.11   714.98   767.81   780.06   800.20
                              829.29   925.36  1008.55  1054.34  1133.68
                             1174.10  1216.02  1245.07  1267.92  1305.68
                             1354.20  1398.32  1404.27  1510.11  1537.84
                             1566.44  1580.28  1588.43  1606.82  1608.52
                             1638.14  1680.91  1699.21  1746.29  1789.60
                             1819.00  1831.48  1858.75  1886.08  1891.87
                             1910.56  1940.88  1946.43  1949.20  1983.53
                             1989.03  1999.60  2012.97  2024.49  2025.52
                             2047.53  2171.66  2181.19  2185.62  2197.96
                             2204.55  2502.06  3215.05  4297.16  4353.41
                             4359.26  4365.96  4370.43  4375.89  4387.64
                             4424.86  4435.33  4440.81  4487.25  4499.62
                             4512.81  5314.93

 Zero-point correction=                           0.246907 (Hartree/Particle)
 Thermal correction to Energy=                    0.262795
 Thermal correction to Enthalpy=                  0.263740
 Thermal correction to Gibbs Free Energy=         0.203484
 Sum of electronic and zero-point Energies=          -1197.800638
 Sum of electronic and thermal Energies=             -1197.784750
 Sum of electronic and thermal Enthalpies=           -1197.783806
 Sum of electronic and thermal Free Energies=        -1197.844061

                     E (Thermal)             CV                S
                      KCal/Mol        Cal/Mol-Kelvin    Cal/Mol-Kelvin
 Total                  164.907             60.571            126.819
 Electronic               0.000              0.000              0.000
 Translational            0.889              2.981             42.544
 Rotational               0.889              2.981             33.196
 Vibrational            163.129             54.609             51.079
 Vibration     1          0.595              1.979              4.932
 Vibration     2          0.596              1.976              4.651
 Vibration     3          0.600              1.964              3.935
 Vibration     4          0.600              1.961              3.831
 Vibration     5          0.607              1.938              3.208
 Vibration     6          0.617              1.905              2.698
 Vibration     7          0.623              1.887              2.510
 Vibration     8          0.627              1.873              2.380
 Vibration     9          0.643              1.825              2.040
 Vibration    10          0.659              1.773              1.776
 Vibration    11          0.662              1.764              1.736
 Vibration    12          0.669              1.745              1.657
 Vibration    13          0.691              1.678              1.430
 Vibration    14          0.700              1.651              1.353
 Vibration    15          0.706              1.634              1.308
 Vibration    16          0.722              1.590              1.199
 Vibration    17          0.762              1.480              0.980
 Vibration    18          0.791              1.405              0.860
 Vibration    19          0.798              1.388              0.834
 Vibration    20          0.811              1.354              0.787
 Vibration    21          0.826              1.320              0.742
 Vibration    22          0.852              1.257              0.666
 Vibration    23          0.889              1.176              0.579
 Vibration    24          0.897              1.157              0.561
 Vibration    25          0.912              1.126              0.532
 Vibration    26          0.933              1.082              0.492

 Optimization completed.
    -- Stationary point found.
 Normal termination of Gaussian 16 at Fri Dec 11 13:28:45 2020.

 ----------------------------------------------------------------------
 # B3LYP/6-311++G(d,p) empiricaldispersion=gd3bj scf=xqc pop=npa geom=c
 heck
 ----------------------------------------------------------------------

 ---------------------------------------
 CID_153776731_JID_7708_Energie_neutraal
 ---------------------------------------
 Structure from the checkpoint file:  "JID_7708.chk"
 Charge =  0 Multiplicity = 1

 SCF Done:  E(RB3LYP) =  -1198.30500568     A.U. after   20 cycles
 Normal termination of Gaussian 16 at Fri Dec 11 13:37:05 2020.

 ----------------------------------------------------------------------
 # B3LYP/6-311++G(d,p) empiricaldispersion=gd3bj scf=xqc pop=npa geom=c
 heck
 ----------------------------------------------------------------------

 -------------------------------------
 CID_153776731_JID_7708_Energie_kation
 -------------------------------------
 Structure from the checkpoint file:  "JID_7708.chk"
 Charge =  1 Multiplicity = 2

 SCF Done:  E(UB3LYP) =  -1197.97753916     A.U. after   30 cycles
 Normal termination of Gaussian 16 at Fri Dec 11 13:54:29 2020.
 Gaussian 16:  ES64L-G16RevA.03 25-Dec-2016

 ----------------------------------------------------------------------
 # B3LYP/6-311++G(d,p) empiricaldispersion=gd3bj scf=xqc pop=npa geom=c
 heck
 ----------------------------------------------------------------------

 ------------------------------------
 CID_153776731_JID_7708_Energie_anion
 ------------------------------------
 Structure from the checkpoint file:  "JID_7708.chk"
 Charge = -1 Multiplicity = 2

                         Standard orientation:
 ---------------------------------------------------------------------
 Center     Atomic      Atomic             Coordinates (Angstroms)
 Number     Number       Type             X           Y           Z
 ---------------------------------------------------------------------
      1          6           0        0.105915    3.340415    0.408415
      2          6           0       -1.342428    3.440823   -0.079807
      3          6           0       -2.111429    2.153590    0.224218
      4          6           0       -1.395710    0.929601   -0.368375
      5          6           0        0.056427    0.815395    0.154845
      6          6           0        0.822284    2.111576   -0.165689
      7          6           0        0.666557   -0.478591   -0.417775
      8          6           0       -0.017987   -1.722187    0.160399
      9          6           0       -1.514511   -1.575653    0.016006
     10          7           0       -2.256523   -2.653365    0.114307
     11          7           0       -2.939098   -3.558846    0.187279
     12          6           0       -2.249231   -0.326849   -0.180992
     13          8           0       -3.472777   -0.286997   -0.232838
     14         16           0        2.464628   -0.657282   -0.163087
     15          8           0        2.837521   -2.073088   -0.222383
     16          8           0        3.175436    0.322618   -0.973009
     17          8           0        2.556123   -0.217987    1.429292
     18          1           0        0.666005    4.244614    0.143254
     19          1           0        0.113740    3.278063    1.506225
     20          1           0       -1.845065    4.297551    0.384407
     21          1           0       -1.349961    3.620443   -1.164568
     22          1           0       -2.198622    2.019745    1.311612
     23          1           0       -3.130071    2.187393   -0.169770
     24          1           0       -1.335499    1.074575   -1.460513
     25          1           0        0.022317    0.700055    1.247209
     26          1           0        0.919906    2.210097   -1.255584
     27          1           0        1.838173    2.063120    0.230876
     28          1           0        0.591740   -0.472055   -1.512313
     29          1           0        0.267484   -1.817150    1.216923
     30          1           0        0.342337   -2.618259   -0.351412
     31          1           0        3.143060   -0.871290    1.855990
 ---------------------------------------------------------------------

 SCF Done:  E(UB3LYP) =  -1198.31435978     A.U. after   33 cycles
 SCF Done:  E(UB3LYP) =  -1198.31435979     a.u. after    2 cycles

 The electronic state is 2-A.
 Alpha  occ. eigenvalues --  -88.97700 -19.07349 -19.03076 -19.02989 -18.94792
 Alpha  occ. eigenvalues --  -14.30010 -14.25076 -10.12592 -10.10550 -10.09197
 Alpha  occ. eigenvalues --  -10.09153 -10.08804 -10.07628 -10.07409 -10.07256
 Alpha  occ. eigenvalues --  -10.07107 -10.06266  -8.03894  -6.00289  -6.00088
 Alpha  occ. eigenvalues --   -5.99882  -1.05022  -0.97880  -0.94220  -0.92269
 Alpha  occ. eigenvalues --   -0.88989  -0.76708  -0.73508  -0.70427  -0.65507
 Alpha  occ. eigenvalues --   -0.64127  -0.59467  -0.54567  -0.53544  -0.50462
 Alpha  occ. eigenvalues --   -0.48177  -0.46534  -0.43590  -0.42050  -0.39526
 Alpha  occ. eigenvalues --   -0.39109  -0.37222  -0.36626  -0.35893  -0.35016
 Alpha  occ. eigenvalues --   -0.34906  -0.34199  -0.33356  -0.32134  -0.31928
 Alpha  occ. eigenvalues --   -0.29785  -0.29229  -0.28843  -0.27623  -0.27532
 Alpha  occ. eigenvalues --   -0.26466  -0.26319  -0.25513  -0.24869  -0.23802
 Alpha  occ. eigenvalues --   -0.23019  -0.22952  -0.22315  -0.21400  -0.21130
 Alpha  occ. eigenvalues --   -0.19708  -0.11581  -0.10226   0.04008
 Alpha virt. eigenvalues --    0.05846   0.07078   0.07642   0.08434   0.09364
 Alpha virt. eigenvalues --    0.09892   0.10776   0.11037   0.11948   0.12269
 Alpha virt. eigenvalues --    0.12702   0.13144   0.13697   0.13922   0.14497

  Beta  occ. eigenvalues --  -88.97682 -19.07257 -19.03055 -19.02965 -18.94533
  Beta  occ. eigenvalues --  -14.29563 -14.24597 -10.12566 -10.10277 -10.09187
  Beta  occ. eigenvalues --  -10.09152 -10.08961 -10.07626 -10.07409 -10.07283
  Beta  occ. eigenvalues --  -10.07105 -10.06245  -8.03872  -6.00261  -6.00074
  Beta  occ. eigenvalues --   -5.99866  -1.04925  -0.97080  -0.94040  -0.92210
  Beta  occ. eigenvalues --   -0.88492  -0.76629  -0.73356  -0.70233  -0.65413
  Beta  occ. eigenvalues --   -0.64083  -0.59280  -0.54276  -0.53462  -0.50382
  Beta  occ. eigenvalues --   -0.47941  -0.46411  -0.43523  -0.41976  -0.39430
  Beta  occ. eigenvalues --   -0.39025  -0.36941  -0.36144  -0.35404  -0.34778
  Beta  occ. eigenvalues --   -0.34411  -0.33807  -0.32919  -0.31939  -0.31237
  Beta  occ. eigenvalues --   -0.29474  -0.29073  -0.28633  -0.27505  -0.27393
  Beta  occ. eigenvalues --   -0.26259  -0.26005  -0.25428  -0.24845  -0.23586
  Beta  occ. eigenvalues --   -0.22952  -0.22839  -0.21995  -0.21165  -0.20704
  Beta  occ. eigenvalues --   -0.19652  -0.11389  -0.08954
  Beta virt. eigenvalues --    0.06824   0.07447   0.08156   0.08329   0.09197
  Beta virt. eigenvalues --    0.09920   0.10202   0.10865   0.11147   0.11922
  Beta virt. eigenvalues --    0.12195   0.12684   0.13373   0.13744   0.13875

 Mulliken charges and spin densities:
               1          2
     1  C   -0.481382  -0.036461
     2  C   -0.296969  -0.019578
     3  C   -0.374173  -0.031627
     4  C    0.947389   0.063235
     5  C    0.474879  -0.362355
     6  C   -0.588332   0.055929
     7  C   -0.760480   0.862936
     8  C   -0.354446  -0.317266
     9  C   -0.289704   0.099282
    10  N    0.614221   0.106809
    11  N   -0.489112   0.299331
    12  C   -1.474754   0.111346
    13  O   -0.362506   0.095180
    14  S    1.084228  -0.976555
    15  O   -0.129587   0.022197
    16  O   -0.133729   0.020337
    17  O   -0.151649  -0.015922
    18  H    0.151462   0.010561
    19  H    0.093230   0.026754
    20  H    0.160112   0.001076
    21  H    0.101478   0.000562
    22  H    0.158387   0.000179
    23  H    0.190520   0.004957
    24  H    0.191453   0.028755
    25  H    0.260782  -0.000287
    26  H    0.185256  -0.001138
    27  H    0.116021   0.073644
    28  H    0.258707   0.014415
    29  H    0.137055   0.111153
    30  H    0.165634   0.041778
    31  H   -0.403991   0.710774
 Sum of Mulliken charges =  -1.00000   1.00000

 Dipole moment (field-independent basis, Debye):
    X=              1.2463    Y=              5.4640    Z=             -1.5857  Tot=              5.8243
 Quadrupole moment (field-independent basis, Debye-Ang):
   XX=           -184.1174   YY=           -140.6138   ZZ=           -124.1852
   XY=             -8.7885   XZ=             -5.5897   YZ=              2.6026

 Summary of Natural Population Analysis:

                                       Natural Population
                Natural  -----------------------------------------------
    Atom  No    Charge         Core      Valence    Rydberg      Total
 -----------------------------------------------------------------------
      C    1   -0.18637      0.99963     2.18046    0.00627     3.18637
      C    2   -0.18764      0.99963     2.18173    0.00628     3.18764
      C    3   -0.18420      0.99962     2.17639    0.00820     3.18420
      C    4   -0.14106      0.99955     2.12841    0.01310     3.14106
      C    5   -0.11748      0.99956     2.10513    0.01279     3.11748
      C    6   -0.19408      0.99961     2.18386    0.01061     3.19408
      C    7   -0.18430      0.99951     2.16898    0.01582     3.18430
      C    8   -0.19775      0.99958     2.18665    0.01152     3.19775
      C    9   -0.10078      0.99948     2.08826    0.01304     3.10078
      N   10    0.09018      0.99964     2.39170    0.01848     3.40982
      N   11    0.06213      0.99982     2.42416    0.01389     3.43787
      C   12    0.29328      0.99958     1.68718    0.01996     2.70672
      O   13   -0.30182      0.99988     3.29539    0.00655     4.30182
      S   14    1.12612      4.99930     1.77372    0.10085     6.87388
      O   15   -0.45930      0.99991     3.45349    0.00591     4.45930
      O   16   -0.45150      0.99990     3.44588    0.00571     4.45150
      O   17   -0.44036      0.99992     3.43351    0.00693     4.44036
      H   18    0.09489      0.00000     0.40388    0.00123     0.40511
      H   19    0.09339      0.00000     0.40534    0.00127     0.40661
      H   20    0.09354      0.00000     0.40540    0.00106     0.40646
      H   21    0.09106      0.00000     0.40781    0.00113     0.40894
      H   22    0.09407      0.00000     0.40488    0.00104     0.40593
      H   23    0.11248      0.00000     0.38641    0.00111     0.38752
      H   24    0.10331      0.00000     0.39548    0.00120     0.39669
      H   25    0.10424      0.00000     0.39382    0.00193     0.39576
      H   26    0.09508      0.00000     0.40386    0.00106     0.40492
      H   27    0.11027      0.00000     0.38847    0.00126     0.38973
      H   28    0.11534      0.00000     0.38346    0.00120     0.38466
      H   29    0.10274      0.00000     0.39593    0.00132     0.39726
      H   30    0.11116      0.00000     0.38770    0.00114     0.38884
      H   31    0.25333      0.00000     0.22233    0.02435     0.24667
 =======================================================================
   * Total *    0.00000     20.99412    46.68968    0.31620    68.00000

 Normal termination of Gaussian 16 at Fri Dec 11 14:31:12 2020.
