 Gaussian 16, Revision A.03,

 -----------------------------------------------------------
 # opt freq B3LYP/6-31G(d) empiricaldispersion=gd3bj scf=xqc
 -----------------------------------------------------------

 ------------------------------
 CID_21938839_JID_4874_neutraal
 ------------------------------
 Symbolic Z-matrix:
 Charge =  0 Multiplicity = 1

 SCF Done:  E(RB3LYP) =  -692.845694894     A.U. after   14 cycles
 SCF Done:  E(RB3LYP) =  -692.850342071     A.U. after   14 cycles
 SCF Done:  E(RB3LYP) =  -692.848060304     A.U. after   15 cycles
 SCF Done:  E(RB3LYP) =  -692.843319396     A.U. after   15 cycles
 SCF Done:  E(RB3LYP) =  -692.848841575     A.U. after   14 cycles
 SCF Done:  E(RB3LYP) =  -692.851413797     A.U. after   12 cycles
 SCF Done:  E(RB3LYP) =  -692.853452051     A.U. after   15 cycles
 SCF Done:  E(RB3LYP) =  -692.771797086     A.U. after   15 cycles
 SCF Done:  E(RB3LYP) =  -692.852766919     A.U. after   13 cycles
 SCF Done:  E(RB3LYP) =  -692.854071468     A.U. after   11 cycles
 SCF Done:  E(RB3LYP) =  -692.868131199     A.U. after    7 cycles
 SCF Done:  E(RB3LYP) =  -692.868131247     A.U. after    7 cycles
 SCF Done:  E(RB3LYP) =  -692.868131300     A.U. after    7 cycles
 SCF Done:  E(RB3LYP) =  -692.868131346     A.U. after    7 cycles
 SCF Done:  E(RB3LYP) =  -692.868131383     A.U. after    6 cycles
 Optimization completed.
    -- Stationary point found.
 Normal termination of Gaussian 16 at Thu Dec 10 11:43:18 2020.

 --------------------------------------------------------------------
 #N Geom=AllCheck Guess=TCheck SCRF=Check GenChk RB3LYP/6-31G(d) Freq
 --------------------------------------------------------------------

 Structure from the checkpoint file:  "JID_4874.chk"
 ------------------------------
 CID_21938839_JID_4874_neutraal
 ------------------------------
 Charge =  0 Multiplicity = 1

 SCF Done:  E(RB3LYP) =  -692.868131383     A.U. after    1 cycles

  Exact polarizability: 144.889   0.531 113.313  11.466  11.593  99.934
 Approx polarizability: 189.494  10.771 162.052  29.132  24.640 150.383

                      1                      2                      3
                      A                      A                      A
 Frequencies --     15.2631                32.9534                39.6723
 Red. masses --      4.3852                 3.7011                 3.7592
 Frc consts  --      0.0006                 0.0024                 0.0035
 IR Inten    --      0.6211                 0.3089                 0.3757

                      4                      5                      6
                      A                      A                      A
 Frequencies --     53.3558                67.1042                71.0858
 Red. masses --      3.6312                 4.2170                 4.1625
 Frc consts  --      0.0061                 0.0112                 0.0124
 IR Inten    --      1.3875                 1.7376                 3.4195

                      7                      8                      9
                      A                      A                      A
 Frequencies --     91.2404               100.6334               108.9826
 Red. masses --      2.7342                 3.3350                 2.8599
 Frc consts  --      0.0134                 0.0199                 0.0200
 IR Inten    --      1.7888                 0.5630                 0.7831

                     10                     11                     12
                      A                      A                      A
 Frequencies --    120.8631               126.9244               127.8919
 Red. masses --      2.1808                 1.8560                 2.5848
 Frc consts  --      0.0188                 0.0176                 0.0249
 IR Inten    --      2.4110                 4.4288                 0.1704

                     13                     14                     15
                      A                      A                      A
 Frequencies --    136.5956               141.3499               160.9335
 Red. masses --      1.8197                 2.8959                 4.6564
 Frc consts  --      0.0200                 0.0341                 0.0711
 IR Inten    --      4.1683                15.0346                12.0275

                     16                     17                     18
                      A                      A                      A
 Frequencies --    170.3053               172.2967               177.3122
 Red. masses --      1.1057                 1.0833                 1.0707
 Frc consts  --      0.0189                 0.0189                 0.0198
 IR Inten    --      0.5600                 0.0842                 0.8837

                     19                     20                     21
                      A                      A                      A
 Frequencies --    296.6752               372.5064               385.6093
 Red. masses --      4.0252                 3.4436                 2.2236
 Frc consts  --      0.2087                 0.2815                 0.1948
 IR Inten    --     17.4585                 0.1061                 2.2576

                     22                     23                     24
                      A                      A                      A
 Frequencies --    392.3969               402.2932               484.7436
 Red. masses --      2.4200                 2.4721                 2.0961
 Frc consts  --      0.2195                 0.2357                 0.2902
 IR Inten    --      1.1352                 6.4380                 1.7001

                     25                     26                     27
                      A                      A                      A
 Frequencies --    487.6593               536.3476               536.8297
 Red. masses --      2.1075                 3.8432                 4.3633
 Frc consts  --      0.2953                 0.6514                 0.7409
 IR Inten    --      0.7981                17.8703                 1.3877

                     28                     29                     30
                      A                      A                      A
 Frequencies --    558.7926               597.0400               655.6426
 Red. masses --      3.9076                 4.3100                 1.3537
 Frc consts  --      0.7189                 0.9052                 0.3428
 IR Inten    --     19.5389                12.7590                 7.2348

                     31                     32                     33
                      A                      A                      A
 Frequencies --    795.4573               804.6010               812.2867
 Red. masses --      3.3987                 3.2356                 4.4590
 Frc consts  --      1.2671                 1.2342                 1.7334
 IR Inten    --      1.9516                 1.3476                24.2138

                     34                     35                     36
                      A                      A                      A
 Frequencies --    832.6156               906.5716               907.9180
 Red. masses --      2.4011                 1.2350                 1.2542
 Frc consts  --      0.9807                 0.5980                 0.6091
 IR Inten    --      1.8236                 2.0298                 7.2365

                     37                     38                     39
                      A                      A                      A
 Frequencies --    924.2581               948.4430               958.0615
 Red. masses --      1.5393                 1.5179                 1.1021
 Frc consts  --      0.7747                 0.8045                 0.5960
 IR Inten    --      3.7160                 2.9682                77.3419

                     40                     41                     42
                      A                      A                      A
 Frequencies --    968.5392               976.5579              1036.0147
 Red. masses --      1.8581                 1.3340                 1.3842
 Frc consts  --      1.0270                 0.7496                 0.8754
 IR Inten    --      9.0415                45.8922                 9.7432

                     43                     44                     45
                      A                      A                      A
 Frequencies --   1087.1080              1102.6386              1108.7258
 Red. masses --      1.4672                 1.5495                 1.5448
 Frc consts  --      1.0216                 1.1100                 1.1189
 IR Inten    --      1.0583                 0.1132                 1.1528

                     46                     47                     48
                      A                      A                      A
 Frequencies --   1134.0967              1135.7172              1231.4368
 Red. masses --      1.9252                 1.9202                 3.3730
 Frc consts  --      1.4589                 1.4593                 3.0136
 IR Inten    --     21.7646                20.2105               149.3637

                     49                     50                     51
                      A                      A                      A
 Frequencies --   1258.5905              1275.2553              1348.1486
 Red. masses --      2.6748                 2.5927                 2.0003
 Frc consts  --      2.4964                 2.4843                 2.1420
 IR Inten    --     54.1353                65.7037               154.4359

                     52                     53                     54
                      A                      A                      A
 Frequencies --   1406.9256              1409.0921              1416.6134
 Red. masses --      1.3053                 1.2701                 1.3822
 Frc consts  --      1.5223                 1.4858                 1.6343
 IR Inten    --     46.1321                57.1046                44.8564

                     55                     56                     57
                      A                      A                      A
 Frequencies --   1424.3292              1433.6969              1458.3192
 Red. masses --      1.3266                 1.2065                 1.4224
 Frc consts  --      1.5857                 1.4611                 1.7823
 IR Inten    --     49.3709                 3.2050                 1.1552

                     58                     59                     60
                      A                      A                      A
 Frequencies --   1484.5863              1487.0157              1490.4317
 Red. masses --      1.4964                 1.1208                 1.0673
 Frc consts  --      1.9432                 1.4602                 1.3969
 IR Inten    --     25.3215                16.6755                 1.5060

                     61                     62                     63
                      A                      A                      A
 Frequencies --   1497.0784              1500.8258              1503.6163
 Red. masses --      1.0678                 1.0626                 1.0481
 Frc consts  --      1.4101                 1.4102                 1.3961
 IR Inten    --     14.7280                11.5262                 4.7057

                     64                     65                     66
                      A                      A                      A
 Frequencies --   1505.7143              1506.6676              1519.7069
 Red. masses --      1.0525                 1.0582                 1.0564
 Frc consts  --      1.4060                 1.4154                 1.4375
 IR Inten    --      1.6131                 0.8613                14.7634

                     67                     68                     69
                      A                      A                      A
 Frequencies --   1520.8940              1530.0943              1717.1119
 Red. masses --      1.0772                 1.0714                 5.4307
 Frc consts  --      1.4681                 1.4779                 9.4342
 IR Inten    --     22.0439                14.4302                50.6970

                     70                     71                     72
                      A                      A                      A
 Frequencies --   1756.6599              1781.5241              1804.1426
 Red. masses --      7.9404                 8.9578                 9.4080
 Frc consts  --     14.4367                16.7509                18.0422
 IR Inten    --     59.3526               437.7955               253.9918

                     73                     74                     75
                      A                      A                      A
 Frequencies --   3046.5339              3049.1468              3055.8529
 Red. masses --      1.0464                 1.0442                 1.0376
 Frc consts  --      5.7219                 5.7198                 5.7089
 IR Inten    --      6.7827                 2.7074                20.0359

                     76                     77                     78
                      A                      A                      A
 Frequencies --   3056.3789              3061.3327              3111.0157
 Red. masses --      1.0361                 1.0358                 1.0999
 Frc consts  --      5.7027                 5.7196                 6.2718
 IR Inten    --     12.9548                 9.9489                15.1662

                     79                     80                     81
                      A                      A                      A
 Frequencies --   3121.4866              3127.7092              3129.6474
 Red. masses --      1.0986                 1.0894                 1.0989
 Frc consts  --      6.3067                 6.2792                 6.3414
 IR Inten    --      4.6478                 6.9249                11.4347

                     82                     83                     84
                      A                      A                      A
 Frequencies --   3133.6197              3140.2994              3164.3829
 Red. masses --      1.0875                 1.1035                 1.1034
 Frc consts  --      6.2916                 6.4114                 6.5096
 IR Inten    --      5.3622                23.1349                10.7878

                     85                     86                     87
                      A                      A                      A
 Frequencies --   3168.1447              3175.3992              3179.4099
 Red. masses --      1.1040                 1.0622                 1.1044
 Frc consts  --      6.5290                 6.3103                 6.5776
 IR Inten    --      9.7587                24.1429                38.5686

                     88                     89                     90
                      A                      A                      A
 Frequencies --   3179.9078              3205.5381              3269.9764
 Red. masses --      1.1037                 1.0711                 1.1143
 Frc consts  --      6.5756                 6.4848                 7.0199
 IR Inten    --      1.9311              1540.1041                 0.9817

 - Thermochemistry -
 -------------------
 Temperature   298.150 Kelvin.  Pressure   1.00000 Atm.
 Atom     1 has atomic number  6 and mass  12.00000

 Molecular mass:   202.12051 amu.
 Principal axes and moments of inertia in atomic units:
                           1         2         3
     Eigenvalues --  2159.515234582.290035791.94311
           X            0.99975  -0.02225   0.00117
           Y            0.02226   0.99970  -0.01043
           Z           -0.00094   0.01045   0.99994
 This molecule is an asymmetric top.
 Rotational symmetry number  1.
 Warning -- assumption of classical behavior for rotation
           may cause significant error
 Rotational temperatures (Kelvin)      0.04011     0.01890     0.01495
 Rotational constants (GHZ):           0.83572     0.39385     0.31160
 Zero-point vibrational energy     704033.3 (Joules/Mol)
                                  168.26799 (Kcal/Mol)
 Warning -- explicit consideration of  29 degrees of freedom as
           vibrations may cause significant error
 Vibrational temperatures:     21.96    47.41    57.08    76.77    96.55
          (Kelvin)            102.28   131.27   144.79   156.80   173.90
                              182.62   184.01   196.53   203.37   231.55
                              245.03   247.90   255.11   426.85   535.95
                              554.81   564.57   578.81   697.44   701.63
                              771.68   772.38   803.98   859.01   943.32
                             1144.49  1157.64  1168.70  1197.95  1304.35
                             1306.29  1329.80  1364.60  1378.44  1393.51
                             1405.05  1490.59  1564.11  1586.45  1595.21
                             1631.71  1634.04  1771.76  1810.83  1834.81
                             1939.69  2024.25  2027.37  2038.19  2049.29
                             2062.77  2098.20  2135.99  2139.48  2144.40
                             2153.96  2159.35  2163.37  2166.39  2167.76
                             2186.52  2188.23  2201.46  2470.54  2527.44
                             2563.22  2595.76  4383.28  4387.04  4396.69
                             4397.45  4404.57  4476.06  4491.12  4500.08
                             4502.86  4508.58  4518.19  4552.84  4558.25
                             4568.69  4574.46  4575.18  4612.05  4704.77

 Zero-point correction=                           0.268152 (Hartree/Particle)
 Thermal correction to Energy=                    0.288046
 Thermal correction to Enthalpy=                  0.288990
 Thermal correction to Gibbs Free Energy=         0.216831
 Sum of electronic and zero-point Energies=           -692.599979
 Sum of electronic and thermal Energies=              -692.580086
 Sum of electronic and thermal Enthalpies=            -692.579142
 Sum of electronic and thermal Free Energies=         -692.651301

                     E (Thermal)             CV                S
                      KCal/Mol        Cal/Mol-Kelvin    Cal/Mol-Kelvin
 Total                  180.751             65.935            151.872
 Electronic               0.000              0.000              0.000
 Translational            0.889              2.981             41.816
 Rotational               0.889              2.981             32.416
 Vibrational            178.974             59.973             77.640
 Vibration     1          0.593              1.986              7.171
 Vibration     2          0.594              1.983              5.643
 Vibration     3          0.594              1.981              5.275
 Vibration     4          0.596              1.976              4.689
 Vibration     5          0.598              1.970              4.237
 Vibration     6          0.598              1.968              4.123
 Vibration     7          0.602              1.955              3.633
 Vibration     8          0.604              1.949              3.442
 Vibration     9          0.606              1.942              3.287
 Vibration    10          0.609              1.932              3.087
 Vibration    11          0.611              1.926              2.992
 Vibration    12          0.611              1.925              2.978
 Vibration    13          0.614              1.917              2.851
 Vibration    14          0.615              1.912              2.786
 Vibration    15          0.622              1.890              2.539
 Vibration    16          0.625              1.879              2.432
 Vibration    17          0.626              1.877              2.410
 Vibration    18          0.628              1.870              2.357
 Vibration    19          0.690              1.680              1.436
 Vibration    20          0.744              1.529              1.069
 Vibration    21          0.754              1.501              1.017
 Vibration    22          0.760              1.486              0.991
 Vibration    23          0.768              1.465              0.954
 Vibration    24          0.841              1.284              0.697
 Vibration    25          0.844              1.277              0.690
 Vibration    26          0.891              1.170              0.573
 Vibration    27          0.892              1.169              0.572
 Vibration    28          0.914              1.120              0.526
 Vibration    29          0.955              1.038              0.455

                           ! Non-Optimized Parameters !
 Normal termination of Gaussian 16 at Thu Dec 10 11:51:23 2020.

 ----------------------------------------------------------------------
 # B3LYP/6-311++G(d,p) empiricaldispersion=gd3bj scf=xqc pop=npa geom=c
 heck
 ----------------------------------------------------------------------

 --------------------------------------
 CID_21938839_JID_4874_Energie_neutraal
 --------------------------------------
 Structure from the checkpoint file:  "JID_4874.chk"
 Charge =  0 Multiplicity = 1

 SCF Done:  E(RB3LYP) =  -693.086393295     A.U. after   14 cycles
 Normal termination of Gaussian 16 at Thu Dec 10 11:54:34 2020.

 ----------------------------------------------------------------------
 # B3LYP/6-311++G(d,p) empiricaldispersion=gd3bj scf=xqc pop=npa geom=c
 heck
 ----------------------------------------------------------------------

 ------------------------------------
 CID_21938839_JID_4874_Energie_kation
 ------------------------------------
 Structure from the checkpoint file:  "JID_4874.chk"
 Charge =  1 Multiplicity = 2

 SCF Done:  E(UB3LYP) =  -692.763127384     A.U. after   27 cycles
 Normal termination of Gaussian 16 at Thu Dec 10 12:02:43 2020.
 Gaussian 16:  ES64L-G16RevA.03 25-Dec-2016

 ----------------------------------------------------------------------
 # B3LYP/6-311++G(d,p) empiricaldispersion=gd3bj scf=xqc pop=npa geom=c
 heck
 ----------------------------------------------------------------------

 -----------------------------------
 CID_21938839_JID_4874_Energie_anion
 -----------------------------------
 Structure from the checkpoint file:  "JID_4874.chk"
 Charge = -1 Multiplicity = 2

                         Standard orientation:
 ---------------------------------------------------------------------
 Center     Atomic      Atomic             Coordinates (Angstroms)
 Number     Number       Type             X           Y           Z
 ---------------------------------------------------------------------
      1          6           0       -1.799113    1.175141   -1.616309
      2          6           0       -2.210374    1.475466   -0.197029
      3          8           0       -1.386665    1.708224    0.684911
      4          6           0       -3.683526    1.505479    0.113541
      5          6           0       -0.924577   -1.507969    1.685100
      6          6           0       -1.443599   -1.934632    0.327385
      7          8           0       -2.436710   -1.427391   -0.170289
      8          6           0       -0.677128   -3.030525   -0.377995
      9          6           0        3.777426   -0.889057   -0.739019
     10          6           0        3.243030    0.329176   -0.036968
     11          6           0        4.009775    1.232017    0.585514
     12          6           0        1.757749    0.483538   -0.070746
     13          8           0        1.035982   -0.334916   -0.632915
     14          8           0        1.296464    1.566134    0.550069
     15          1           0       -1.787425    2.118728   -2.179660
     16          1           0       -2.513222    0.501429   -2.095444
     17          1           0       -0.802261    0.731255   -1.633435
     18          1           0       -4.243917    2.027368   -0.670166
     19          1           0       -4.025641    0.464629    0.135293
     20          1           0       -3.860153    1.970317    1.085450
     21          1           0       -1.315996   -0.524686    1.950111
     22          1           0        0.168609   -1.491042    1.696568
     23          1           0       -1.253616   -2.239942    2.435276
     24          1           0        0.262832   -2.596987   -0.739215
     25          1           0       -0.425686   -3.846809    0.309429
     26          1           0       -1.253967   -3.411373   -1.223257
     27          1           0        4.868804   -0.925972   -0.682968
     28          1           0        3.475671   -0.896371   -1.792118
     29          1           0        3.370951   -1.805162   -0.295426
     30          1           0        3.576932    2.094142    1.079828
     31          1           0        5.091153    1.127212    0.613377
     32          1           0        0.296392    1.575056    0.511301
 ---------------------------------------------------------------------

 SCF Done:  E(UB3LYP) =  -693.082524299     A.U. after   33 cycles
 SCF Done:  E(UB3LYP) =  -693.082524299     a.u. after    1 cycles

 The electronic state is 2-A.
 Alpha  occ. eigenvalues --  -19.00112 -18.99462 -18.98812 -18.95014 -10.13743
 Alpha  occ. eigenvalues --  -10.13648 -10.13607 -10.05882 -10.05080 -10.04714
 Alpha  occ. eigenvalues --  -10.04666 -10.04370 -10.03866 -10.02206  -0.94774
 Alpha  occ. eigenvalues --   -0.92485  -0.91945  -0.85642  -0.66737  -0.65261
 Alpha  occ. eigenvalues --   -0.64571  -0.59230  -0.58738  -0.56301  -0.50350
 Alpha  occ. eigenvalues --   -0.42812  -0.41317  -0.40704  -0.35434  -0.35028
 Alpha  occ. eigenvalues --   -0.35014  -0.34220  -0.33961  -0.33540  -0.33270
 Alpha  occ. eigenvalues --   -0.32446  -0.31021  -0.29437  -0.28790  -0.28378
 Alpha  occ. eigenvalues --   -0.28061  -0.27591  -0.27408  -0.27130  -0.25919
 Alpha  occ. eigenvalues --   -0.25819  -0.23478  -0.23423  -0.23000  -0.22386
 Alpha  occ. eigenvalues --   -0.17131  -0.14494  -0.13524  -0.13353  -0.12806
 Alpha  occ. eigenvalues --    0.05025
 Alpha virt. eigenvalues --    0.07092   0.07252   0.08287   0.08776   0.09641
 Alpha virt. eigenvalues --    0.09903   0.10164   0.10966   0.11225   0.11598
 Alpha virt. eigenvalues --    0.12465   0.13000   0.13110   0.13571   0.14260

  Beta  occ. eigenvalues --  -19.00086 -18.99375 -18.98783 -18.94836 -10.13522
  Beta  occ. eigenvalues --  -10.13513 -10.13393 -10.05898 -10.05079 -10.04712
  Beta  occ. eigenvalues --  -10.04676 -10.04379 -10.03779 -10.01931  -0.94562
  Beta  occ. eigenvalues --   -0.92260  -0.91834  -0.85391  -0.66392  -0.65061
  Beta  occ. eigenvalues --   -0.64450  -0.59190  -0.58702  -0.56068  -0.49782
  Beta  occ. eigenvalues --   -0.42486  -0.41118  -0.40428  -0.35148  -0.34872
  Beta  occ. eigenvalues --   -0.34796  -0.34065  -0.33822  -0.33456  -0.33061
  Beta  occ. eigenvalues --   -0.32183  -0.30405  -0.29315  -0.28712  -0.28279
  Beta  occ. eigenvalues --   -0.27971  -0.27397  -0.27224  -0.27065  -0.25859
  Beta  occ. eigenvalues --   -0.25762  -0.23306  -0.22959  -0.22737  -0.22203
  Beta  occ. eigenvalues --   -0.16442  -0.14411  -0.13316  -0.12627  -0.12105
  Beta virt. eigenvalues --    0.07405   0.07807   0.08588   0.09436   0.09761
  Beta virt. eigenvalues --    0.09995   0.10304   0.10695   0.10913   0.11399
  Beta virt. eigenvalues --    0.11605   0.12410   0.12944   0.13112   0.13511

 Mulliken charges and spin densities:
               1          2
     1  C   -0.233799  -0.276467
     2  C    0.237304   0.192299
     3  O   -0.303306   0.036272
     4  C   -0.563991  -0.055942
     5  C   -0.125141  -0.352652
     6  C    0.063499   0.210942
     7  O   -0.249021   0.014503
     8  C   -0.337848  -0.244503
     9  C   -0.728684   0.017218
    10  C    0.949547  -0.006140
    11  C   -0.831746   0.343939
    12  C   -0.374035   0.080034
    13  O   -0.303030   0.063784
    14  O   -0.277756   0.006861
    15  H   -0.103071   0.246743
    16  H    0.160668  -0.007200
    17  H    0.217186  -0.002976
    18  H    0.046629   0.082911
    19  H    0.195609   0.013623
    20  H    0.120080   0.014121
    21  H    0.179922   0.000475
    22  H    0.162745   0.010395
    23  H   -0.240501   0.391171
    24  H    0.226884   0.003878
    25  H   -0.060457   0.185995
    26  H    0.095474   0.034567
    27  H    0.113134   0.000336
    28  H    0.132295   0.012416
    29  H    0.129727   0.016240
    30  H    0.147631  -0.008903
    31  H    0.084672  -0.017973
    32  H    0.469379  -0.005965
 Sum of Mulliken charges =  -1.00000   1.00000

 Dipole moment (field-independent basis, Debye):
    X=             -1.8759    Y=             -0.8155    Z=             -1.0932  Tot=              2.3193
 Quadrupole moment (field-independent basis, Debye-Ang):
   XX=           -129.3582   YY=           -116.4205   ZZ=           -105.2004
   XY=             -8.3080   XZ=             -1.3012   YZ=              2.1472

 Summary of Natural Population Analysis:

                                       Natural Population
                Natural  -----------------------------------------------
    Atom  No    Charge         Core      Valence    Rydberg      Total
 -----------------------------------------------------------------------
      C    1   -0.34303      0.99960     2.33778    0.00565     3.34303
      C    2    0.33794      0.99970     1.64323    0.01913     2.66206
      O    3   -0.31260      0.99984     3.30532    0.00743     4.31260
      C    4   -0.33703      0.99961     2.33263    0.00479     3.33703
      C    5   -0.33777      0.99961     2.33218    0.00598     3.33777
      C    6    0.31768      0.99971     1.66208    0.02053     2.68232
      O    7   -0.30649      0.99987     3.29902    0.00761     4.30649
      C    8   -0.34093      0.99961     2.33620    0.00511     3.34093
      C    9   -0.29423      0.99964     2.28872    0.00587     3.29423
      C   10   -0.05807      0.99949     2.04883    0.00975     3.05807
      C   11   -0.11740      0.99954     2.10975    0.00811     3.11740
      C   12    0.41776      0.99964     1.55857    0.02403     2.58224
      O   13   -0.33095      0.99987     3.32546    0.00562     4.33095
      O   14   -0.36052      0.99986     3.35522    0.00543     4.36052
      H   15    0.10671      0.00000     0.39187    0.00143     0.39329
      H   16    0.10699      0.00000     0.39237    0.00064     0.39301
      H   17    0.12836      0.00000     0.37037    0.00126     0.37164
      H   18    0.10038      0.00000     0.39860    0.00102     0.39962
      H   19    0.12624      0.00000     0.37303    0.00073     0.37376
      H   20    0.10382      0.00000     0.39537    0.00081     0.39618
      H   21    0.11586      0.00000     0.38312    0.00102     0.38414
      H   22    0.11202      0.00000     0.38702    0.00096     0.38798
      H   23    0.10483      0.00000     0.39359    0.00158     0.39517
      H   24    0.13061      0.00000     0.36853    0.00086     0.36939
      H   25    0.10096      0.00000     0.39791    0.00113     0.39904
      H   26    0.10219      0.00000     0.39690    0.00091     0.39781
      H   27    0.09153      0.00000     0.40768    0.00078     0.40847
      H   28    0.10282      0.00000     0.39628    0.00091     0.39718
      H   29    0.10201      0.00000     0.39705    0.00095     0.39799
      H   30    0.09780      0.00000     0.40143    0.00077     0.40220
      H   31    0.07870      0.00000     0.42041    0.00089     0.42130
      H   32    0.25381      0.00000     0.24315    0.00305     0.24619
 =======================================================================
   * Total *    0.00000     13.99560    40.84965    0.15475    55.00000

 Normal termination of Gaussian 16 at Thu Dec 10 12:13:08 2020.
