 Gaussian 16, Revision A.03,

 -----------------------------------------------------------
 # opt freq B3LYP/6-31G(d) empiricaldispersion=gd3bj scf=xqc
 -----------------------------------------------------------

 ------------------------------
 CID_114964288_JID_934_neutraal
 ------------------------------
 Symbolic Z-matrix:
 Charge =  0 Multiplicity = 1

 SCF Done:  E(RB3LYP) =  -427.833812522     A.U. after   14 cycles
 SCF Done:  E(RB3LYP) =  -427.835661860     A.U. after   11 cycles
 SCF Done:  E(RB3LYP) =  -427.833533638     A.U. after   13 cycles
 SCF Done:  E(RB3LYP) =  -427.836127153     A.U. after   12 cycles
 SCF Done:  E(RB3LYP) =  -427.836197608     A.U. after   11 cycles
 SCF Done:  E(RB3LYP) =  -427.836214162     A.U. after   10 cycles
 SCF Done:  E(RB3LYP) =  -427.836220205     A.U. after   10 cycles
 SCF Done:  E(RB3LYP) =  -427.836221896     A.U. after    9 cycles
 SCF Done:  E(RB3LYP) =  -427.836222908     A.U. after    8 cycles
 SCF Done:  E(RB3LYP) =  -427.836223371     A.U. after    8 cycles
 SCF Done:  E(RB3LYP) =  -427.836223579     A.U. after    8 cycles
 Optimization completed.
    -- Stationary point found.

 1\1\GINC-NODE202\FOpt\RB3LYP\6-31G(d)\C9H16O1\VSC10255\08-Dec-2020\0\\
 # opt freq B3LYP/6-31G(d) empiricaldispersion=gd3bj scf=xqc\\CID_11496
 4288_JID_934_neutraal\\0,1\C,1.0179023733,-0.1181752982,-0.0523012248\
 C,0.2590710745,-1.2454675605,0.6539258022\C,0.5769777351,-1.377638007,
 2.1516680417\C,0.2646672037,-0.1253321389,2.9890320684\C,-1.2349520502
 ,0.2384797549,2.9766587055\C,0.7318956751,-0.212487514,4.4454833598\O,
 1.0461500625,0.7987532327,5.0454034836\C,0.7351857259,-1.5659847491,5.
 1676009793\C,-0.6643741472,-2.0346733936,5.4759881464\C,-1.1952612484,

 Normal termination of Gaussian 16 at Tue Dec  8 13:34:11 2020.

 --------------------------------------------------------------------
 #N Geom=AllCheck Guess=TCheck SCRF=Check GenChk RB3LYP/6-31G(d) Freq
 --------------------------------------------------------------------

 Structure from the checkpoint file:  "JID_934.chk"
 ------------------------------
 CID_114964288_JID_934_neutraal
 ------------------------------
 Charge =  0 Multiplicity = 1

 SCF Done:  E(RB3LYP) =  -427.836223579     A.U. after    1 cycles

  Exact polarizability:  98.393  -1.346 104.322   2.446  -0.636  81.126
 Approx polarizability: 118.309   1.355 166.276   3.386  -0.711 116.820

                      1                      2                      3
                      A                      A                      A
 Frequencies --     47.3958                50.0320                59.9647
 Red. masses --      2.9770                 3.0018                 3.9020
 Frc consts  --      0.0039                 0.0044                 0.0083
 IR Inten    --      0.6677                 0.2232                 2.7628

                      4                      5                      6
                      A                      A                      A
 Frequencies --    101.2887               124.7865               183.7341
 Red. masses --      2.8512                 2.2117                 2.0661
 Frc consts  --      0.0172                 0.0203                 0.0411
 IR Inten    --      0.0643                 0.1926                 0.9717

                      7                      8                      9
                      A                      A                      A
 Frequencies --    201.0179               225.3260               249.4155
 Red. masses --      2.4292                 1.5299                 1.2458
 Frc consts  --      0.0578                 0.0458                 0.0457
 IR Inten    --      0.8210                 0.4310                 0.0290

                     10                     11                     12
                      A                      A                      A
 Frequencies --    292.9785               306.8225               361.7967
 Red. masses --      1.8658                 2.3457                 2.1270
 Frc consts  --      0.0944                 0.1301                 0.1640
 IR Inten    --      0.0855                 0.4513                 1.2963

                     13                     14                     15
                      A                      A                      A
 Frequencies --    392.1085               437.6292               490.4447
 Red. masses --      2.5806                 2.3432                 2.8711
 Frc consts  --      0.2338                 0.2644                 0.4069
 IR Inten    --      0.6352                 1.0358                 0.9202

                     16                     17                     18
                      A                      A                      A
 Frequencies --    548.3153               629.0307               680.9520
 Red. masses --      2.2508                 1.6321                 3.9031
 Frc consts  --      0.3987                 0.3805                 1.0663
 IR Inten    --     10.2552                19.8818                 0.3771

                     19                     20                     21
                      A                      A                      A
 Frequencies --    759.0985               829.9479               874.3841
 Red. masses --      1.4189                 1.9032                 1.9673
 Frc consts  --      0.4817                 0.7724                 0.8862
 IR Inten    --     16.0515                11.8131                 1.3068

                     22                     23                     24
                      A                      A                      A
 Frequencies --    877.3507               921.3705               932.1651
 Red. masses --      1.8457                 1.5664                 1.5949
 Frc consts  --      0.8370                 0.7835                 0.8165
 IR Inten    --      0.4999                 2.7087                 4.9326

                     25                     26                     27
                      A                      A                      A
 Frequencies --    940.9611               955.2264              1010.3917
 Red. masses --      1.3530                 2.3725                 1.8267
 Frc consts  --      0.7058                 1.2755                 1.0988
 IR Inten    --     41.0721                 7.2209                 6.3767

                     28                     29                     30
                      A                      A                      A
 Frequencies --   1024.7886              1041.2456              1076.3470
 Red. masses --      1.3350                 1.1197                 1.7704
 Frc consts  --      0.8260                 0.7152                 1.2085
 IR Inten    --      4.2064                15.5098                15.5164

                     31                     32                     33
                      A                      A                      A
 Frequencies --   1085.8514              1111.4295              1156.2422
 Red. masses --      2.1239                 1.7029                 2.0256
 Frc consts  --      1.4755                 1.2394                 1.5955
 IR Inten    --      3.8835                10.4308                 2.8588

                     34                     35                     36
                      A                      A                      A
 Frequencies --   1186.0325              1213.5032              1282.2003
 Red. masses --      2.1382                 1.9467                 1.4006
 Frc consts  --      1.7721                 1.6890                 1.3567
 IR Inten    --     14.8334                19.3701                 9.6157

                     37                     38                     39
                      A                      A                      A
 Frequencies --   1288.8424              1297.0369              1314.6648
 Red. masses --      1.5404                 1.2564                 1.4719
 Frc consts  --      1.5076                 1.2453                 1.4988
 IR Inten    --     22.3093                 0.8159                17.0966

                     40                     41                     42
                      A                      A                      A
 Frequencies --   1336.9196              1345.8412              1365.4674
 Red. masses --      1.2416                 1.2763                 1.2467
 Frc consts  --      1.3075                 1.3620                 1.3696
 IR Inten    --      1.5881                 1.7287                 4.6369

                     43                     44                     45
                      A                      A                      A
 Frequencies --   1401.9628              1414.8921              1431.0470
 Red. masses --      1.3701                 1.4237                 1.2258
 Frc consts  --      1.5866                 1.6792                 1.4791
 IR Inten    --      2.1958                 0.9940                 5.2977

                     46                     47                     48
                      A                      A                      A
 Frequencies --   1445.6944              1470.2840              1497.7393
 Red. masses --      1.2666                 1.1819                 1.1026
 Frc consts  --      1.5597                 1.5054                 1.4572
 IR Inten    --      5.2068                 1.5880                10.9053

                     49                     50                     51
                      A                      A                      A
 Frequencies --   1515.7688              1523.7912              1529.1763
 Red. masses --      1.0673                 1.0670                 1.0535
 Frc consts  --      1.4448                 1.4598                 1.4515
 IR Inten    --      3.0635                 1.5959                 5.7812

                     52                     53                     54
                      A                      A                      A
 Frequencies --   1535.3453              1537.7516              1544.3634
 Red. masses --      1.0448                 1.0584                 1.0658
 Frc consts  --      1.4511                 1.4746                 1.4977
 IR Inten    --      2.1518                 3.6523                 7.5457

                     55                     56                     57
                      A                      A                      A
 Frequencies --   1723.2413              1801.5240              3025.2616
 Red. masses --      4.4712                10.6397                 1.0663
 Frc consts  --      7.8229                20.3450                 5.7501
 IR Inten    --     25.4329               164.8989                23.8106

                     58                     59                     60
                      A                      A                      A
 Frequencies --   3042.4480              3046.6280              3060.3699
 Red. masses --      1.0616                 1.0379                 1.0367
 Frc consts  --      5.7899                 5.6759                 5.7209
 IR Inten    --     21.5676                21.9932                15.6584

                     61                     62                     63
                      A                      A                      A
 Frequencies --   3062.4895              3065.8119              3072.6019
 Red. masses --      1.0602                 1.0814                 1.0974
 Frc consts  --      5.8587                 5.9885                 6.1043
 IR Inten    --      7.5533                 3.8800                24.2591

                     64                     65                     66
                      A                      A                      A
 Frequencies --   3087.5710              3112.0949              3113.4004
 Red. masses --      1.0954                 1.1015                 1.1042
 Frc consts  --      6.1524                 6.2857                 6.3064
 IR Inten    --     43.8735                44.7109                 8.0516

                     67                     68                     69
                      A                      A                      A
 Frequencies --   3118.7365              3130.7290              3138.0935
 Red. masses --      1.1019                 1.1023                 1.1032
 Frc consts  --      6.3145                 6.3654                 6.4006
 IR Inten    --     50.4545                23.3763                22.2352

                     70                     71                     72
                      A                      A                      A
 Frequencies --   3154.7650              3162.6781              3239.7947
 Red. masses --      1.0670                 1.0837                 1.1158
 Frc consts  --      6.2565                 6.3865                 6.9003
 IR Inten    --     15.3525                 4.6112                18.1461

 - Thermochemistry -
 -------------------
 Temperature   298.150 Kelvin.  Pressure   1.00000 Atm.
 Atom     1 has atomic number  6 and mass  12.00000

 Molecular mass:   140.12012 amu.
 Principal axes and moments of inertia in atomic units:
                           1         2         3
     Eigenvalues --  1031.280982253.209182708.59883
           X            0.99986  -0.01667   0.00311
           Y            0.01662   0.99974   0.01536
           Z           -0.00336  -0.01530   0.99988
 This molecule is an asymmetric top.
 Rotational symmetry number  1.
 Warning -- assumption of classical behavior for rotation
           may cause significant error
 Rotational temperatures (Kelvin)      0.08399     0.03844     0.03198
 Rotational constants (GHZ):           1.75000     0.80096     0.66630
 Zero-point vibrational energy     613782.4 (Joules/Mol)
                                  146.69751 (Kcal/Mol)
 Warning -- explicit consideration of  16 degrees of freedom as
           vibrations may cause significant error
 Vibrational temperatures:     68.19    71.98    86.28   145.73   179.54
          (Kelvin)            264.35   289.22   324.19   358.85   421.53
                              441.45   520.54   564.16   629.65   705.64
                              788.90   905.03   979.74  1092.17  1194.11
                             1258.04  1262.31  1325.65  1341.18  1353.83
                             1374.36  1453.73  1474.44  1498.12  1548.62
                             1562.30  1599.10  1663.57  1706.44  1745.96
                             1844.80  1854.36  1866.15  1891.51  1923.53
                             1936.37  1964.60  2017.11  2035.71  2058.96
                             2080.03  2115.41  2154.91  2180.85  2192.40
                             2200.14  2209.02  2212.48  2221.99  2479.36
                             2591.99  4352.68  4377.40  4383.42  4403.19
                             4406.24  4411.02  4420.79  4442.33  4477.61
                             4479.49  4487.17  4504.42  4515.02  4539.00
                             4550.39  4661.34

 Zero-point correction=                           0.233777 (Hartree/Particle)
 Thermal correction to Energy=                    0.245981
 Thermal correction to Enthalpy=                  0.246925
 Thermal correction to Gibbs Free Energy=         0.194882
 Sum of electronic and zero-point Energies=           -427.602446
 Sum of electronic and thermal Energies=              -427.590242
 Sum of electronic and thermal Enthalpies=            -427.589298
 Sum of electronic and thermal Free Energies=         -427.641342

                     E (Thermal)             CV                S
                      KCal/Mol        Cal/Mol-Kelvin    Cal/Mol-Kelvin
 Total                  154.356             43.807            109.535
 Electronic               0.000              0.000              0.000
 Translational            0.889              2.981             40.724
 Rotational               0.889              2.981             30.221
 Vibrational            152.578             37.845             38.590
 Vibration     1          0.595              1.979              4.923
 Vibration     2          0.595              1.978              4.816
 Vibration     3          0.597              1.973              4.458
 Vibration     4          0.604              1.948              3.429
 Vibration     5          0.610              1.928              3.025
 Vibration     6          0.631              1.862              2.290
 Vibration     7          0.638              1.838              2.124
 Vibration     8          0.650              1.802              1.916
 Vibration     9          0.662              1.764              1.735
 Vibration    10          0.688              1.687              1.457
 Vibration    11          0.697              1.661              1.379
 Vibration    12          0.736              1.551              1.114
 Vibration    13          0.760              1.487              0.992
 Vibration    14          0.798              1.388              0.834
 Vibration    15          0.846              1.271              0.682
 Vibration    16          0.904              1.143              0.548

 Optimization completed.
    -- Stationary point found.

 1\1\GINC-NODE202\Freq\RB3LYP\6-31G(d)\C9H16O1\VSC10255\08-Dec-2020\0\\
 #N Geom=AllCheck Guess=TCheck SCRF=Check GenChk RB3LYP/6-31G(d) Freq\\
 CID_114964288_JID_934_neutraal\\0,1\C,1.0179023733,-0.1181752982,-0.05
 23012248\C,0.2590710745,-1.2454675605,0.6539258022\C,0.5769777351,-1.3
 77638007,2.1516680417\C,0.2646672037,-0.1253321389,2.9890320684\C,-1.2
 349520502,0.2384797549,2.9766587055\C,0.7318956751,-0.212487514,4.4454
 833598\O,1.0461500625,0.7987532327,5.0454034836\C,0.7351857259,-1.5659
 847491,5.1676009793\C,-0.6643741472,-2.0346733936,5.4759881464\C,-1.19

 Normal termination of Gaussian 16 at Tue Dec  8 13:41:44 2020.

 ----------------------------------------------------------------------
 # B3LYP/6-311++G(d,p) empiricaldispersion=gd3bj scf=xqc pop=npa geom=c
 heck
 ----------------------------------------------------------------------

 --------------------------------------
 CID_114964288_JID_934_Energie_neutraal
 --------------------------------------
 Structure from the checkpoint file:  "JID_934.chk"
 Charge =  0 Multiplicity = 1

 SCF Done:  E(RB3LYP) =  -427.961777069     A.U. after   13 cycles
 Normal termination of Gaussian 16 at Tue Dec  8 13:46:42 2020.

 ----------------------------------------------------------------------
 # B3LYP/6-311++G(d,p) empiricaldispersion=gd3bj scf=xqc pop=npa geom=c
 heck
 ----------------------------------------------------------------------

 ------------------------------------
 CID_114964288_JID_934_Energie_kation
 ------------------------------------
 Structure from the checkpoint file:  "JID_934.chk"
 Charge =  1 Multiplicity = 2

 SCF Done:  E(UB3LYP) =  -427.640226378     A.U. after   21 cycles
 Normal termination of Gaussian 16 at Tue Dec  8 13:52:31 2020.
 Gaussian 16:  ES64L-G16RevA.03 25-Dec-2016

 -----------------------------------
 CID_114964288_JID_934_Energie_anion
 -----------------------------------
 Structure from the checkpoint file:  "JID_934.chk"
 Charge = -1 Multiplicity = 2

                         Standard orientation:
 ---------------------------------------------------------------------
 Center     Atomic      Atomic             Coordinates (Angstroms)
 Number     Number       Type             X           Y           Z
 ---------------------------------------------------------------------
      1          6           0       -3.522961   -0.014622   -0.312073
      2          6           0       -2.431069   -1.073796   -0.135183
      3          6           0       -1.027170   -0.607668   -0.551786
      4          6           0       -0.499915    0.615284    0.218523
      5          6           0       -0.348560    0.344862    1.730255
      6          6           0        0.827552    1.165971   -0.312255
      7          8           0        1.083788    2.350394   -0.199319
      8          6           0        1.862296    0.211249   -0.921542
      9          6           0        2.515960   -0.645979    0.132698
     10          6           0        2.509421   -1.979315    0.147882
     11          1           0       -3.371611    0.843100    0.352463
     12          1           0       -4.512192   -0.430098   -0.091171
     13          1           0       -3.541384    0.364023   -1.341535
     14          1           0       -2.415014   -1.415190    0.907519
     15          1           0       -2.686122   -1.956731   -0.735342
     16          1           0       -0.328292   -1.442767   -0.422516
     17          1           0       -1.043647   -0.373246   -1.625905
     18          1           0       -1.199555    1.450701    0.101825
     19          1           0        0.309410   -0.510675    1.913072
     20          1           0        0.070568    1.221753    2.233092
     21          1           0       -1.322029    0.130211    2.182289
     22          1           0        1.398096   -0.426062   -1.681593
     23          1           0        2.611295    0.847267   -1.406235
     24          1           0        3.025511   -0.101121    0.927341
     25          1           0        3.006408   -2.543185    0.932230
     26          1           0        2.014921   -2.557044   -0.630108
 ---------------------------------------------------------------------

 SCF Done:  E(UB3LYP) =  -427.950390676     A.U. after   32 cycles

 The electronic state is 2-A.
 Alpha  occ. eigenvalues --  -18.97226 -10.11424 -10.06689 -10.05855 -10.05802
 Alpha  occ. eigenvalues --  -10.05414 -10.05269 -10.05135 -10.04754 -10.04589
 Alpha  occ. eigenvalues --   -0.90900  -0.70297  -0.68156  -0.64138  -0.59280
 Alpha  occ. eigenvalues --   -0.57004  -0.52022  -0.46018  -0.45356  -0.40741
 Alpha  occ. eigenvalues --   -0.37282  -0.35921  -0.33331  -0.33055  -0.31529
 Alpha  occ. eigenvalues --   -0.30668  -0.30033  -0.29025  -0.28062  -0.26552
 Alpha  occ. eigenvalues --   -0.25047  -0.24494  -0.24166  -0.22709  -0.22361
 Alpha  occ. eigenvalues --   -0.20945  -0.20645  -0.15970  -0.11456   0.04944
 Alpha virt. eigenvalues --    0.07253   0.08026   0.08415   0.09332   0.09817
 Alpha virt. eigenvalues --    0.10454   0.10663   0.11587   0.11712   0.12262
 Alpha virt. eigenvalues --    0.13192   0.13396   0.13867   0.14582   0.15169

  Beta  occ. eigenvalues --  -18.97001 -10.11194 -10.06621 -10.05874 -10.05821
  Beta  occ. eigenvalues --  -10.05393 -10.05261 -10.05052 -10.04716 -10.04536
  Beta  occ. eigenvalues --   -0.90461  -0.70185  -0.68027  -0.64040  -0.59095
  Beta  occ. eigenvalues --   -0.56933  -0.51880  -0.45835  -0.45137  -0.40478
  Beta  occ. eigenvalues --   -0.37193  -0.35869  -0.33131  -0.32802  -0.31388
  Beta  occ. eigenvalues --   -0.30566  -0.29948  -0.28888  -0.27938  -0.26265
  Beta  occ. eigenvalues --   -0.24936  -0.24356  -0.24094  -0.22347  -0.22260
  Beta  occ. eigenvalues --   -0.20768  -0.20307  -0.15562  -0.11249
  Beta virt. eigenvalues --    0.07513   0.08289   0.08895   0.09015   0.09711
  Beta virt. eigenvalues --    0.10138   0.10692   0.11273   0.11963   0.12357
  Beta virt. eigenvalues --    0.12694   0.13521   0.13545   0.14125   0.14851

 Mulliken charges and spin densities:
               1          2
     1  C    0.859903  -1.493118
     2  C   -0.165863  -0.098924
     3  C   -0.583548   0.189419
     4  C    0.617697   0.176194
     5  C    0.032869  -0.777478
     6  C   -0.384319   0.065249
     7  O   -0.313657   0.076316
     8  C    0.517710  -0.805387
     9  C   -0.404614   0.610071
    10  C   -0.044926  -0.413660
    11  H   -0.150201   0.293756
    12  H   -0.565634   0.708677
    13  H   -0.024869   0.156250
    14  H   -0.056001   0.192280
    15  H   -0.428620   0.582526
    16  H    0.227384  -0.109296
    17  H   -0.066282   0.202067
    18  H    0.199378   0.019554
    19  H   -0.012882   0.182798
    20  H    0.179520  -0.034046
    21  H   -0.114728   0.261103
    22  H   -0.181802   0.319469
    23  H    0.028484   0.164295
    24  H    0.044216   0.108864
    25  H    0.047594   0.050325
    26  H   -0.256808   0.372697
 Sum of Mulliken charges =  -1.00000   1.00000

 Dipole moment (field-independent basis, Debye):
    X=              3.0136    Y=              0.3655    Z=              1.1553  Tot=              3.2480
 Quadrupole moment (field-independent basis, Debye-Ang):
   XX=           -125.5439   YY=           -101.4265   ZZ=            -90.2041
   XY=             -5.6908   XZ=              5.0005   YZ=             -3.4573

 Summary of Natural Population Analysis:

                                       Natural Population
                Natural  -----------------------------------------------
    Atom  No    Charge         Core      Valence    Rydberg      Total
 -----------------------------------------------------------------------
      C    1   -0.28729      0.99967     2.28203    0.00560     3.28729
      C    2   -0.19010      0.99964     2.18174    0.00871     3.19010
      C    3   -0.18889      0.99961     2.18070    0.00857     3.18889
      C    4   -0.15468      0.99956     2.14419    0.01093     3.15468
      C    5   -0.28233      0.99964     2.27674    0.00595     3.28233
      C    6    0.33170      0.99964     1.64710    0.02156     2.66830
      O    7   -0.28073      0.99987     3.27423    0.00662     4.28073
      C    8   -0.25615      0.99957     2.24557    0.01102     3.25615
      C    9   -0.07367      0.99956     2.06335    0.01076     3.07367
      C   10   -0.18843      0.99955     2.18154    0.00734     3.18843
      H   11    0.09634      0.00000     0.40253    0.00113     0.40366
      H   12    0.09997      0.00000     0.39844    0.00159     0.40003
      H   13    0.09432      0.00000     0.40468    0.00100     0.40568
      H   14    0.09446      0.00000     0.40432    0.00122     0.40554
      H   15    0.09593      0.00000     0.40273    0.00134     0.40407
      H   16    0.09943      0.00000     0.39853    0.00204     0.40057
      H   17    0.09399      0.00000     0.40460    0.00141     0.40601
      H   18    0.10483      0.00000     0.39321    0.00197     0.39517
      H   19    0.10023      0.00000     0.39883    0.00095     0.39977
      H   20    0.10136      0.00000     0.39782    0.00082     0.39864
      H   21    0.10006      0.00000     0.39891    0.00103     0.39994
      H   22    0.10731      0.00000     0.39088    0.00180     0.39269
      H   23    0.11139      0.00000     0.38710    0.00150     0.38861
      H   24    0.09080      0.00000     0.40824    0.00095     0.40920
      H   25    0.08960      0.00000     0.40962    0.00078     0.41040
      H   26    0.09054      0.00000     0.40814    0.00132     0.40946
 =======================================================================
   * Total *    0.00000      9.99631    28.88578    0.11791    39.00000

 Normal termination of Gaussian 16 at Tue Dec  8 14:01:49 2020.
