 Gaussian 16, Revision A.03,

 -----------------------------------------------------------
 # opt freq B3LYP/6-31G(d) empiricaldispersion=gd3bj scf=xqc
 -----------------------------------------------------------

 -------------------------------
 CID_64531351_JID_10665_neutraal
 -------------------------------
 Symbolic Z-matrix:
 Charge =  0 Multiplicity = 1

 SCF Done:  E(RB3LYP) =  -892.774379121     A.U. after   15 cycles
 SCF Done:  E(RB3LYP) =  -892.779312275     A.U. after   13 cycles
 SCF Done:  E(RB3LYP) =  -892.780645976     A.U. after   13 cycles
 SCF Done:  E(RB3LYP) =  -892.781071028     A.U. after   12 cycles
 SCF Done:  E(RB3LYP) =  -892.781243563     A.U. after   12 cycles
 SCF Done:  E(RB3LYP) =  -892.781128323     A.U. after   12 cycles
 SCF Done:  E(RB3LYP) =  -892.782033233     A.U. after   12 cycles
 SCF Done:  E(RB3LYP) =  -892.782470301     A.U. after   12 cycles
 SCF Done:  E(RB3LYP) =  -892.782662237     A.U. after   12 cycles
 SCF Done:  E(RB3LYP) =  -892.782948976     A.U. after   12 cycles
 SCF Done:  E(RB3LYP) =  -892.783207351     A.U. after    8 cycles
 SCF Done:  E(RB3LYP) =  -892.783207521     A.U. after    7 cycles
 SCF Done:  E(RB3LYP) =  -892.783207615     A.U. after    7 cycles
 SCF Done:  E(RB3LYP) =  -892.783207656     A.U. after    7 cycles
 SCF Done:  E(RB3LYP) =  -892.783207674     A.U. after    7 cycles
 Optimization completed.
    -- Stationary point found.
 Normal termination of Gaussian 16 at Sat Dec 12 16:47:40 2020.

 --------------------------------------------------------------------
 #N Geom=AllCheck Guess=TCheck SCRF=Check GenChk RB3LYP/6-31G(d) Freq
 --------------------------------------------------------------------

 Structure from the checkpoint file:  "JID_10665.chk"
 -------------------------------
 CID_64531351_JID_10665_neutraal
 -------------------------------
 Charge =  0 Multiplicity = 1

 SCF Done:  E(RB3LYP) =  -892.783207674     A.U. after    1 cycles

  Exact polarizability: 200.050  -4.876 175.037  22.107   1.078 131.484
 Approx polarizability: 262.818  -9.956 293.490  39.376  -4.756 219.683

                      1                      2                      3
                      A                      A                      A
 Frequencies --     22.9850                36.9894                39.7603
 Red. masses --      5.9506                 4.5767                 5.9179
 Frc consts  --      0.0019                 0.0037                 0.0055
 IR Inten    --      0.9202                 0.5504                 0.5468

                      4                      5                      6
                      A                      A                      A
 Frequencies --     42.7667                68.7184                94.1791
 Red. masses --      4.9262                 5.8437                 5.2155
 Frc consts  --      0.0053                 0.0163                 0.0273
 IR Inten    --      2.6846                 0.1882                 2.5645

                      7                      8                      9
                      A                      A                      A
 Frequencies --    129.0994               145.6200               170.3169
 Red. masses --      4.4483                 4.2252                 4.2780
 Frc consts  --      0.0437                 0.0528                 0.0731
 IR Inten    --      0.9573                 2.2788                 0.8452

                     10                     11                     12
                      A                      A                      A
 Frequencies --    184.2709               241.6683               270.6688
 Red. masses --      3.0019                 3.3460                 3.7649
 Frc consts  --      0.0601                 0.1151                 0.1625
 IR Inten    --      1.5212                 3.6699                 2.1985

                     13                     14                     15
                      A                      A                      A
 Frequencies --    301.0395               306.8627               359.1310
 Red. masses --      4.6734                 2.2098                 3.7675
 Frc consts  --      0.2495                 0.1226                 0.2863
 IR Inten    --      0.2433                 2.4904                 0.1057

                     16                     17                     18
                      A                      A                      A
 Frequencies --    379.2281               394.3193               434.9859
 Red. masses --      4.1427                 2.9670                 4.4336
 Frc consts  --      0.3510                 0.2718                 0.4943
 IR Inten    --      1.3645                 4.1995                14.6689

                     19                     20                     21
                      A                      A                      A
 Frequencies --    468.4502               498.4308               510.6659
 Red. masses --      3.9359                 2.9838                 2.8356
 Frc consts  --      0.5089                 0.4367                 0.4357
 IR Inten    --      1.9033                 0.6615                10.8912

                     22                     23                     24
                      A                      A                      A
 Frequencies --    518.6589               539.3869               594.5094
 Red. masses --      3.9813                 1.5977                 3.9853
 Frc consts  --      0.6310                 0.2739                 0.8299
 IR Inten    --      2.5006                53.2279                 5.1130

                     25                     26                     27
                      A                      A                      A
 Frequencies --    622.9863               639.0953               674.6874
 Red. masses --      3.1811                 2.8378                 2.6469
 Frc consts  --      0.7274                 0.6829                 0.7099
 IR Inten    --     25.3006                29.5678                 2.1373

                     28                     29                     30
                      A                      A                      A
 Frequencies --    690.0860               694.4182               715.7558
 Red. masses --      2.2844                 3.0555                 2.8840
 Frc consts  --      0.6410                 0.8681                 0.8705
 IR Inten    --     22.4918                38.6928                23.1884

                     31                     32                     33
                      A                      A                      A
 Frequencies --    724.1164               746.5270               764.0851
 Red. masses --      2.7685                 2.3277                 1.3379
 Frc consts  --      0.8553                 0.7643                 0.4602
 IR Inten    --     14.0482                78.3559                40.2720

                     34                     35                     36
                      A                      A                      A
 Frequencies --    779.9491               806.2402               840.3437
 Red. masses --      2.3101                 3.9854                 2.5474
 Frc consts  --      0.8280                 1.5263                 1.0599
 IR Inten    --     16.2977                 6.9909                87.3556

                     37                     38                     39
                      A                      A                      A
 Frequencies --    860.5775               888.5447               893.2252
 Red. masses --      2.1741                 1.5810                 1.3733
 Frc consts  --      0.9487                 0.7354                 0.6455
 IR Inten    --      8.4720                 0.7795                 8.6167

                     40                     41                     42
                      A                      A                      A
 Frequencies --    915.4564               925.2427               948.0279
 Red. masses --      2.0905                 2.4052                 1.4563
 Frc consts  --      1.0322                 1.2132                 0.7712
 IR Inten    --      5.4108                 8.6583                 0.6811

                     43                     44                     45
                      A                      A                      A
 Frequencies --    967.1429               978.9474               984.8786
 Red. masses --      2.3709                 2.5887                 1.2656
 Frc consts  --      1.3066                 1.4617                 0.7233
 IR Inten    --      5.7503                 0.3915                 0.0190

                     46                     47                     48
                      A                      A                      A
 Frequencies --    990.1237              1008.6756              1055.3713
 Red. masses --      5.5812                 2.3293                 3.3397
 Frc consts  --      3.2237                 1.3963                 2.1916
 IR Inten    --     19.1845                 1.2949                25.5736

                     49                     50                     51
                      A                      A                      A
 Frequencies --   1067.6931              1076.2824              1089.8948
 Red. masses --      2.3307                 2.3539                 2.0159
 Frc consts  --      1.5654                 1.6065                 1.4109
 IR Inten    --     15.4341                 2.9366                 3.1215

                     52                     53                     54
                      A                      A                      A
 Frequencies --   1123.3791              1135.6102              1154.2350
 Red. masses --      4.1482                 2.2829                 2.4762
 Frc consts  --      3.0843                 1.7346                 1.9437
 IR Inten    --     19.5672                 2.5384                28.2123

                     55                     56                     57
                      A                      A                      A
 Frequencies --   1158.7712              1198.6953              1216.2003
 Red. masses --      3.0403                 1.1252                 2.4784
 Frc consts  --      2.4053                 0.9526                 2.1599
 IR Inten    --      0.3186                 0.4701                29.6728

                     58                     59                     60
                      A                      A                      A
 Frequencies --   1218.5859              1222.2351              1229.3861
 Red. masses --      2.1586                 1.4349                 1.1866
 Frc consts  --      1.8886                 1.2630                 1.0566
 IR Inten    --      1.9980                12.3433                 0.3264

                     61                     62                     63
                      A                      A                      A
 Frequencies --   1246.9893              1251.5160              1269.6700
 Red. masses --      1.9727                 1.8001                 1.2825
 Frc consts  --      1.8073                 1.6612                 1.2181
 IR Inten    --      8.9083                11.7716                 2.0144

                     64                     65                     66
                      A                      A                      A
 Frequencies --   1299.3565              1312.4379              1320.8123
 Red. masses --      1.5469                 2.0250                 1.9450
 Frc consts  --      1.5388                 2.0551                 1.9992
 IR Inten    --     31.2108                15.3351                 9.8560

                     67                     68                     69
                      A                      A                      A
 Frequencies --   1325.6612              1361.1773              1369.0533
 Red. masses --      1.4314                 3.2573                 1.3511
 Frc consts  --      1.4820                 3.5558                 1.4920
 IR Inten    --      4.6844                 1.2844                21.5674

                     70                     71                     72
                      A                      A                      A
 Frequencies --   1379.2990              1381.7463              1390.1466
 Red. masses --      1.8108                 1.4548                 1.6018
 Frc consts  --      2.0297                 1.6365                 1.8238
 IR Inten    --     65.2482                27.1530                 5.4073

                     73                     74                     75
                      A                      A                      A
 Frequencies --   1414.0148              1428.9221              1436.7626
 Red. masses --      1.3260                 2.9614                 1.6975
 Frc consts  --      1.5620                 3.5626                 2.0646
 IR Inten    --      7.1818                 9.5087                11.8030

                     76                     77                     78
                      A                      A                      A
 Frequencies --   1499.0909              1500.5860              1505.0665
 Red. masses --      1.9147                 1.6474                 1.3876
 Frc consts  --      2.5351                 2.1857                 1.8520
 IR Inten    --     53.1933                 2.0488                13.7580

                     79                     80                     81
                      A                      A                      A
 Frequencies --   1509.5039              1514.3150              1521.6999
 Red. masses --      1.2829                 1.5959                 1.1046
 Frc consts  --      1.7223                 2.1562                 1.5070
 IR Inten    --     27.0268                83.5790                 1.7532

                     82                     83                     84
                      A                      A                      A
 Frequencies --   1524.7208              1533.4404              1543.6431
 Red. masses --      1.8355                 1.1323                 2.2459
 Frc consts  --      2.5141                 1.5687                 3.1531
 IR Inten    --     11.1485                 4.7543                14.4718

                     85                     86                     87
                      A                      A                      A
 Frequencies --   1598.9551              1639.8128              1668.4996
 Red. masses --      3.9530                 6.2102                 5.8378
 Frc consts  --      5.9546                 9.8389                 9.5753
 IR Inten    --     35.7231                 0.2223                 0.9453

                     88                     89                     90
                      A                      A                      A
 Frequencies --   1779.1381              3017.5857              3028.7125
 Red. masses --      8.1590                 1.0700                 1.0664
 Frc consts  --     15.2161                 5.7406                 5.7632
 IR Inten    --    392.3246                18.1380                59.1142

                     91                     92                     93
                      A                      A                      A
 Frequencies --   3031.0052              3039.3796              3075.1056
 Red. masses --      1.0835                 1.0632                 1.0774
 Frc consts  --      5.8646                 5.7868                 6.0026
 IR Inten    --      8.0884                25.1159                16.0121

                     94                     95                     96
                      A                      A                      A
 Frequencies --   3081.5265              3092.8244              3095.2484
 Red. masses --      1.0965                 1.0917                 1.0964
 Frc consts  --      6.1346                 6.1525                 6.1886
 IR Inten    --     33.3460                19.4287                47.4310

                     97                     98                     99
                      A                      A                      A
 Frequencies --   3166.9909              3176.5602              3191.3754
 Red. masses --      1.0943                 1.0871                 1.0884
 Frc consts  --      6.4665                 6.4632                 6.5311
 IR Inten    --     13.5037                 8.8636                10.6690

                    100                    101                    102
                      A                      A                      A
 Frequencies --   3204.4302              3214.9438              3282.2671
 Red. masses --      1.0927                 1.0961                 1.0974
 Frc consts  --      6.6110                 6.6749                 6.9657
 IR Inten    --     26.3919                13.8980                 7.7745

                    103                    104                    105
                      A                      A                      A
 Frequencies --   3548.4844              3563.0342              3654.9758
 Red. masses --      1.0756                 1.0756                 1.0817
 Frc consts  --      7.9798                 8.0456                 8.5140
 IR Inten    --      2.4011               100.3232                57.8861

 - Thermochemistry -
 -------------------
 Temperature   298.150 Kelvin.  Pressure   1.00000 Atm.
 Atom     1 has atomic number  6 and mass  12.00000

 Molecular mass:   271.14331 amu.
 Principal axes and moments of inertia in atomic units:
                           1         2         3
     Eigenvalues --  2547.596969850.74292**********
           X            0.99999  -0.00427   0.00294
           Y            0.00411   0.99868   0.05113
           Z           -0.00316  -0.05111   0.99869
 This molecule is an asymmetric top.
 Rotational symmetry number  1.
 Warning -- assumption of classical behavior for rotation
           may cause significant error
 Rotational temperatures (Kelvin)      0.03400     0.00879     0.00832
 Rotational constants (GHZ):           0.70841     0.18321     0.17338
 Zero-point vibrational energy     811957.4 (Joules/Mol)
                                  194.06247 (Kcal/Mol)
 Warning -- explicit consideration of  24 degrees of freedom as
           vibrations may cause significant error
 Vibrational temperatures:     33.07    53.22    57.21    61.53    98.87
          (Kelvin)            135.50   185.75   209.51   245.05   265.12
                              347.71   389.43   433.13   441.51   516.71
                              545.62   567.34   625.85   674.00   717.13
                              734.73   746.23   776.06   855.37   896.34
                              919.52   970.72   992.88   999.11  1029.81
                             1041.84  1074.09  1099.35  1122.17  1160.00
                             1209.07  1238.18  1278.42  1285.15  1317.14
                             1331.22  1364.00  1391.50  1408.49  1417.02
                             1424.57  1451.26  1518.44  1536.17  1548.53
                             1568.12  1616.29  1633.89  1660.69  1667.21
                             1724.66  1749.84  1753.27  1758.52  1768.81
                             1794.14  1800.65  1826.77  1869.48  1888.31
                             1900.35  1907.33  1958.43  1969.76  1984.50
                             1988.02  2000.11  2034.45  2055.90  2067.18
                             2156.86  2159.01  2165.45  2171.84  2178.76
                             2189.39  2193.73  2206.28  2220.96  2300.54
                             2359.32  2400.60  2559.78  4341.63  4357.64
                             4360.94  4372.99  4424.39  4433.63  4449.88
                             4453.37  4556.59  4570.36  4591.68  4610.46
                             4625.59  4722.45  5105.48  5126.41  5258.69

 Zero-point correction=                           0.309258 (Hartree/Particle)
 Thermal correction to Energy=                    0.326189
 Thermal correction to Enthalpy=                  0.327133
 Thermal correction to Gibbs Free Energy=         0.262184
 Sum of electronic and zero-point Energies=           -892.473949
 Sum of electronic and thermal Energies=              -892.457019
 Sum of electronic and thermal Enthalpies=            -892.456074
 Sum of electronic and thermal Free Energies=         -892.521024

                     E (Thermal)             CV                S
                      KCal/Mol        Cal/Mol-Kelvin    Cal/Mol-Kelvin
 Total                  204.687             65.680            136.698
 Electronic               0.000              0.000              0.000
 Translational            0.889              2.981             42.691
 Rotational               0.889              2.981             33.923
 Vibrational            202.909             59.718             60.084
 Vibration     1          0.593              1.985              6.358
 Vibration     2          0.594              1.982              5.414
 Vibration     3          0.594              1.981              5.271
 Vibration     4          0.595              1.980              5.127
 Vibration     5          0.598              1.969              4.190
 Vibration     6          0.603              1.953              3.571
 Vibration     7          0.612              1.924              2.959
 Vibration     8          0.617              1.907              2.729
 Vibration     9          0.625              1.879              2.432
 Vibration    10          0.631              1.861              2.285
 Vibration    11          0.658              1.777              1.791
 Vibration    12          0.674              1.727              1.592
 Vibration    13          0.693              1.672              1.411
 Vibration    14          0.697              1.661              1.379
 Vibration    15          0.734              1.556              1.126
 Vibration    16          0.749              1.514              1.042
 Vibration    17          0.761              1.482              0.984
 Vibration    18          0.796              1.394              0.843
 Vibration    19          0.826              1.320              0.742
 Vibration    20          0.854              1.253              0.662
 Vibration    21          0.866              1.226              0.632
 Vibration    22          0.874              1.209              0.613
 Vibration    23          0.894              1.163              0.567
 Vibration    24          0.952              1.043              0.459

                           ! Non-Optimized Parameters !
 Normal termination of Gaussian 16 at Sat Dec 12 17:10:00 2020.

 ----------------------------------------------------------------------
 # B3LYP/6-311++G(d,p) empiricaldispersion=gd3bj scf=xqc pop=npa geom=c
 heck
 ----------------------------------------------------------------------

 ---------------------------------------
 CID_64531351_JID_10665_Energie_neutraal
 ---------------------------------------
 Structure from the checkpoint file:  "JID_10665.chk"
 Charge =  0 Multiplicity = 1

 SCF Done:  E(RB3LYP) =  -893.030496055     A.U. after   15 cycles
 Normal termination of Gaussian 16 at Sat Dec 12 17:19:38 2020.

 ----------------------------------------------------------------------
 # B3LYP/6-311++G(d,p) empiricaldispersion=gd3bj scf=xqc pop=npa geom=c
 heck
 ----------------------------------------------------------------------

 -------------------------------------
 CID_64531351_JID_10665_Energie_kation
 -------------------------------------
 Structure from the checkpoint file:  "JID_10665.chk"
 Charge =  1 Multiplicity = 2

 SCF Done:  E(UB3LYP) =  -892.736218350     A.U. after   31 cycles
 Normal termination of Gaussian 16 at Sat Dec 12 17:48:10 2020.
 Gaussian 16:  ES64L-G16RevA.03 25-Dec-2016

 ----------------------------------------------------------------------
 # B3LYP/6-311++G(d,p) empiricaldispersion=gd3bj scf=xqc pop=npa geom=c
 heck
 ----------------------------------------------------------------------

 ------------------------------------
 CID_64531351_JID_10665_Energie_anion
 ------------------------------------
 Structure from the checkpoint file:  "JID_10665.chk"
 Charge = -1 Multiplicity = 2

                         Standard orientation:
 ---------------------------------------------------------------------
 Center     Atomic      Atomic             Coordinates (Angstroms)
 Number     Number       Type             X           Y           Z
 ---------------------------------------------------------------------
      1          6           0       -2.876181    2.125007    0.319796
      2          6           0       -1.361212    2.355955    0.390605
      3          7           0       -0.669274    1.400196    1.258365
      4          6           0       -1.216724    0.023040    1.341827
      5          6           0       -2.264949   -0.298781    0.289208
      6          6           0       -2.448325   -1.608663   -0.167787
      7          6           0       -3.460531   -1.906308   -1.077891
      8          6           0       -4.298196   -0.892629   -1.545520
      9          6           0       -4.119794    0.413321   -1.093103
     10          6           0       -3.117440    0.719829   -0.168863
     11          6           0       -0.062838   -0.999449    1.389395
     12          8           0        0.078836   -1.715143    2.375403
     13          7           0        0.763722   -1.098994    0.309007
     14          6           0        0.839204   -0.235236   -0.852624
     15          6           0        1.880696    0.883908   -0.700164
     16          6           0        3.267608    0.340131   -0.557254
     17          7           0        3.605817   -0.929572   -0.356665
     18          6           0        4.969021   -0.890614   -0.288445
     19          7           0        5.506093    0.309578   -0.432738
     20          7           0        4.398215    1.083909   -0.603445
     21          1           0       -3.310311    2.272991    1.319837
     22          1           0       -3.351524    2.853883   -0.347281
     23          1           0       -1.126910    3.361810    0.753937
     24          1           0       -0.954493    2.284105   -0.627848
     25          1           0       -0.613370    1.771401    2.200130
     26          1           0       -1.696444   -0.113398    2.319872
     27          1           0       -1.797686   -2.398802    0.193547
     28          1           0       -3.591836   -2.927831   -1.422846
     29          1           0       -5.083424   -1.117518   -2.261724
     30          1           0       -4.764553    1.209590   -1.457808
     31          1           0        1.578407   -1.687429    0.454529
     32          1           0        1.090345   -0.856110   -1.719114
     33          1           0       -0.139958    0.202301   -1.043169
     34          1           0        1.834631    1.550234   -1.572603
     35          1           0        1.602861    1.474580    0.181084
     36          1           0        5.576747   -1.770248   -0.128747
     37          1           0        4.502793    2.078705   -0.741768
 ---------------------------------------------------------------------

 SCF Done:  E(UB3LYP) =  -893.026700368     A.U. after   33 cycles
 SCF Done:  E(UB3LYP) =  -893.026700368     a.u. after    1 cycles

 The electronic state is 2-A.
 Alpha  occ. eigenvalues --  -18.99430 -14.30501 -14.25588 -14.23785 -14.22218
 Alpha  occ. eigenvalues --  -14.21577 -10.17682 -10.16297 -10.13617 -10.12612
 Alpha  occ. eigenvalues --  -10.12222 -10.10592 -10.10216 -10.09882 -10.09551
 Alpha  occ. eigenvalues --  -10.09472 -10.09335 -10.09097 -10.09066 -10.08537
 Alpha  occ. eigenvalues --   -0.99173  -0.94471  -0.83886  -0.82609  -0.80994
 Alpha  occ. eigenvalues --   -0.77540  -0.75647  -0.70043  -0.68755  -0.67544
 Alpha  occ. eigenvalues --   -0.64806  -0.59050  -0.57772  -0.54692  -0.54522
 Alpha  occ. eigenvalues --   -0.53039  -0.52417  -0.49862  -0.47221  -0.44995
 Alpha  occ. eigenvalues --   -0.43974  -0.41639  -0.41117  -0.38913  -0.38244
 Alpha  occ. eigenvalues --   -0.38121  -0.37451  -0.36736  -0.35725  -0.35152
 Alpha  occ. eigenvalues --   -0.33904  -0.33275  -0.32778  -0.31809  -0.31572
 Alpha  occ. eigenvalues --   -0.30285  -0.29605  -0.29345  -0.29132  -0.27813
 Alpha  occ. eigenvalues --   -0.26770  -0.25848  -0.24854  -0.23925  -0.21737
 Alpha  occ. eigenvalues --   -0.20427  -0.18229  -0.17834  -0.16947  -0.16502
 Alpha  occ. eigenvalues --   -0.15979  -0.13681   0.03580
 Alpha virt. eigenvalues --    0.05502   0.05863   0.06407   0.06888   0.07354
 Alpha virt. eigenvalues --    0.07840   0.07858   0.08479   0.08815   0.09015
 Alpha virt. eigenvalues --    0.09897   0.10336   0.10625   0.11335   0.11547

  Beta  occ. eigenvalues --  -18.99426 -14.30446 -14.25585 -14.23784 -14.22213
  Beta  occ. eigenvalues --  -14.21562 -10.17678 -10.16299 -10.13617 -10.12609
  Beta  occ. eigenvalues --  -10.12215 -10.10557 -10.10215 -10.09881 -10.09519
  Beta  occ. eigenvalues --  -10.09470 -10.09324 -10.09072 -10.09031 -10.08517
  Beta  occ. eigenvalues --   -0.99142  -0.94463  -0.83868  -0.82583  -0.80959
  Beta  occ. eigenvalues --   -0.77505  -0.75606  -0.70002  -0.68726  -0.67507
  Beta  occ. eigenvalues --   -0.64752  -0.59016  -0.57733  -0.54634  -0.54466
  Beta  occ. eigenvalues --   -0.52993  -0.52367  -0.49834  -0.47176  -0.44948
  Beta  occ. eigenvalues --   -0.43931  -0.41608  -0.41094  -0.38885  -0.38217
  Beta  occ. eigenvalues --   -0.38094  -0.37413  -0.36700  -0.35698  -0.35133
  Beta  occ. eigenvalues --   -0.33871  -0.33246  -0.32746  -0.31788  -0.31518
  Beta  occ. eigenvalues --   -0.30251  -0.29573  -0.29317  -0.29100  -0.27786
  Beta  occ. eigenvalues --   -0.26702  -0.25824  -0.24832  -0.23888  -0.21713
  Beta  occ. eigenvalues --   -0.20421  -0.18210  -0.17752  -0.16921  -0.16421
  Beta  occ. eigenvalues --   -0.15957  -0.13656
  Beta virt. eigenvalues --    0.05690   0.06075   0.06641   0.06940   0.07152
  Beta virt. eigenvalues --    0.07729   0.07979   0.08239   0.08708   0.09272
  Beta virt. eigenvalues --    0.09424   0.10042   0.10520   0.10800   0.11537

 Mulliken charges and spin densities:
               1          2
     1  C    0.882791  -1.354496
     2  C    0.620840  -0.819871
     3  N   -0.216028   0.006971
     4  C   -0.213251   0.003633
     5  C   -0.003337   0.332670
     6  C   -0.317157   0.136137
     7  C   -0.162404  -0.193826
     8  C   -0.340334  -0.117942
     9  C    0.172905  -0.347777
    10  C   -0.219045   0.649301
    11  C   -0.287393  -0.047972
    12  O   -0.268725   0.003998
    13  N   -0.225987   0.010587
    14  C   -0.073328  -0.034933
    15  C   -0.473326   0.060141
    16  C    0.638808  -1.132260
    17  N   -0.147508  -0.030794
    18  C    0.057002   0.044208
    19  N   -0.104996   0.004604
    20  N   -0.049133  -0.018648
    21  H    0.024504   0.143061
    22  H   -0.231981   0.402103
    23  H   -0.855003   1.054269
    24  H    0.138233  -0.007734
    25  H    0.065799   0.220540
    26  H    0.150628   0.115672
    27  H    0.178825   0.019402
    28  H    0.124288   0.027922
    29  H    0.016837   0.133120
    30  H   -0.146004   0.305655
    31  H    0.374932  -0.007905
    32  H    0.147178   0.056550
    33  H    0.430337  -0.289604
    34  H   -0.581019   0.765854
    35  H    0.172324   0.118122
    36  H    0.141875   0.026748
    37  H   -0.422149   0.762493
 Sum of Mulliken charges =  -1.00000   1.00000

 Dipole moment (field-independent basis, Debye):
    X=             -3.7050    Y=             -6.7890    Z=             -1.7582  Tot=              7.9316
 Quadrupole moment (field-independent basis, Debye-Ang):
   XX=           -199.1457   YY=           -176.2235   ZZ=           -154.7319
   XY=             -8.3648   XZ=              7.0544   YZ=              8.2828

 Summary of Natural Population Analysis:

                                       Natural Population
                Natural  -----------------------------------------------
    Atom  No    Charge         Core      Valence    Rydberg      Total
 -----------------------------------------------------------------------
      C    1   -0.20486      0.99960     2.19636    0.00891     3.20486
      C    2   -0.08284      0.99962     2.07102    0.01220     3.08284
      N    3   -0.34361      0.99974     2.83106    0.01282     3.84361
      C    4   -0.05593      0.99950     2.04280    0.01363     3.05593
      C    5   -0.02213      0.99945     2.01362    0.00906     3.02213
      C    6   -0.09306      0.99952     2.08577    0.00777     3.09306
      C    7   -0.10336      0.99957     2.09418    0.00961     3.10336
      C    8   -0.10298      0.99957     2.09410    0.00932     3.10298
      C    9   -0.09416      0.99951     2.08492    0.00973     3.09416
      C   10   -0.01131      0.99946     2.00177    0.01008     3.01131
      C   11    0.34561      0.99964     1.63000    0.02475     2.65439
      O   12   -0.32513      0.99988     3.31970    0.00556     4.32513
      N   13   -0.32032      0.99965     2.81174    0.00892     3.82032
      C   14   -0.08530      0.99962     2.07426    0.01143     3.08530
      C   15   -0.22478      0.99958     2.21614    0.00906     3.22478
      C   16    0.20285      0.99963     1.78111    0.01641     2.79715
      N   17   -0.28546      0.99969     2.77767    0.00809     3.78546
      C   18    0.08859      0.99969     1.89380    0.01792     2.91141
      N   19   -0.16054      0.99974     2.64827    0.01254     3.66054
      N   20   -0.17581      0.99964     2.66263    0.01353     3.67581
      H   21    0.10403      0.00000     0.39455    0.00142     0.39597
      H   22    0.10513      0.00000     0.39361    0.00126     0.39487
      H   23    0.10494      0.00000     0.39115    0.00391     0.39506
      H   24    0.08549      0.00000     0.41253    0.00197     0.41451
      H   25    0.18238      0.00000     0.31540    0.00221     0.31762
      H   26    0.11163      0.00000     0.38700    0.00137     0.38837
      H   27    0.10673      0.00000     0.39208    0.00119     0.39327
      H   28    0.09900      0.00000     0.40026    0.00074     0.40100
      H   29    0.09891      0.00000     0.40034    0.00075     0.40109
      H   30    0.10053      0.00000     0.39854    0.00093     0.39947
      H   31    0.20669      0.00000     0.29083    0.00248     0.29331
      H   32    0.09818      0.00000     0.40064    0.00117     0.40182
      H   33    0.10700      0.00000     0.39120    0.00180     0.39300
      H   34    0.11357      0.00000     0.38425    0.00218     0.38643
      H   35    0.12728      0.00000     0.37067    0.00205     0.37272
      H   36    0.09159      0.00000     0.40770    0.00071     0.40841
      H   37    0.21144      0.00000     0.27720    0.01136     0.28856
 =======================================================================
   * Total *   -0.00000     19.99230    51.73885    0.26885    72.00000

 Normal termination of Gaussian 16 at Sat Dec 12 18:19:17 2020.
