 Gaussian 16, Revision A.03,

 -----------------------------------------------------------
 # opt freq B3LYP/6-31G(d) empiricaldispersion=gd3bj scf=xqc
 -----------------------------------------------------------

 ------------------------------
 CID_54488886_JID_1255_neutraal
 ------------------------------
 Symbolic Z-matrix:
 Charge =  0 Multiplicity = 1

 SCF Done:  E(RB3LYP) =  -464.699029621     A.U. after   15 cycles
 SCF Done:  E(RB3LYP) =  -464.699641700     A.U. after   14 cycles
 SCF Done:  E(RB3LYP) =  -464.701179861     A.U. after   13 cycles
 SCF Done:  E(RB3LYP) =  -464.702097704     A.U. after   13 cycles
 SCF Done:  E(RB3LYP) =  -464.702583420     A.U. after   12 cycles
 SCF Done:  E(RB3LYP) =  -464.702208379     A.U. after   13 cycles
 SCF Done:  E(RB3LYP) =  -464.703129886     A.U. after   12 cycles
 SCF Done:  E(RB3LYP) =  -464.703185818     A.U. after   12 cycles
 SCF Done:  E(RB3LYP) =  -464.703212879     A.U. after   11 cycles
 SCF Done:  E(RB3LYP) =  -464.703231307     A.U. after   11 cycles
 SCF Done:  E(RB3LYP) =  -464.703240765     A.U. after   10 cycles
 SCF Done:  E(RB3LYP) =  -464.703245490     A.U. after   10 cycles
 SCF Done:  E(RB3LYP) =  -464.703246092     A.U. after    8 cycles
 SCF Done:  E(RB3LYP) =  -464.703246227     A.U. after    7 cycles
 SCF Done:  E(RB3LYP) =  -464.703246264     A.U. after    7 cycles
 Optimization completed.
    -- Stationary point found.
 Normal termination of Gaussian 16 at Tue Dec  8 19:35:35 2020.

 --------------------------------------------------------------------
 #N Geom=AllCheck Guess=TCheck SCRF=Check GenChk RB3LYP/6-31G(d) Freq
 --------------------------------------------------------------------

 Structure from the checkpoint file:  "JID_1255.chk"
 ------------------------------
 CID_54488886_JID_1255_neutraal
 ------------------------------
 Charge =  0 Multiplicity = 1

 SCF Done:  E(RB3LYP) =  -464.703246264     A.U. after    1 cycles

  Exact polarizability: 114.013  -0.140 116.108   7.126   0.765  95.843
 Approx polarizability: 144.534   0.752 210.480   9.733   3.314 147.977

                      1                      2                      3
                      A                      A                      A
 Frequencies --     42.5394                56.4215                89.1297
 Red. masses --      4.0452                 2.8625                 2.6794
 Frc consts  --      0.0043                 0.0054                 0.0125
 IR Inten    --      2.5025                 1.1082                 0.6046

                      4                      5                      6
                      A                      A                      A
 Frequencies --    112.5934               136.9489               159.3728
 Red. masses --      3.3722                 1.5402                 1.6517
 Frc consts  --      0.0252                 0.0170                 0.0247
 IR Inten    --      3.4640                 0.4632                 0.0200

                      7                      8                      9
                      A                      A                      A
 Frequencies --    171.1922               181.9311               208.4784
 Red. masses --      1.7021                 1.1448                 1.6515
 Frc consts  --      0.0294                 0.0223                 0.0423
 IR Inten    --      0.7061                 0.3432                 5.3113

                     10                     11                     12
                      A                      A                      A
 Frequencies --    248.2026               281.5904               320.9240
 Red. masses --      2.6586                 3.0754                 2.7868
 Frc consts  --      0.0965                 0.1437                 0.1691
 IR Inten    --      3.1145                 0.5989                 0.8509

                     13                     14                     15
                      A                      A                      A
 Frequencies --    349.7236               375.1274               454.6239
 Red. masses --      2.3856                 2.5078                 2.5590
 Frc consts  --      0.1719                 0.2079                 0.3116
 IR Inten    --      7.2483                 1.5297                 1.3568

                     16                     17                     18
                      A                      A                      A
 Frequencies --    467.7173               512.3598               574.4524
 Red. masses --      2.3540                 3.9978                 3.3096
 Frc consts  --      0.3034                 0.6183                 0.6435
 IR Inten    --     16.3278                 8.5922                 0.9563

                     19                     20                     21
                      A                      A                      A
 Frequencies --    584.9608               691.8798               734.6575
 Red. masses --      3.2758                 2.4075                 2.2073
 Frc consts  --      0.6604                 0.6790                 0.7019
 IR Inten    --      0.1767                 1.7411                 9.8468

                     22                     23                     24
                      A                      A                      A
 Frequencies --    820.3304               851.8654               865.2129
 Red. masses --      2.8532                 2.7611                 1.5572
 Frc consts  --      1.1313                 1.1805                 0.6868
 IR Inten    --      2.6036                 2.0102                22.5761

                     25                     26                     27
                      A                      A                      A
 Frequencies --    902.9269               912.5816               958.4329
 Red. masses --      1.7362                 2.7042                 1.3711
 Frc consts  --      0.8340                 1.3269                 0.7421
 IR Inten    --     51.7515                 7.8307                37.0402

                     28                     29                     30
                      A                      A                      A
 Frequencies --    980.6019              1019.7909              1021.5683
 Red. masses --      1.4124                 1.2594                 1.1511
 Frc consts  --      0.8002                 0.7717                 0.7078
 IR Inten    --      0.5235                 4.0037                12.2961

                     31                     32                     33
                      A                      A                      A
 Frequencies --   1039.5213              1071.8006              1101.2620
 Red. masses --      1.3666                 1.5236                 1.5539
 Frc consts  --      0.8701                 1.0312                 1.1103
 IR Inten    --     14.9248                14.3524                11.1383

                     34                     35                     36
                      A                      A                      A
 Frequencies --   1114.3603              1116.6771              1171.2116
 Red. masses --      1.7232                 1.7167                 2.5525
 Frc consts  --      1.2608                 1.2613                 2.0630
 IR Inten    --      2.9372                 1.9354                 3.0459

                     37                     38                     39
                      A                      A                      A
 Frequencies --   1215.5375              1312.3200              1342.4618
 Red. masses --      2.5072                 3.0264                 1.2948
 Frc consts  --      2.1826                 3.0708                 1.3748
 IR Inten    --      1.0211               157.3403                 4.2716

                     40                     41                     42
                      A                      A                      A
 Frequencies --   1371.9199              1383.8641              1435.9249
 Red. masses --      1.6473                 1.4689                 1.3432
 Frc consts  --      1.8268                 1.6574                 1.6318
 IR Inten    --      8.2572                 3.9483                10.2819

                     43                     44                     45
                      A                      A                      A
 Frequencies --   1439.1604              1445.6239              1481.3039
 Red. masses --      1.2438                 1.2227                 1.2744
 Frc consts  --      1.5178                 1.5055                 1.6476
 IR Inten    --      1.8532                 2.7999                 9.5722

                     46                     47                     48
                      A                      A                      A
 Frequencies --   1501.4086              1506.9792              1508.5912
 Red. masses --      1.0510                 1.0484                 1.0494
 Frc consts  --      1.3959                 1.4027                 1.4072
 IR Inten    --      4.3975                 6.1949                 3.4585

                     49                     50                     51
                      A                      A                      A
 Frequencies --   1515.7736              1518.9018              1523.7401
 Red. masses --      1.0699                 1.0719                 1.0618
 Frc consts  --      1.4483                 1.4570                 1.4525
 IR Inten    --     20.2702                13.5537                13.5067

                     52                     53                     54
                      A                      A                      A
 Frequencies --   1686.1959              1709.2754              1714.9542
 Red. masses --      7.0424                 8.1343                 5.3959
 Frc consts  --     11.7973                14.0021                 9.3502
 IR Inten    --     34.5113               120.9314                30.7397

                     55                     56                     57
                      A                      A                      A
 Frequencies --   1721.8207              3029.0831              3035.7782
 Red. masses --      6.0960                 1.0409                 1.0448
 Frc consts  --     10.6480                 5.6269                 5.6730
 IR Inten    --    131.3594                13.7236                25.7270

                     58                     59                     60
                      A                      A                      A
 Frequencies --   3036.1850              3076.5468              3086.2726
 Red. masses --      1.0401                 1.0991                 1.0987
 Frc consts  --      5.6492                 6.1292                 6.1657
 IR Inten    --     29.6262                13.4711                20.7423

                     61                     62                     63
                      A                      A                      A
 Frequencies --   3088.0150              3135.9596              3136.6055
 Red. masses --      1.0939                 1.0993                 1.0949
 Frc consts  --      6.1462                 6.3698                 6.3467
 IR Inten    --     31.4222                13.9046                10.7520

                     64                     65                     66
                      A                      A                      A
 Frequencies --   3138.2788              3168.2928              3170.5704
 Red. masses --      1.0907                 1.0880                 1.0880
 Frc consts  --      6.3289                 6.4346                 6.4442
 IR Inten    --     25.6527                13.4415                 8.4622

                     67                     68                     69
                      A                      A                      A
 Frequencies --   3173.9149              3176.2819              3255.5405
 Red. masses --      1.0629                 1.0953                 1.1167
 Frc consts  --      6.3087                 6.5103                 6.9735
 IR Inten    --      4.9338                 7.1216                 9.1664

 - Thermochemistry -
 -------------------
 Temperature   298.150 Kelvin.  Pressure   1.00000 Atm.
 Atom     1 has atomic number  6 and mass  12.00000

 Molecular mass:   150.10447 amu.
 Principal axes and moments of inertia in atomic units:
                           1         2         3
     Eigenvalues --  1335.824702212.040822595.07082
           X            0.99982  -0.00929   0.01663
           Y            0.00877   0.99948   0.03097
           Z           -0.01691  -0.03082   0.99938
 This molecule is an asymmetric top.
 Rotational symmetry number  1.
 Warning -- assumption of classical behavior for rotation
           may cause significant error
 Rotational temperatures (Kelvin)      0.06484     0.03916     0.03338
 Rotational constants (GHZ):           1.35103     0.81587     0.69545
 Zero-point vibrational energy     560725.9 (Joules/Mol)
                                  134.01671 (Kcal/Mol)
 Warning -- explicit consideration of  19 degrees of freedom as
           vibrations may cause significant error
 Vibrational temperatures:     61.20    81.18   128.24   162.00   197.04
          (Kelvin)            229.30   246.31   261.76   299.95   357.11
                              405.15   461.74   503.17   539.72   654.10
                              672.94   737.17   826.51   841.63   995.46
                             1057.01  1180.27  1225.64  1244.85  1299.11
                             1313.00  1378.97  1410.87  1467.25  1469.81
                             1495.64  1542.08  1584.47  1603.32  1606.65
                             1685.11  1748.89  1888.14  1931.50  1973.89
                             1991.07  2065.98  2070.63  2079.93  2131.27
                             2160.19  2168.21  2170.53  2180.86  2185.36
                             2192.32  2426.06  2459.27  2467.44  2477.32
                             4358.18  4367.81  4368.39  4426.46  4440.46
                             4442.96  4511.95  4512.88  4515.28  4558.47
                             4561.74  4566.56  4569.96  4684.00

 Zero-point correction=                           0.213569 (Hartree/Particle)
 Thermal correction to Energy=                    0.226601
 Thermal correction to Enthalpy=                  0.227546
 Thermal correction to Gibbs Free Energy=         0.174100
 Sum of electronic and zero-point Energies=           -464.489677
 Sum of electronic and thermal Energies=              -464.476645
 Sum of electronic and thermal Enthalpies=            -464.475701
 Sum of electronic and thermal Free Energies=         -464.529147

                     E (Thermal)             CV                S
                      KCal/Mol        Cal/Mol-Kelvin    Cal/Mol-Kelvin
 Total                  142.195             46.604            112.486
 Electronic               0.000              0.000              0.000
 Translational            0.889              2.981             40.929
 Rotational               0.889              2.981             30.418
 Vibrational            140.417             40.642             41.140
 Vibration     1          0.595              1.980              5.137
 Vibration     2          0.596              1.975              4.579
 Vibration     3          0.602              1.957              3.679
 Vibration     4          0.607              1.939              3.224
 Vibration     5          0.614              1.916              2.846
 Vibration     6          0.621              1.892              2.557
 Vibration     7          0.626              1.878              2.422
 Vibration     8          0.630              1.864              2.309
 Vibration     9          0.642              1.828              2.057
 Vibration    10          0.662              1.766              1.743
 Vibration    11          0.681              1.708              1.524
 Vibration    12          0.706              1.633              1.305
 Vibration    13          0.727              1.576              1.167
 Vibration    14          0.746              1.523              1.059
 Vibration    15          0.813              1.351              0.782
 Vibration    16          0.825              1.322              0.744
 Vibration    17          0.867              1.223              0.628
 Vibration    18          0.931              1.087              0.496
 Vibration    19          0.942              1.064              0.476

                           ! Non-Optimized Parameters !
 Normal termination of Gaussian 16 at Tue Dec  8 19:40:59 2020.

 ----------------------------------------------------------------------
 # B3LYP/6-311++G(d,p) empiricaldispersion=gd3bj scf=xqc pop=npa geom=c
 heck
 ----------------------------------------------------------------------

 --------------------------------------
 CID_54488886_JID_1255_Energie_neutraal
 --------------------------------------
 Structure from the checkpoint file:  "JID_1255.chk"
 Charge =  0 Multiplicity = 1

 SCF Done:  E(RB3LYP) =  -464.836569129     A.U. after   16 cycles
 Normal termination of Gaussian 16 at Tue Dec  8 19:43:32 2020.

 ----------------------------------------------------------------------
 # B3LYP/6-311++G(d,p) empiricaldispersion=gd3bj scf=xqc pop=npa geom=c
 heck
 ----------------------------------------------------------------------

 ------------------------------------
 CID_54488886_JID_1255_Energie_kation
 ------------------------------------
 Structure from the checkpoint file:  "JID_1255.chk"
 Charge =  1 Multiplicity = 2

 SCF Done:  E(UB3LYP) =  -464.526514449     A.U. after   30 cycles
 Normal termination of Gaussian 16 at Tue Dec  8 19:50:27 2020.
 Gaussian 16:  ES64L-G16RevA.03 25-Dec-2016

 ----------------------------------------------------------------------
 # B3LYP/6-311++G(d,p) empiricaldispersion=gd3bj scf=xqc pop=npa geom=c
 heck
 ----------------------------------------------------------------------

 -----------------------------------
 CID_54488886_JID_1255_Energie_anion
 -----------------------------------
 Structure from the checkpoint file:  "JID_1255.chk"
 Charge = -1 Multiplicity = 2

                         Standard orientation:
 ---------------------------------------------------------------------
 Center     Atomic      Atomic             Coordinates (Angstroms)
 Number     Number       Type             X           Y           Z
 ---------------------------------------------------------------------
      1          6           0        3.233331   -0.802516    0.161378
      2          6           0        1.869166   -0.352034   -0.294544
      3          6           0        1.361703    0.805151    0.170812
      4          6           0        0.092152    1.499644   -0.151370
      5          8           0        0.046832    2.722943   -0.023925
      6          6           0       -1.135474    0.813390   -0.649961
      7          6           0       -1.760041   -0.275609   -0.156236
      8          6           0       -3.021463   -0.794363   -0.804769
      9          6           0       -1.316485   -1.033082    1.025520
     10          6           0       -0.826094   -0.498586    2.149067
     11          6           0        1.197674   -1.293722   -1.257136
     12          1           0        3.921970   -0.887747   -0.689999
     13          1           0        3.174112   -1.802029    0.614425
     14          1           0        3.670840   -0.118370    0.893418
     15          1           0        1.986943    1.412491    0.822477
     16          1           0       -1.622265    1.364520   -1.452792
     17          1           0       -2.889696   -1.839715   -1.115860
     18          1           0       -3.862358   -0.779447   -0.099963
     19          1           0       -3.296516   -0.207453   -1.685231
     20          1           0       -1.470115   -2.112255    0.978040
     21          1           0       -0.527698   -1.121170    2.987593
     22          1           0       -0.718884    0.574745    2.272795
     23          1           0        1.934690   -1.711854   -1.953018
     24          1           0        0.760079   -2.140445   -0.709078
     25          1           0        0.397429   -0.824446   -1.827972
 ---------------------------------------------------------------------

 SCF Done:  E(UB3LYP) =  -464.843592604     A.U. after   30 cycles

 The electronic state is 2-A.
 Alpha  occ. eigenvalues --  -18.90637 -10.05610 -10.04209 -10.03642 -10.03438
 Alpha  occ. eigenvalues --  -10.02989 -10.02800 -10.01803 -10.01431 -10.00818
 Alpha  occ. eigenvalues --  -10.00119  -0.84584  -0.67805  -0.66793  -0.59970
 Alpha  occ. eigenvalues --   -0.57071  -0.56215  -0.54158  -0.46700  -0.42657
 Alpha  occ. eigenvalues --   -0.39249  -0.35500  -0.32683  -0.31694  -0.31015
 Alpha  occ. eigenvalues --   -0.30721  -0.28720  -0.27315  -0.26880  -0.26171
 Alpha  occ. eigenvalues --   -0.25049  -0.24200  -0.24044  -0.22238  -0.21726
 Alpha  occ. eigenvalues --   -0.20962  -0.18017  -0.15195  -0.10423  -0.08963
 Alpha  occ. eigenvalues --   -0.07015   0.05101
 Alpha virt. eigenvalues --    0.08222   0.08931   0.09947   0.10528   0.11005
 Alpha virt. eigenvalues --    0.11759   0.12185   0.12897   0.13078   0.13395
 Alpha virt. eigenvalues --    0.14608   0.14719   0.15668   0.15765   0.16554

  Beta  occ. eigenvalues --  -18.90073 -10.05339 -10.04218 -10.03657 -10.03245
  Beta  occ. eigenvalues --  -10.02997 -10.02847 -10.01500 -10.01188 -10.00842
  Beta  occ. eigenvalues --  -10.00078  -0.83581  -0.67454  -0.66454  -0.59698
  Beta  occ. eigenvalues --   -0.56785  -0.56084  -0.54031  -0.46139  -0.42063
  Beta  occ. eigenvalues --   -0.38904  -0.35283  -0.32542  -0.31469  -0.30852
  Beta  occ. eigenvalues --   -0.30473  -0.28450  -0.27077  -0.26587  -0.26104
  Beta  occ. eigenvalues --   -0.24913  -0.24068  -0.23758  -0.21578  -0.20897
  Beta  occ. eigenvalues --   -0.20552  -0.17074  -0.14331  -0.09198  -0.08084
  Beta  occ. eigenvalues --   -0.06065
  Beta virt. eigenvalues --    0.08054   0.08940   0.09933   0.10426   0.10926
  Beta virt. eigenvalues --    0.11556   0.11734   0.12250   0.13020   0.13286
  Beta virt. eigenvalues --    0.13583   0.14535   0.14710   0.15653   0.15712

 Mulliken charges and spin densities:
               1          2
     1  C   -0.458881  -0.184874
     2  C    0.326827   0.449618
     3  C    0.592632  -0.427657
     4  C   -1.148509   0.271554
     5  O   -0.352929   0.191601
     6  C   -0.398800   0.059691
     7  C    0.875579   0.226244
     8  C   -0.590515  -0.104990
     9  C    0.111142  -0.090599
    10  C   -0.671640   0.204758
    11  C   -0.678592  -0.083675
    12  H    0.009513   0.106461
    13  H    0.108487   0.016165
    14  H    0.074372   0.059006
    15  H    0.133380   0.030448
    16  H    0.146149   0.007276
    17  H    0.053972   0.062461
    18  H    0.126820  -0.001698
    19  H    0.123629   0.008241
    20  H    0.089668   0.048885
    21  H    0.069504  -0.004073
    22  H    0.179363  -0.009406
    23  H    0.027608   0.104350
    24  H    0.154056  -0.021951
    25  H    0.097167   0.082164
 Sum of Mulliken charges =  -1.00000   1.00000

 Dipole moment (field-independent basis, Debye):
    X=              0.3481    Y=             -4.7538    Z=             -0.2979  Tot=              4.7758
 Quadrupole moment (field-independent basis, Debye-Ang):
   XX=            -91.0789   YY=            -97.7656   ZZ=            -81.3062
   XY=             -0.5257   XZ=              3.2704   YZ=             -0.0949

 Summary of Natural Population Analysis:

                                       Natural Population
                Natural  -----------------------------------------------
    Atom  No    Charge         Core      Valence    Rydberg      Total
 -----------------------------------------------------------------------
      C    1   -0.29263      0.99963     2.28836    0.00464     3.29263
      C    2    0.03428      0.99952     1.95820    0.00800     2.96572
      C    3   -0.13640      0.99943     2.12665    0.01032     3.13640
      C    4    0.26906      0.99962     1.70981    0.02152     2.73094
      O    5   -0.24855      0.99988     3.24190    0.00677     4.24855
      C    6   -0.12431      0.99945     2.11220    0.01265     3.12431
      C    7    0.01862      0.99948     1.97095    0.01094     2.98138
      C    8   -0.28849      0.99964     2.28454    0.00431     3.28849
      C    9   -0.12514      0.99955     2.11221    0.01338     3.12514
      C   10   -0.12826      0.99958     2.12220    0.00648     3.12826
      C   11   -0.30374      0.99962     2.29887    0.00525     3.30374
      H   12    0.09411      0.00000     0.40406    0.00183     0.40589
      H   13    0.09488      0.00000     0.40371    0.00140     0.40512
      H   14    0.09781      0.00000     0.40108    0.00111     0.40219
      H   15    0.09254      0.00000     0.40528    0.00218     0.40746
      H   16    0.09409      0.00000     0.40487    0.00103     0.40591
      H   17    0.09445      0.00000     0.40395    0.00160     0.40555
      H   18    0.09538      0.00000     0.40351    0.00111     0.40462
      H   19    0.09607      0.00000     0.40313    0.00080     0.40393
      H   20    0.08478      0.00000     0.41326    0.00196     0.41522
      H   21    0.08021      0.00000     0.41865    0.00114     0.41979
      H   22    0.09334      0.00000     0.40569    0.00097     0.40666
      H   23    0.09099      0.00000     0.40766    0.00135     0.40901
      H   24    0.10186      0.00000     0.39680    0.00134     0.39814
      H   25    0.11504      0.00000     0.38387    0.00109     0.38496
 =======================================================================
   * Total *   -0.00000     10.99542    29.88141    0.12317    41.00000

 Normal termination of Gaussian 16 at Tue Dec  8 19:57:47 2020.
