 Gaussian 16, Revision A.03,

 -----------------------------------------------------------
 # opt freq B3LYP/6-31G(d) empiricaldispersion=gd3bj scf=xqc
 -----------------------------------------------------------

 -------------------------------
 CID_66239098_JID_10754_neutraal
 -------------------------------
 Symbolic Z-matrix:
 Charge =  0 Multiplicity = 1

 SCF Done:  E(RB3LYP) =  -975.901837307     A.U. after   15 cycles
 SCF Done:  E(RB3LYP) =  -975.909591204     A.U. after   13 cycles
 SCF Done:  E(RB3LYP) =  -975.910262693     A.U. after   12 cycles
 SCF Done:  E(RB3LYP) =  -975.910236002     A.U. after   13 cycles
 SCF Done:  E(RB3LYP) =  -975.910971805     A.U. after   12 cycles
 SCF Done:  E(RB3LYP) =  -975.911207937     A.U. after   12 cycles
 SCF Done:  E(RB3LYP) =  -975.911425149     A.U. after   12 cycles
 SCF Done:  E(RB3LYP) =  -975.911648005     A.U. after   11 cycles
 SCF Done:  E(RB3LYP) =  -975.911760396     A.U. after   12 cycles
 SCF Done:  E(RB3LYP) =  -975.911836233     A.U. after   10 cycles
 SCF Done:  E(RB3LYP) =  -975.916698907     A.U. after    9 cycles
 SCF Done:  E(RB3LYP) =  -975.916700612     A.U. after    8 cycles
 SCF Done:  E(RB3LYP) =  -975.916700856     A.U. after    8 cycles
 SCF Done:  E(RB3LYP) =  -975.916700856     A.U. after    8 cycles
 Optimization completed.
    -- Stationary point found.
 Normal termination of Gaussian 16 at Sun Dec 13 14:04:54 2020.

 --------------------------------------------------------------------
 #N Geom=AllCheck Guess=TCheck SCRF=Check GenChk RB3LYP/6-31G(d) Freq
 --------------------------------------------------------------------

 Structure from the checkpoint file:  "JID_10754.chk"
 -------------------------------
 CID_66239098_JID_10754_neutraal
 -------------------------------
 Charge =  0 Multiplicity = 1

 SCF Done:  E(RB3LYP) =  -975.916700856     A.U. after    1 cycles

  Exact polarizability: 181.070  -3.121 140.366  -6.466  -6.188 138.986
 Approx polarizability: 227.623  -7.055 209.025 -21.065 -17.021 241.297

                      1                      2                      3
                      A                      A                      A
 Frequencies --     24.9710                33.8963                38.4850
 Red. masses --      2.7708                 4.9404                 4.4594
 Frc consts  --      0.0010                 0.0033                 0.0039
 IR Inten    --      0.0113                 0.5371                 0.3564

                      4                      5                      6
                      A                      A                      A
 Frequencies --     61.8422                72.2588                88.0311
 Red. masses --      6.4693                 5.2295                 3.6836
 Frc consts  --      0.0146                 0.0161                 0.0168
 IR Inten    --      2.3255                 0.3990                 0.8685

                      7                      8                      9
                      A                      A                      A
 Frequencies --    107.5615               146.1302               171.1775
 Red. masses --      5.3196                 7.9276                 4.3553
 Frc consts  --      0.0363                 0.0997                 0.0752
 IR Inten    --      4.1203                 2.2367                 0.3568

                     10                     11                     12
                      A                      A                      A
 Frequencies --    198.7080               222.7646               252.2334
 Red. masses --      2.8121                 4.7956                 5.5615
 Frc consts  --      0.0654                 0.1402                 0.2085
 IR Inten    --      0.3701                 2.7658                 2.9944

                     13                     14                     15
                      A                      A                      A
 Frequencies --    261.8764               305.4125               313.3988
 Red. masses --      4.1765                 1.8763                 2.9275
 Frc consts  --      0.1688                 0.1031                 0.1694
 IR Inten    --      8.1075                 2.0712                 4.2838

                     16                     17                     18
                      A                      A                      A
 Frequencies --    358.2488               365.1409               383.5895
 Red. masses --      3.0966                 2.6852                 3.4519
 Frc consts  --      0.2342                 0.2109                 0.2993
 IR Inten    --      0.1308                 0.0821                 8.2321

                     19                     20                     21
                      A                      A                      A
 Frequencies --    411.6190               436.3106               469.6412
 Red. masses --      4.1044                 5.1316                 3.6329
 Frc consts  --      0.4097                 0.5756                 0.4721
 IR Inten    --      0.7086                13.4011                24.9606

                     22                     23                     24
                      A                      A                      A
 Frequencies --    476.2091               529.5368               553.3073
 Red. masses --      4.0302                 4.3479                 2.7462
 Frc consts  --      0.5385                 0.7183                 0.4954
 IR Inten    --      6.4509                11.9745                 3.8516

                     25                     26                     27
                      A                      A                      A
 Frequencies --    555.5551               593.6727               618.2809
 Red. masses --      2.8023                 3.5669                 2.5582
 Frc consts  --      0.5096                 0.7407                 0.5762
 IR Inten    --      5.9769                 5.7769                19.7332

                     28                     29                     30
                      A                      A                      A
 Frequencies --    620.4796               645.1322               656.3705
 Red. masses --      2.9037                 2.7861                 3.5417
 Frc consts  --      0.6587                 0.6832                 0.8990
 IR Inten    --     19.6821                30.2364                33.6117

                     31                     32                     33
                      A                      A                      A
 Frequencies --    672.8539               687.4828               746.0546
 Red. masses --      2.6161                 2.2921                 3.4207
 Frc consts  --      0.6978                 0.6383                 1.1218
 IR Inten    --     14.9100                72.8116                11.3194

                     34                     35                     36
                      A                      A                      A
 Frequencies --    763.1521               790.8525               849.4131
 Red. masses --      3.6376                 2.4431                 1.9007
 Frc consts  --      1.2482                 0.9003                 0.8080
 IR Inten    --     25.7323                 2.4962                 0.6861

                     37                     38                     39
                      A                      A                      A
 Frequencies --    865.7729               887.2437               904.4668
 Red. masses --      3.5126                 2.3257                 1.5668
 Frc consts  --      1.5513                 1.0787                 0.7552
 IR Inten    --      6.3106                 4.2589                 1.5650

                     40                     41                     42
                      A                      A                      A
 Frequencies --    924.1540               939.0975               945.1941
 Red. masses --      2.4931                 2.0319                 2.6425
 Frc consts  --      1.2545                 1.0558                 1.3909
 IR Inten    --      0.8067                 0.4062                10.8287

                     43                     44                     45
                      A                      A                      A
 Frequencies --    964.2402               975.0046               988.3655
 Red. masses --      3.7141                 2.8171                 2.0181
 Frc consts  --      2.0346                 1.5779                 1.1615
 IR Inten    --     41.8678                 3.7389                 6.0940

                     46                     47                     48
                      A                      A                      A
 Frequencies --   1010.2987              1032.4110              1041.8257
 Red. masses --      2.3730                 1.8262                 2.0282
 Frc consts  --      1.4271                 1.1469                 1.2970
 IR Inten    --      2.8639                 3.6096                 0.5364

                     49                     50                     51
                      A                      A                      A
 Frequencies --   1057.0612              1071.1372              1084.6061
 Red. masses --      1.4746                 3.1739                 1.9340
 Frc consts  --      0.9708                 2.1455                 1.3404
 IR Inten    --      1.0393                 3.1861                13.2677

                     52                     53                     54
                      A                      A                      A
 Frequencies --   1093.1153              1104.9469              1111.0994
 Red. masses --      2.1588                 2.9418                 3.2680
 Frc consts  --      1.5198                 2.1162                 2.3770
 IR Inten    --      5.5945                 3.6545                18.5952

                     55                     56                     57
                      A                      A                      A
 Frequencies --   1127.1004              1142.5464              1153.2559
 Red. masses --      2.8282                 3.3885                 3.3528
 Frc consts  --      2.1168                 2.6062                 2.6273
 IR Inten    --      1.2831                30.1782                40.5383

                     58                     59                     60
                      A                      A                      A
 Frequencies --   1183.2305              1201.6301              1207.8734
 Red. masses --      1.4425                 1.5360                 2.1585
 Frc consts  --      1.1899                 1.3067                 1.8555
 IR Inten    --     85.9132                41.9691               218.2405

                     61                     62                     63
                      A                      A                      A
 Frequencies --   1241.4562              1264.3107              1270.8773
 Red. masses --      1.1835                 1.3694                 1.3973
 Frc consts  --      1.0747                 1.2897                 1.3297
 IR Inten    --      8.4326                 2.8415                 3.3560

                     64                     65                     66
                      A                      A                      A
 Frequencies --   1276.3034              1283.5297              1299.1907
 Red. masses --      1.4394                 2.0382                 1.6155
 Frc consts  --      1.3814                 1.9784                 1.6066
 IR Inten    --     13.2921               133.4250                16.4773

                     67                     68                     69
                      A                      A                      A
 Frequencies --   1313.1983              1315.0033              1317.5374
 Red. masses --      1.3354                 1.4252                 1.3117
 Frc consts  --      1.3568                 1.4521                 1.3415
 IR Inten    --      5.3665                10.3624                16.5140

                     70                     71                     72
                      A                      A                      A
 Frequencies --   1328.1577              1343.4769              1349.1448
 Red. masses --      1.5732                 1.5698                 1.2565
 Frc consts  --      1.6351                 1.6694                 1.3475
 IR Inten    --      0.5564                 5.8822                 1.2199

                     73                     74                     75
                      A                      A                      A
 Frequencies --   1363.5422              1370.8273              1377.8338
 Red. masses --      1.2966                 1.5860                 1.8590
 Frc consts  --      1.4203                 1.7560                 2.0794
 IR Inten    --     12.3112                25.0801                63.8815

                     76                     77                     78
                      A                      A                      A
 Frequencies --   1382.2022              1384.3854              1392.2928
 Red. masses --      1.4301                 1.5720                 2.1717
 Frc consts  --      1.6097                 1.7750                 2.4804
 IR Inten    --     10.4981                25.5817                62.3899

                     79                     80                     81
                      A                      A                      A
 Frequencies --   1403.8848              1420.6358              1457.4492
 Red. masses --      3.2386                 1.4057                 1.4463
 Frc consts  --      3.7607                 1.6715                 1.8100
 IR Inten    --     94.8330                11.6876                59.6158

                     82                     83                     84
                      A                      A                      A
 Frequencies --   1484.8326              1500.7986              1517.7018
 Red. masses --      1.0836                 1.0905                 1.0889
 Frc consts  --      1.4076                 1.4471                 1.4778
 IR Inten    --      2.3779                 6.1432                 1.4194

                     85                     86                     87
                      A                      A                      A
 Frequencies --   1523.1869              1524.1850              1531.3995
 Red. masses --      1.0812                 1.0925                 1.0815
 Frc consts  --      1.4779                 1.4954                 1.4943
 IR Inten    --      6.0006                 2.1565                 0.0919

                     88                     89                     90
                      A                      A                      A
 Frequencies --   1544.0138              1547.7152              1763.1332
 Red. masses --      1.1055                 1.1011                11.7767
 Frc consts  --      1.5528                 1.5540                21.5697
 IR Inten    --      1.1194                 8.0054               359.2698

                     91                     92                     93
                      A                      A                      A
 Frequencies --   1813.6538              1828.2024              3039.0265
 Red. masses --     11.5579                 9.9854                 1.0686
 Frc consts  --     22.3995                19.6637                 5.8148
 IR Inten    --     99.1462               293.0248                 2.6201

                     94                     95                     96
                      A                      A                      A
 Frequencies --   3040.1305              3043.5312              3045.3662
 Red. masses --      1.0674                 1.0702                 1.0671
 Frc consts  --      5.8125                 5.8410                 5.8310
 IR Inten    --      9.6649                10.7429                34.5260

                     97                     98                     99
                      A                      A                      A
 Frequencies --   3050.3966              3052.0306              3055.8877
 Red. masses --      1.0828                 1.0633                 1.0636
 Frc consts  --      5.9364                 5.8354                 5.8517
 IR Inten    --      8.0150                31.3755                23.0465

                    100                    101                    102
                      A                      A                      A
 Frequencies --   3063.7167              3086.0035              3095.9450
 Red. masses --      1.0616                 1.0602                 1.0986
 Frc consts  --      5.8712                 5.9490                 6.2038
 IR Inten    --     39.0630                25.1370                41.1366

                    103                    104                    105
                      A                      A                      A
 Frequencies --   3097.4989              3106.2977              3112.1721
 Red. masses --      1.0981                 1.0974                 1.1035
 Frc consts  --      6.2077                 6.2388                 6.2974
 IR Inten    --      0.6288                44.1938                34.2956

                    106                    107                    108
                      A                      A                      A
 Frequencies --   3118.6788              3121.3933              3122.9216
 Red. masses --      1.0951                 1.0949                 1.1048
 Frc consts  --      6.2752                 6.2854                 6.3483
 IR Inten    --     20.1290                15.5314                28.4430

                    109                    110                    111
                      A                      A                      A
 Frequencies --   3148.7370              3185.2127              3683.1140
 Red. masses --      1.1079                 1.0859                 1.0639
 Frc consts  --      6.4717                 6.4910                 8.5028
 IR Inten    --     30.0284                10.5899                49.7220

 - Thermochemistry -
 -------------------
 Temperature   298.150 Kelvin.  Pressure   1.00000 Atm.
 Atom     1 has atomic number  6 and mass  12.00000

 Molecular mass:   281.12632 amu.
 Principal axes and moments of inertia in atomic units:
                           1         2         3
     Eigenvalues --  2690.810608007.183628386.13385
           X            0.99998  -0.00387   0.00475
           Y            0.00382   0.99992   0.01175
           Z           -0.00480  -0.01173   0.99992
 This molecule is an asymmetric top.
 Rotational symmetry number  1.
 Warning -- assumption of classical behavior for rotation
           may cause significant error
 Rotational temperatures (Kelvin)      0.03219     0.01082     0.01033
 Rotational constants (GHZ):           0.67071     0.22539     0.21521
 Zero-point vibrational energy     864298.7 (Joules/Mol)
                                  206.57234 (Kcal/Mol)
 Warning -- explicit consideration of  28 degrees of freedom as
           vibrations may cause significant error
 Vibrational temperatures:     35.93    48.77    55.37    88.98   103.96
          (Kelvin)            126.66   154.76   210.25   246.29   285.90
                              320.51   362.91   376.78   439.42   450.91
                              515.44   525.36   551.90   592.23   627.75
                              675.71   685.16   761.89   796.09   799.32
                              854.16   889.57   892.73   928.20   944.37
                              968.09   989.13  1073.41  1098.01  1137.86
                             1222.12  1245.65  1276.55  1301.33  1329.65
                             1351.15  1359.92  1387.33  1402.81  1422.04
                             1453.59  1485.41  1498.95  1520.88  1541.13
                             1560.51  1572.75  1589.77  1598.62  1621.65
                             1643.87  1659.28  1702.40  1728.88  1737.86
                             1786.18  1819.06  1828.51  1836.32  1846.71
                             1869.25  1889.40  1892.00  1895.64  1910.92
                             1932.96  1941.12  1961.83  1972.31  1982.40
                             1988.68  1991.82  2003.20  2019.88  2043.98
                             2096.94  2136.34  2159.31  2183.63  2191.53
                             2192.96  2203.34  2221.49  2226.82  2536.76
                             2609.44  2630.38  4372.48  4374.07  4378.96
                             4381.60  4388.84  4391.19  4396.74  4408.00
                             4440.07  4454.37  4456.61  4469.27  4477.72
                             4487.08  4490.99  4493.19  4530.33  4582.81
                             5299.18

 Zero-point correction=                           0.329194 (Hartree/Particle)
 Thermal correction to Energy=                    0.346855
 Thermal correction to Enthalpy=                  0.347799
 Thermal correction to Gibbs Free Energy=         0.281923
 Sum of electronic and zero-point Energies=           -975.587507
 Sum of electronic and thermal Energies=              -975.569846
 Sum of electronic and thermal Enthalpies=            -975.568902
 Sum of electronic and thermal Free Energies=         -975.634778

                     E (Thermal)             CV                S
                      KCal/Mol        Cal/Mol-Kelvin    Cal/Mol-Kelvin
 Total                  217.655             68.494            138.647
 Electronic               0.000              0.000              0.000
 Translational            0.889              2.981             42.799
 Rotational               0.889              2.981             33.557
 Vibrational            215.877             62.533             62.291
 Vibration     1          0.593              1.985              6.194
 Vibration     2          0.594              1.983              5.587
 Vibration     3          0.594              1.982              5.336
 Vibration     4          0.597              1.973              4.398
 Vibration     5          0.598              1.967              4.091
 Vibration     6          0.601              1.958              3.703
 Vibration     7          0.606              1.943              3.312
 Vibration     8          0.617              1.907              2.722
 Vibration     9          0.626              1.878              2.423
 Vibration    10          0.637              1.842              2.145
 Vibration    11          0.648              1.806              1.937
 Vibration    12          0.664              1.759              1.715
 Vibration    13          0.669              1.743              1.649
 Vibration    14          0.696              1.663              1.387
 Vibration    15          0.701              1.648              1.344
 Vibration    16          0.733              1.558              1.130
 Vibration    17          0.738              1.544              1.100
 Vibration    18          0.753              1.505              1.025
 Vibration    19          0.776              1.445              0.921
 Vibration    20          0.797              1.391              0.838
 Vibration    21          0.827              1.317              0.739
 Vibration    22          0.833              1.303              0.720
 Vibration    23          0.884              1.185              0.588
 Vibration    24          0.909              1.132              0.537
 Vibration    25          0.911              1.128              0.533
 Vibration    26          0.951              1.045              0.461
 Vibration    27          0.978              0.993              0.419
 Vibration    28          0.981              0.989              0.416

 Optimization completed.
    -- Stationary point found.
 Normal termination of Gaussian 16 at Sun Dec 13 14:27:20 2020.

 ----------------------------------------------------------------------
 # B3LYP/6-311++G(d,p) empiricaldispersion=gd3bj scf=xqc pop=npa geom=c
 heck
 ----------------------------------------------------------------------

 ---------------------------------------
 CID_66239098_JID_10754_Energie_neutraal
 ---------------------------------------
 Structure from the checkpoint file:  "JID_10754.chk"
 Charge =  0 Multiplicity = 1

 SCF Done:  E(RB3LYP) =  -976.200784139     A.U. after   16 cycles
 Normal termination of Gaussian 16 at Sun Dec 13 14:36:06 2020.

 ----------------------------------------------------------------------
 # B3LYP/6-311++G(d,p) empiricaldispersion=gd3bj scf=xqc pop=npa geom=c
 heck
 ----------------------------------------------------------------------

 -------------------------------------
 CID_66239098_JID_10754_Energie_kation
 -------------------------------------
 Structure from the checkpoint file:  "JID_10754.chk"
 Charge =  1 Multiplicity = 2

 SCF Done:  E(UB3LYP) =  -975.870551123     A.U. after   33 cycles
 SCF Done:  E(UB3LYP) =  -975.870551123     a.u. after    1 cycles
 Normal termination of Gaussian 16 at Sun Dec 13 15:00:42 2020.
 Gaussian 16:  ES64L-G16RevA.03 25-Dec-2016

 ----------------------------------------------------------------------
 # B3LYP/6-311++G(d,p) empiricaldispersion=gd3bj scf=xqc pop=npa geom=c
 heck
 ----------------------------------------------------------------------

 ------------------------------------
 CID_66239098_JID_10754_Energie_anion
 ------------------------------------
 Structure from the checkpoint file:  "JID_10754.chk"
 Charge = -1 Multiplicity = 2

                         Standard orientation:
 ---------------------------------------------------------------------
 Center     Atomic      Atomic             Coordinates (Angstroms)
 Number     Number       Type             X           Y           Z
 ---------------------------------------------------------------------
      1          6           0       -4.627912    0.379812   -0.990862
      2          6           0       -4.310969   -1.091222   -0.688987
      3          6           0       -2.789198   -1.095197   -0.441807
      4          6           0       -2.429147    0.335133    0.092429
      5          6           0       -3.766105    1.122464    0.038460
      6          6           0       -1.361335    0.996011   -0.783205
      7          6           0       -0.020410    0.301284   -0.731070
      8          8           0        0.771077    0.361869   -1.660108
      9          7           0        0.308999   -0.385531    0.439016
     10          6           0       -0.503255   -0.399899    1.593182
     11          8           0       -0.132745   -0.948343    2.614273
     12          6           0       -1.845975    0.294019    1.504902
     13          6           0        1.649872   -0.968746    0.565903
     14          6           0        1.932492   -2.114021   -0.441492
     15          8           0        3.305765   -1.998142   -0.780992
     16          6           0        3.587259   -0.604609   -0.865819
     17          6           0        2.856983   -0.000456    0.349934
     18          6           0        2.538611    1.472891    0.276303
     19          8           0        1.659470    2.048873    0.883871
     20          8           0        3.419693    2.129528   -0.512476
     21          1           0       -4.306956    0.633106   -2.010026
     22          1           0       -5.692761    0.621496   -0.912721
     23          1           0       -4.611245   -1.776781   -1.487673
     24          1           0       -4.841708   -1.398646    0.221239
     25          1           0       -2.257629   -1.287339   -1.381261
     26          1           0       -2.485650   -1.882644    0.255949
     27          1           0       -4.255877    1.077246    1.020093
     28          1           0       -3.612807    2.181198   -0.197067
     29          1           0       -1.181959    2.026761   -0.445297
     30          1           0       -1.651629    1.046805   -1.836209
     31          1           0       -1.699864    1.316714    1.881456
     32          1           0       -2.507647   -0.215503    2.211049
     33          1           0        1.675797   -1.350974    1.581801
     34          1           0        1.781635   -3.100786    0.003827
     35          1           0        1.293623   -2.015200   -1.326528
     36          1           0        3.201739   -0.176411   -1.796417
     37          1           0        4.670779   -0.479785   -0.823950
     38          1           0        3.507356   -0.105460    1.227870
     39          1           0        3.160271    3.069857   -0.483019
 ---------------------------------------------------------------------

 SCF Done:  E(UB3LYP) =  -976.193263755     A.U. after   33 cycles
 SCF Done:  E(UB3LYP) =  -976.193263755     a.u. after    1 cycles

 The electronic state is 2-A.
 Alpha  occ. eigenvalues --  -19.07352 -19.03470 -19.01570 -18.98913 -18.98538
 Alpha  occ. eigenvalues --  -14.25511 -10.21054 -10.16614 -10.15765 -10.12292
 Alpha  occ. eigenvalues --  -10.12103 -10.12089 -10.10190 -10.09324 -10.07955
 Alpha  occ. eigenvalues --  -10.07574 -10.07349 -10.07268 -10.07242 -10.07194
 Alpha  occ. eigenvalues --   -1.01423  -0.95735  -0.95000  -0.93320  -0.92232
 Alpha  occ. eigenvalues --   -0.83194  -0.76316  -0.71022  -0.68506  -0.64942
 Alpha  occ. eigenvalues --   -0.63000  -0.62081  -0.57862  -0.56067  -0.53279
 Alpha  occ. eigenvalues --   -0.51670  -0.50103  -0.48353  -0.45724  -0.43552
 Alpha  occ. eigenvalues --   -0.42601  -0.40141  -0.39883  -0.39403  -0.38485
 Alpha  occ. eigenvalues --   -0.37761  -0.36748  -0.36310  -0.35150  -0.34574
 Alpha  occ. eigenvalues --   -0.34219  -0.33909  -0.32311  -0.31666  -0.31062
 Alpha  occ. eigenvalues --   -0.30915  -0.30698  -0.28678  -0.27966  -0.27550
 Alpha  occ. eigenvalues --   -0.25745  -0.25239  -0.25153  -0.24674  -0.24602
 Alpha  occ. eigenvalues --   -0.24340  -0.23569  -0.22832  -0.22657  -0.22284
 Alpha  occ. eigenvalues --   -0.18959  -0.17672  -0.16381  -0.16048  -0.14957
 Alpha  occ. eigenvalues --    0.04335
 Alpha virt. eigenvalues --    0.05617   0.06449   0.07487   0.07772   0.08190
 Alpha virt. eigenvalues --    0.08599   0.09182   0.09778   0.10115   0.10442
 Alpha virt. eigenvalues --    0.11157   0.11521   0.11828   0.11893   0.12801

  Beta  occ. eigenvalues --  -19.07306 -19.03469 -19.01558 -18.98721 -18.98390
  Beta  occ. eigenvalues --  -14.25595 -10.21004 -10.16422 -10.15469 -10.12295
  Beta  occ. eigenvalues --  -10.12097 -10.12085 -10.10188 -10.09316 -10.07967
  Beta  occ. eigenvalues --  -10.07596 -10.07343 -10.07255 -10.07235 -10.07169
  Beta  occ. eigenvalues --   -1.01340  -0.95644  -0.94779  -0.92976  -0.92169
  Beta  occ. eigenvalues --   -0.83118  -0.76289  -0.70958  -0.68473  -0.64923
  Beta  occ. eigenvalues --   -0.62803  -0.62052  -0.57769  -0.55994  -0.53044
  Beta  occ. eigenvalues --   -0.51584  -0.50018  -0.48285  -0.45644  -0.43487
  Beta  occ. eigenvalues --   -0.42534  -0.40048  -0.39773  -0.39332  -0.38324
  Beta  occ. eigenvalues --   -0.37691  -0.36620  -0.36102  -0.35076  -0.34364
  Beta  occ. eigenvalues --   -0.34039  -0.33798  -0.32148  -0.31546  -0.30885
  Beta  occ. eigenvalues --   -0.30866  -0.30497  -0.28527  -0.27898  -0.27392
  Beta  occ. eigenvalues --   -0.25518  -0.25180  -0.24900  -0.24630  -0.24345
  Beta  occ. eigenvalues --   -0.24163  -0.23529  -0.22788  -0.22520  -0.22175
  Beta  occ. eigenvalues --   -0.18878  -0.17590  -0.16123  -0.15902  -0.14830
  Beta virt. eigenvalues --    0.06495   0.06821   0.07830   0.08069   0.08417
  Beta virt. eigenvalues --    0.08791   0.08857   0.09407   0.09920   0.10359
  Beta virt. eigenvalues --    0.10502   0.11187   0.11589   0.11856   0.12203

 Mulliken charges and spin densities:
               1          2
     1  C   -0.252030  -0.093716
     2  C    0.751337  -1.375207
     3  C   -0.813630   0.498356
     4  C    1.481238  -0.084861
     5  C   -0.361048   0.071359
     6  C   -0.726758  -0.308374
     7  C   -0.741970   0.398448
     8  O   -0.165009   0.046955
     9  N    0.432702  -0.054256
    10  C   -0.180198   0.101765
    11  O   -0.310480   0.062246
    12  C   -0.467531  -0.218298
    13  C   -0.442068  -0.032582
    14  C   -0.166378   0.027537
    15  O   -0.113706   0.003734
    16  C   -0.360949  -0.304169
    17  C    0.559664  -0.070957
    18  C    0.087413  -0.294643
    19  O   -0.233937   0.017550
    20  O   -0.126661   0.030374
    21  H    0.140926  -0.024799
    22  H   -0.714309   0.902815
    23  H   -0.118011   0.279935
    24  H   -0.057581   0.198961
    25  H    0.206761  -0.023864
    26  H    0.141549   0.034460
    27  H   -0.085140   0.247857
    28  H    0.106202   0.043190
    29  H    0.188005   0.037722
    30  H    0.186660   0.030501
    31  H    0.183514   0.030438
    32  H    0.215685   0.010759
    33  H    0.245719  -0.013333
    34  H    0.166943   0.002243
    35  H    0.217082   0.000083
    36  H    0.247053  -0.002860
    37  H    0.088405   0.098989
    38  H    0.063311   0.160247
    39  H   -0.272774   0.565397
 Sum of Mulliken charges =  -1.00000   1.00000

 Dipole moment (field-independent basis, Debye):
    X=              2.6831    Y=             -1.7022    Z=             -0.2566  Tot=              3.1878
 Quadrupole moment (field-independent basis, Debye-Ang):
   XX=           -216.0710   YY=           -150.6516   ZZ=           -152.3046
   XY=             -8.2534   XZ=              2.6235   YZ=              2.0616

 Summary of Natural Population Analysis:

                                       Natural Population
                Natural  -----------------------------------------------
    Atom  No    Charge         Core      Valence    Rydberg      Total
 -----------------------------------------------------------------------
      C    1   -0.19142      0.99964     2.18300    0.00878     3.19142
      C    2   -0.19167      0.99964     2.18327    0.00877     3.19167
      C    3   -0.18949      0.99960     2.18157    0.00832     3.18949
      C    4   -0.03688      0.99957     2.02656    0.01075     3.03688
      C    5   -0.18610      0.99960     2.17685    0.00965     3.18610
      C    6   -0.23082      0.99955     2.22187    0.00940     3.23082
      C    7    0.39972      0.99966     1.57786    0.02276     2.60028
      O    8   -0.31075      0.99988     3.30557    0.00531     4.31075
      N    9   -0.27790      0.99959     2.76869    0.00962     3.77790
      C   10    0.38976      0.99966     1.58800    0.02257     2.61024
      O   11   -0.29498      0.99987     3.29005    0.00505     4.29498
      C   12   -0.23087      0.99955     2.22130    0.01002     3.23087
      C   13   -0.01716      0.99956     2.00296    0.01464     3.01716
      C   14   -0.01016      0.99958     2.00027    0.01031     3.01016
      O   15   -0.29949      0.99990     3.29169    0.00791     4.29949
      C   16   -0.00921      0.99958     1.99547    0.01416     3.00921
      C   17   -0.17122      0.99952     2.16019    0.01151     3.17122
      C   18    0.42281      0.99967     1.55199    0.02552     2.57719
      O   19   -0.31239      0.99987     3.30671    0.00581     4.31239
      O   20   -0.34384      0.99987     3.33748    0.00648     4.34384
      H   21    0.09222      0.00000     0.40673    0.00104     0.40778
      H   22    0.10330      0.00000     0.39438    0.00232     0.39670
      H   23    0.09885      0.00000     0.40033    0.00082     0.40115
      H   24    0.09528      0.00000     0.40329    0.00144     0.40472
      H   25    0.09841      0.00000     0.40061    0.00099     0.40159
      H   26    0.10164      0.00000     0.39744    0.00092     0.39836
      H   27    0.09811      0.00000     0.40078    0.00111     0.40189
      H   28    0.09978      0.00000     0.39944    0.00078     0.40022
      H   29    0.11618      0.00000     0.38304    0.00079     0.38382
      H   30    0.11270      0.00000     0.38655    0.00076     0.38730
      H   31    0.11511      0.00000     0.38391    0.00098     0.38489
      H   32    0.11215      0.00000     0.38674    0.00110     0.38785
      H   33    0.12227      0.00000     0.37629    0.00144     0.37773
      H   34    0.08785      0.00000     0.41123    0.00092     0.41215
      H   35    0.09116      0.00000     0.40786    0.00098     0.40884
      H   36    0.09756      0.00000     0.40123    0.00121     0.40244
      H   37    0.09008      0.00000     0.40868    0.00123     0.40992
      H   38    0.11704      0.00000     0.38179    0.00116     0.38296
      H   39    0.24237      0.00000     0.24789    0.00975     0.25763
 =======================================================================
   * Total *    0.00000     19.99337    54.74955    0.25709    75.00000

 Normal termination of Gaussian 16 at Sun Dec 13 15:25:40 2020.
