 Gaussian 16, Revision A.03,

 -----------------------------------------------------------
 # opt freq B3LYP/6-31G(d) empiricaldispersion=gd3bj scf=xqc
 -----------------------------------------------------------

 -----------------------------
 CID_13455853_JID_315_neutraal
 -----------------------------
 Symbolic Z-matrix:
 Charge =  0 Multiplicity = 1

 SCF Done:  E(RB3LYP) =  -536.744832598     A.U. after   13 cycles
 SCF Done:  E(RB3LYP) =  -536.746840923     A.U. after   11 cycles
 SCF Done:  E(RB3LYP) =  -536.747060848     A.U. after   10 cycles
 SCF Done:  E(RB3LYP) =  -536.747084470     A.U. after    9 cycles
 SCF Done:  E(RB3LYP) =  -536.747087248     A.U. after    8 cycles
 SCF Done:  E(RB3LYP) =  -536.747087694     A.U. after    7 cycles
 Optimization completed.
    -- Stationary point found.

 1\1\GINC-NODE104\FOpt\RB3LYP\6-31G(d)\C6H12O4\VSC10255\08-Dec-2020\0\\
 # opt freq B3LYP/6-31G(d) empiricaldispersion=gd3bj scf=xqc\\CID_13455
 853_JID_315_neutraal\\0,1\C,0.7327938934,1.2288929093,-0.2329029542\C,
 -0.718511263,1.163125035,0.2643281047\O,-1.3545459126,-0.0488637849,-0
 .1782630848\C,-0.681574476,-1.2416790206,0.2267259597\C,0.7184939869,-
 1.2786760343,-0.3738446844\C,1.528426085,-0.0512789705,0.0713362819\O,
 2.7915623983,-0.0371684481,-0.5685253309\O,0.648835095,-1.2967554766,-
 1.8034931258\C,-0.8717349548,1.3560185688,1.7826581023\O,-0.5170478268

 Normal termination of Gaussian 16 at Tue Dec  8 10:20:57 2020.

 --------------------------------------------------------------------
 #N Geom=AllCheck Guess=TCheck SCRF=Check GenChk RB3LYP/6-31G(d) Freq
 --------------------------------------------------------------------

 Structure from the checkpoint file:  "JID_315.chk"
 -----------------------------
 CID_13455853_JID_315_neutraal
 -----------------------------
 Charge =  0 Multiplicity = 1

 SCF Done:  E(RB3LYP) =  -536.747087694     A.U. after    1 cycles

  Exact polarizability:  79.951   0.777  72.637   0.758   2.022  66.431
 Approx polarizability: 104.949   0.943 102.905  -0.121  -1.248 100.283

                      1                      2                      3
                      A                      A                      A
 Frequencies --     77.9853               115.6466               148.6563
 Red. masses --      4.4009                 5.1745                 2.3829
 Frc consts  --      0.0158                 0.0408                 0.0310
 IR Inten    --      2.5588                 0.9201                11.0945

                      4                      5                      6
                      A                      A                      A
 Frequencies --    195.2043               242.4463               282.1304
 Red. masses --      4.5520                 4.7033                 4.8090
 Frc consts  --      0.1022                 0.1629                 0.2255
 IR Inten    --      2.6280                10.2583                13.4524

                      7                      8                      9
                      A                      A                      A
 Frequencies --    296.7907               378.6373               398.3890
 Red. masses --      1.1467                 3.0811                 4.8733
 Frc consts  --      0.0595                 0.2603                 0.4557
 IR Inten    --    115.2140                 2.0050                 0.6619

                     10                     11                     12
                      A                      A                      A
 Frequencies --    408.7398               418.3484               461.3011
 Red. masses --      2.3483                 2.6724                 1.1311
 Frc consts  --      0.2311                 0.2756                 0.1418
 IR Inten    --      1.1114                24.7774                30.0241

                     13                     14                     15
                      A                      A                      A
 Frequencies --    484.1049               558.3476               607.5085
 Red. masses --      4.3613                 1.0926                 3.2335
 Frc consts  --      0.6022                 0.2007                 0.7031
 IR Inten    --      1.8706               145.5021                 8.0024

                     16                     17                     18
                      A                      A                      A
 Frequencies --    652.7660               728.6518               817.5863
 Red. masses --      3.1247                 2.7469                 3.9398
 Frc consts  --      0.7845                 0.8593                 1.5516
 IR Inten    --     18.7329                17.7547                19.5721

                     19                     20                     21
                      A                      A                      A
 Frequencies --    857.2433               892.4716               908.6986
 Red. masses --      2.1645                 2.6090                 2.5523
 Frc consts  --      0.9372                 1.2244                 1.2417
 IR Inten    --      6.5285                14.8175                20.4687

                     22                     23                     24
                      A                      A                      A
 Frequencies --    981.4956              1011.5449              1033.4106
 Red. masses --      1.7403                 2.7062                 1.8698
 Frc consts  --      0.9877                 1.6315                 1.1765
 IR Inten    --     19.1982                11.1688                30.1570

                     25                     26                     27
                      A                      A                      A
 Frequencies --   1064.3572              1093.1998              1108.0768
 Red. masses --      2.2361                 2.9784                 2.2518
 Frc consts  --      1.4925                 2.0972                 1.6290
 IR Inten    --    131.2124                44.6220                13.2355

                     28                     29                     30
                      A                      A                      A
 Frequencies --   1115.2431              1130.6424              1160.5877
 Red. masses --      3.3612                 4.2339                 1.9467
 Frc consts  --      2.4631                 3.1889                 1.5449
 IR Inten    --     81.4542                65.1841                45.8901

                     31                     32                     33
                      A                      A                      A
 Frequencies --   1199.8051              1234.8019              1257.0797
 Red. masses --      1.2975                 1.4477                 1.3184
 Frc consts  --      1.1005                 1.3005                 1.2275
 IR Inten    --     19.3661                61.5538                18.9804

                     34                     35                     36
                      A                      A                      A
 Frequencies --   1292.5989              1302.1346              1349.3432
 Red. masses --      1.2921                 1.4685                 1.5201
 Frc consts  --      1.2720                 1.4670                 1.6307
 IR Inten    --     22.0359                 8.3843                 1.1460

                     37                     38                     39
                      A                      A                      A
 Frequencies --   1353.7212              1365.6785              1379.3262
 Red. masses --      1.3278                 1.3201                 1.4188
 Frc consts  --      1.4336                 1.4506                 1.5904
 IR Inten    --      3.2383                 4.7702                 1.5661

                     40                     41                     42
                      A                      A                      A
 Frequencies --   1407.9378              1416.5549              1421.8400
 Red. masses --      1.2078                 1.2933                 1.4266
 Frc consts  --      1.4107                 1.5290                 1.6993
 IR Inten    --     29.7915                25.7539                 4.8879

                     43                     44                     45
                      A                      A                      A
 Frequencies --   1436.3708              1442.7868              1461.3907
 Red. masses --      1.3598                 1.2578                 1.2882
 Frc consts  --      1.6529                 1.5426                 1.6209
 IR Inten    --      4.9760                62.3824                71.3955

                     46                     47                     48
                      A                      A                      A
 Frequencies --   1525.1917              1527.6865              1537.5405
 Red. masses --      1.0893                 1.0889                 1.0861
 Frc consts  --      1.4930                 1.4973                 1.5128
 IR Inten    --     10.4345                 3.9476                 1.9456

                     49                     50                     51
                      A                      A                      A
 Frequencies --   3018.6609              3040.6682              3056.3535
 Red. masses --      1.0692                 1.0689                 1.0772
 Frc consts  --      5.7403                 5.8226                 5.9284
 IR Inten    --     16.2366                41.8157                16.4038

                     52                     53                     54
                      A                      A                      A
 Frequencies --   3061.2745              3093.2468              3094.7207
 Red. masses --      1.0686                 1.0874                 1.0863
 Frc consts  --      5.9003                 6.1298                 6.1295
 IR Inten    --     41.6329                63.9563                 6.5663

                     55                     56                     57
                      A                      A                      A
 Frequencies --   3099.4907              3118.6980              3121.7342
 Red. masses --      1.1006                 1.0964                 1.0988
 Frc consts  --      6.2296                 6.2828                 6.3092
 IR Inten    --     39.2042                28.3910                34.1361

                     58                     59                     60
                      A                      A                      A
 Frequencies --   3676.6222              3698.2512              3758.5527
 Red. masses --      1.0649                 1.0654                 1.0664
 Frc consts  --      8.4808                 8.5852                 8.8757
 IR Inten    --     35.7781                27.1227                12.3839

 - Thermochemistry -
 -------------------
 Temperature   298.150 Kelvin.  Pressure   1.00000 Atm.
 Atom     1 has atomic number  6 and mass  12.00000

 Molecular mass:   148.07356 amu.
 Principal axes and moments of inertia in atomic units:
                           1         2         3
     Eigenvalues --   865.881031801.537642299.14794
           X            0.99996   0.00845  -0.00236
           Y           -0.00837   0.99944   0.03249
           Z            0.00263  -0.03247   0.99947
 This molecule is an asymmetric top.
 Rotational symmetry number  1.
 Warning -- assumption of classical behavior for rotation
           may cause significant error
 Rotational temperatures (Kelvin)      0.10003     0.04808     0.03767
 Rotational constants (GHZ):           2.08428     1.00178     0.78496
 Zero-point vibrational energy     498724.8 (Joules/Mol)
                                  119.19809 (Kcal/Mol)
 Warning -- explicit consideration of  15 degrees of freedom as
           vibrations may cause significant error
 Vibrational temperatures:    112.20   166.39   213.88   280.86   348.83
          (Kelvin)            405.92   427.02   544.77   573.19   588.09
                              601.91   663.71   696.52   803.34   874.07
                              939.18  1048.37  1176.32  1233.38  1284.07
                             1307.41  1412.15  1455.39  1486.85  1531.37
                             1572.87  1594.28  1604.59  1626.74  1669.83
                             1726.25  1776.60  1808.66  1859.76  1873.48
                             1941.40  1947.70  1964.91  1984.54  2025.71
                             2038.11  2045.71  2066.62  2075.85  2102.62
                             2194.41  2198.00  2212.18  4343.18  4374.84
                             4397.41  4404.49  4450.49  4452.61  4459.48
                             4487.11  4491.48  5289.84  5320.96  5407.72

 Zero-point correction=                           0.189954 (Hartree/Particle)
 Thermal correction to Energy=                    0.199798
 Thermal correction to Enthalpy=                  0.200742
 Thermal correction to Gibbs Free Energy=         0.155213
 Sum of electronic and zero-point Energies=           -536.557133
 Sum of electronic and thermal Energies=              -536.547290
 Sum of electronic and thermal Enthalpies=            -536.546346
 Sum of electronic and thermal Free Energies=         -536.591874

                     E (Thermal)             CV                S
                      KCal/Mol        Cal/Mol-Kelvin    Cal/Mol-Kelvin
 Total                  125.375             38.127             95.823
 Electronic               0.000              0.000              0.000
 Translational            0.889              2.981             40.888
 Rotational               0.889              2.981             29.663
 Vibrational            123.598             32.166             25.273
 Vibration     1          0.599              1.964              3.941
 Vibration     2          0.608              1.936              3.172
 Vibration     3          0.618              1.904              2.689
 Vibration     4          0.636              1.847              2.178
 Vibration     5          0.659              1.775              1.785
 Vibration     6          0.681              1.707              1.521
 Vibration     7          0.690              1.680              1.435
 Vibration     8          0.749              1.516              1.045
 Vibration     9          0.765              1.474              0.969
 Vibration    10          0.773              1.451              0.931
 Vibration    11          0.781              1.430              0.898
 Vibration    12          0.819              1.336              0.762
 Vibration    13          0.840              1.285              0.699
 Vibration    14          0.914              1.121              0.527
 Vibration    15          0.966              1.016              0.437

                           ! Non-Optimized Parameters !

 1\1\GINC-NODE104\Freq\RB3LYP\6-31G(d)\C6H12O4\VSC10255\08-Dec-2020\0\\
 #N Geom=AllCheck Guess=TCheck SCRF=Check GenChk RB3LYP/6-31G(d) Freq\\
 CID_13455853_JID_315_neutraal\\0,1\C,0.7327938934,1.2288929093,-0.2329
 029542\C,-0.718511263,1.163125035,0.2643281047\O,-1.3545459126,-0.0488
 637849,-0.1782630848\C,-0.681574476,-1.2416790206,0.2267259597\C,0.718
 4939869,-1.2786760343,-0.3738446844\C,1.528426085,-0.0512789705,0.0713
 362819\O,2.7915623983,-0.0371684481,-0.5685253309\O,0.648835095,-1.296
 7554766,-1.8034931258\C,-0.8717349548,1.3560185688,1.7826581023\O,-0.5

 Normal termination of Gaussian 16 at Tue Dec  8 10:25:11 2020.

 ----------------------------------------------------------------------
 # B3LYP/6-311++G(d,p) empiricaldispersion=gd3bj scf=xqc pop=npa geom=c
 heck
 ----------------------------------------------------------------------

 -------------------------------------
 CID_13455853_JID_315_Energie_neutraal
 -------------------------------------
 Structure from the checkpoint file:  "JID_315.chk"
 Charge =  0 Multiplicity = 1

 SCF Done:  E(RB3LYP) =  -536.933926344     A.U. after   13 cycles
 Normal termination of Gaussian 16 at Tue Dec  8 10:26:51 2020.

 ----------------------------------------------------------------------
 # B3LYP/6-311++G(d,p) empiricaldispersion=gd3bj scf=xqc pop=npa geom=c
 heck
 ----------------------------------------------------------------------

 -----------------------------------
 CID_13455853_JID_315_Energie_kation
 -----------------------------------
 Structure from the checkpoint file:  "JID_315.chk"
 Charge =  1 Multiplicity = 2

 SCF Done:  E(UB3LYP) =  -536.590812207     A.U. after   22 cycles
 Normal termination of Gaussian 16 at Tue Dec  8 10:30:48 2020.
 Gaussian 16:  ES64L-G16RevA.03 25-Dec-2016

 ----------------------------------
 CID_13455853_JID_315_Energie_anion
 ----------------------------------
 Structure from the checkpoint file:  "JID_315.chk"
 Charge = -1 Multiplicity = 2

                         Standard orientation:
 ---------------------------------------------------------------------
 Center     Atomic      Atomic             Coordinates (Angstroms)
 Number     Number       Type             X           Y           Z
 ---------------------------------------------------------------------
      1          6           0        0.190429    0.879781    0.716913
      2          6           0        1.100243   -0.355127    0.645548
      3          8           0        0.321628   -1.552820    0.476338
      4          6           0       -0.520589   -1.542363   -0.677038
      5          6           0       -1.537414   -0.412517   -0.568582
      6          6           0       -0.825284    0.942448   -0.435837
      7          8           0       -1.770683    1.977126   -0.233852
      8          8           0       -2.382142   -0.607876    0.570427
      9          6           0        2.213749   -0.254854   -0.410890
     10          8           0        3.158755    0.751288   -0.071370
     11          1           0        0.785525    1.799318    0.746881
     12          1           0       -0.369812    0.852807    1.659213
     13          1           0        1.601142   -0.490154    1.608697
     14          1           0       -1.025904   -2.511970   -0.683860
     15          1           0        0.061527   -1.451247   -1.604597
     16          1           0       -2.198473   -0.397689   -1.441294
     17          1           0       -0.316553    1.169625   -1.381035
     18          1           0       -2.407732    1.606010    0.403659
     19          1           0       -1.809382   -0.984018    1.261643
     20          1           0        2.758595   -1.202978   -0.426626
     21          1           0        1.807859   -0.088308   -1.418964
     22          1           0        2.765937    1.612651   -0.276750
 ---------------------------------------------------------------------

 SCF Done:  E(UB3LYP) =  -536.920535673     A.U. after   26 cycles

 The electronic state is 2-A.
 Alpha  occ. eigenvalues --  -19.03206 -19.03078 -19.01608 -19.01602 -10.12073
 Alpha  occ. eigenvalues --  -10.12008 -10.11778 -10.11607 -10.10748 -10.06544
 Alpha  occ. eigenvalues --   -0.95407  -0.93117  -0.91659  -0.91159  -0.68536
 Alpha  occ. eigenvalues --   -0.66843  -0.59305  -0.54847  -0.52393  -0.46389
 Alpha  occ. eigenvalues --   -0.43162  -0.42060  -0.38696  -0.38358  -0.36809
 Alpha  occ. eigenvalues --   -0.35815  -0.34278  -0.33451  -0.31541  -0.29883
 Alpha  occ. eigenvalues --   -0.27550  -0.26731  -0.25078  -0.24093  -0.22672
 Alpha  occ. eigenvalues --   -0.21936  -0.20857  -0.18108  -0.16613  -0.15286
 Alpha  occ. eigenvalues --    0.04899
 Alpha virt. eigenvalues --    0.07401   0.07538   0.09071   0.10004   0.10369
 Alpha virt. eigenvalues --    0.10971   0.11398   0.12434   0.13567   0.13888
 Alpha virt. eigenvalues --    0.15174   0.15750   0.16515   0.17698   0.18417

  Beta  occ. eigenvalues --  -19.03198 -19.03059 -19.01591 -19.01555 -10.12067
  Beta  occ. eigenvalues --  -10.11992 -10.11746 -10.11584 -10.10708 -10.06515
  Beta  occ. eigenvalues --   -0.95375  -0.93086  -0.91564  -0.91119  -0.68485
  Beta  occ. eigenvalues --   -0.66788  -0.59204  -0.54781  -0.52326  -0.46322
  Beta  occ. eigenvalues --   -0.43110  -0.41968  -0.38644  -0.38305  -0.36728
  Beta  occ. eigenvalues --   -0.35753  -0.34235  -0.33391  -0.31480  -0.29830
  Beta  occ. eigenvalues --   -0.27517  -0.26698  -0.25036  -0.24055  -0.22618
  Beta  occ. eigenvalues --   -0.21895  -0.20819  -0.18063  -0.16583  -0.15237
  Beta virt. eigenvalues --    0.07393   0.08436   0.08913   0.09416   0.10762
  Beta virt. eigenvalues --    0.10949   0.11663   0.11829   0.12833   0.13955
  Beta virt. eigenvalues --    0.14526   0.15775   0.16053   0.16954   0.17818

 Mulliken charges and spin densities:
               1          2
     1  C    0.648321  -0.872306
     2  C   -1.963815   1.787157
     3  O   -0.151465   0.022870
     4  C    1.452989  -1.870893
     5  C   -1.028657   1.099719
     6  C    1.062693  -1.701931
     7  O   -0.230683   0.069914
     8  O   -0.226602   0.000073
     9  C    2.053984  -2.360118
    10  O   -0.267363   0.014786
    11  H    0.011710   0.111386
    12  H   -0.154474   0.348680
    13  H   -0.278446   0.494587
    14  H   -0.474391   0.683662
    15  H   -0.109984   0.257435
    16  H   -0.441874   0.687399
    17  H   -0.363901   0.580021
    18  H    0.209532   0.037949
    19  H    0.178883   0.065529
    20  H   -0.081270   0.269562
    21  H   -0.610890   0.779760
    22  H   -0.234298   0.494760
 Sum of Mulliken charges =  -1.00000   1.00000

 Dipole moment (field-independent basis, Debye):
    X=             -2.1825    Y=             -1.1950    Z=              3.9900  Tot=              4.7023
 Quadrupole moment (field-independent basis, Debye-Ang):
   XX=           -110.5905   YY=           -100.8358   ZZ=            -94.1415
   XY=             -6.8590   XZ=             -0.6643   YZ=              0.6737

 Summary of Natural Population Analysis:

                                       Natural Population
                Natural  -----------------------------------------------
    Atom  No    Charge         Core      Valence    Rydberg      Total
 -----------------------------------------------------------------------
      C    1   -0.22160      0.99959     2.20950    0.01251     3.22160
      C    2    0.05430      0.99953     1.93141    0.01476     2.94570
      O    3   -0.30881      0.99989     3.29874    0.01018     4.30881
      C    4   -0.02685      0.99955     2.01287    0.01443     3.02685
      C    5    0.03770      0.99954     1.94690    0.01585     2.96230
      C    6    0.05241      0.99952     1.93250    0.01557     2.94759
      O    7   -0.37114      0.99990     3.36384    0.00740     4.37114
      O    8   -0.38052      0.99990     3.37366    0.00696     4.38052
      C    9   -0.02176      0.99957     2.00872    0.01348     3.02176
      O   10   -0.36850      0.99990     3.36168    0.00692     4.36850
      H   11    0.11010      0.00000     0.38811    0.00179     0.38990
      H   12    0.09934      0.00000     0.39904    0.00162     0.40066
      H   13    0.09448      0.00000     0.40398    0.00154     0.40552
      H   14    0.09713      0.00000     0.40123    0.00164     0.40287
      H   15    0.09075      0.00000     0.40667    0.00258     0.40925
      H   16    0.09701      0.00000     0.40128    0.00171     0.40299
      H   17    0.09553      0.00000     0.40138    0.00310     0.40447
      H   18    0.23189      0.00000     0.26483    0.00327     0.26811
      H   19    0.23334      0.00000     0.26325    0.00341     0.26666
      H   20    0.08867      0.00000     0.40981    0.00153     0.41133
      H   21    0.08241      0.00000     0.41457    0.00302     0.41759
      H   22    0.23412      0.00000     0.25778    0.00810     0.26588
 =======================================================================
   * Total *   -0.00000      9.99689    29.85175    0.15136    40.00000

 Normal termination of Gaussian 16 at Tue Dec  8 10:37:26 2020.
