 Gaussian 16, Revision A.03,

 -----------------------------------------------------------
 # opt freq B3LYP/6-31G(d) empiricaldispersion=gd3bj scf=xqc
 -----------------------------------------------------------

 ------------------------------
 CID_76947160_JID_6104_neutraal
 ------------------------------
 Symbolic Z-matrix:
 Charge =  0 Multiplicity = 1

 SCF Done:  E(RB3LYP) =  -1105.64584285     A.U. after   15 cycles
 SCF Done:  E(RB3LYP) =  -1105.65272092     A.U. after   13 cycles
 SCF Done:  E(RB3LYP) =  -1105.65196804     A.U. after   12 cycles
 SCF Done:  E(RB3LYP) =  -1105.65409418     A.U. after   13 cycles
 SCF Done:  E(RB3LYP) =  -1105.65468216     A.U. after   12 cycles
 SCF Done:  E(RB3LYP) =  -1105.65513934     A.U. after   12 cycles
 SCF Done:  E(RB3LYP) =  -1105.65525016     A.U. after   12 cycles
 SCF Done:  E(RB3LYP) =  -1105.65550289     A.U. after   12 cycles
 SCF Done:  E(RB3LYP) =  -1105.65568704     A.U. after   12 cycles
 SCF Done:  E(RB3LYP) =  -1105.65582403     A.U. after   12 cycles
 SCF Done:  E(RB3LYP) =  -1105.65614145     A.U. after    8 cycles
 SCF Done:  E(RB3LYP) =  -1105.65614078     A.U. after    8 cycles
 SCF Done:  E(RB3LYP) =  -1105.65614182     A.U. after    8 cycles
 SCF Done:  E(RB3LYP) =  -1105.65614045     A.U. after    9 cycles
 SCF Done:  E(RB3LYP) =  -1105.65613984     A.U. after    8 cycles
 SCF Done:  E(RB3LYP) =  -1105.65613930     A.U. after    8 cycles
 Optimization completed.
    -- Stationary point found.
 Normal termination of Gaussian 16 at Thu Dec 10 21:20:04 2020.

 --------------------------------------------------------------------
 #N Geom=AllCheck Guess=TCheck SCRF=Check GenChk RB3LYP/6-31G(d) Freq
 --------------------------------------------------------------------

 Structure from the checkpoint file:  "JID_6104.chk"
 ------------------------------
 CID_76947160_JID_6104_neutraal
 ------------------------------
 Charge =  0 Multiplicity = 1

 SCF Done:  E(RB3LYP) =  -1105.65613930     A.U. after    1 cycles

  Exact polarizability: 238.196 -12.924 125.678   4.767  15.284 102.845
 Approx polarizability: 332.047 -35.643 226.146  -0.502  41.749 163.650

                      1                      2                      3
                      A                      A                      A
 Frequencies --     20.9157                29.3080                50.8062
 Red. masses --      6.4795                 6.7905                 5.7072
 Frc consts  --      0.0017                 0.0034                 0.0087
 IR Inten    --      0.1397                 2.2648                 1.1240

                      4                      5                      6
                      A                      A                      A
 Frequencies --     58.7106                76.3032               106.6157
 Red. masses --      4.0207                 4.7200                 4.4420
 Frc consts  --      0.0082                 0.0162                 0.0297
 IR Inten    --      4.6978                 0.5754                 1.1536

                      7                      8                      9
                      A                      A                      A
 Frequencies --    127.5251               154.3577               171.4369
 Red. masses --      3.2220                 6.5018                 4.4111
 Frc consts  --      0.0309                 0.0913                 0.0764
 IR Inten    --      1.4387                 3.6126                 1.8759

                     10                     11                     12
                      A                      A                      A
 Frequencies --    190.9529               223.2888               238.2244
 Red. masses --      2.5855                 1.5591                 1.2302
 Frc consts  --      0.0555                 0.0458                 0.0411
 IR Inten    --      6.0290                 1.1981                 0.2232

                     13                     14                     15
                      A                      A                      A
 Frequencies --    277.2939               280.6895               328.0559
 Red. masses --      2.3938                 2.5737                 7.5762
 Frc consts  --      0.1084                 0.1195                 0.4804
 IR Inten    --      1.4379                 1.7111                 9.7154

                     16                     17                     18
                      A                      A                      A
 Frequencies --    355.2481               377.1461               418.3700
 Red. masses --      3.0869                 5.0415                 4.3838
 Frc consts  --      0.2295                 0.4225                 0.4521
 IR Inten    --      0.9733                 9.2347                 2.9099

                     19                     20                     21
                      A                      A                      A
 Frequencies --    458.9394               496.1173               527.8411
 Red. masses --      3.9174                 4.4845                 4.9623
 Frc consts  --      0.4861                 0.6503                 0.8146
 IR Inten    --      0.9986                 3.7303                12.6248

                     22                     23                     24
                      A                      A                      A
 Frequencies --    561.0679               579.2200               588.3986
 Red. masses --      2.8427                 3.4611                 5.6274
 Frc consts  --      0.5272                 0.6841                 1.1479
 IR Inten    --     32.3398                 8.4992                29.8749

                     25                     26                     27
                      A                      A                      A
 Frequencies --    625.8905               666.8680               701.0351
 Red. masses --      2.8098                 2.5371                 1.6713
 Frc consts  --      0.6485                 0.6648                 0.4839
 IR Inten    --     49.7929                20.4442                57.8367

                     28                     29                     30
                      A                      A                      A
 Frequencies --    709.1962               716.9013               749.7249
 Red. masses --      3.0385                 2.3456                 6.3657
 Frc consts  --      0.9004                 0.7103                 2.1082
 IR Inten    --     57.4066                17.1176                 7.0594

                     31                     32                     33
                      A                      A                      A
 Frequencies --    769.9806               826.7545               833.9262
 Red. masses --      4.3419                 2.8135                 1.4254
 Frc consts  --      1.5167                 1.1330                 0.5840
 IR Inten    --     27.7410                17.0224                17.1883

                     34                     35                     36
                      A                      A                      A
 Frequencies --    846.4112               869.6602               873.7686
 Red. masses --      2.5454                 4.2047                 2.5252
 Frc consts  --      1.0744                 1.8736                 1.1359
 IR Inten    --      5.8297                21.6315                25.8986

                     37                     38                     39
                      A                      A                      A
 Frequencies --    914.4350               969.6805              1006.2714
 Red. masses --      1.3310                 2.1368                 1.1138
 Frc consts  --      0.6557                 1.1838                 0.6645
 IR Inten    --      0.0608                 7.1474                35.7646

                     40                     41                     42
                      A                      A                      A
 Frequencies --   1062.6860              1071.6054              1110.4482
 Red. masses --      1.6975                 1.7378                 2.3055
 Frc consts  --      1.1295                 1.1758                 1.6750
 IR Inten    --     12.6463                17.4801               133.0102

                     43                     44                     45
                      A                      A                      A
 Frequencies --   1113.0782              1135.1365              1159.7905
 Red. masses --      1.2676                 2.0187                 2.1026
 Frc consts  --      0.9253                 1.5326                 1.6663
 IR Inten    --      3.1880                82.3151                14.9194

                     46                     47                     48
                      A                      A                      A
 Frequencies --   1162.5698              1201.1983              1223.3054
 Red. masses --      1.3490                 2.0431                 2.6365
 Frc consts  --      1.0742                 1.7369                 2.3246
 IR Inten    --     15.4383                89.1409               195.5230

                     49                     50                     51
                      A                      A                      A
 Frequencies --   1248.0894              1281.8276              1308.9318
 Red. masses --      3.1981                 1.5209                 1.4033
 Frc consts  --      2.9352                 1.4724                 1.4165
 IR Inten    --     27.0259                17.0862                 3.7853

                     52                     53                     54
                      A                      A                      A
 Frequencies --   1337.9449              1361.4154              1367.9970
 Red. masses --      1.4603                 1.6222                 1.6085
 Frc consts  --      1.5402                 1.7715                 1.7735
 IR Inten    --     27.5683                65.8428               103.3565

                     55                     56                     57
                      A                      A                      A
 Frequencies --   1394.1379              1410.0659              1432.6115
 Red. masses --      2.5218                 2.3729                 1.3106
 Frc consts  --      2.8878                 2.7797                 1.5849
 IR Inten    --     34.4717                20.1319                32.3358

                     58                     59                     60
                      A                      A                      A
 Frequencies --   1452.2537              1480.2618              1502.2778
 Red. masses --      1.7513                 4.7786                 1.4601
 Frc consts  --      2.1762                 6.1692                 1.9415
 IR Inten    --    113.1652                34.5656                73.6204

                     61                     62                     63
                      A                      A                      A
 Frequencies --   1516.9942              1525.0495              1539.1889
 Red. masses --      1.0516                 1.0465                 1.0696
 Frc consts  --      1.4258                 1.4340                 1.4931
 IR Inten    --     12.6841                14.1793                17.7583

                     64                     65                     66
                      A                      A                      A
 Frequencies --   1551.6104              1586.8573              1685.2850
 Red. masses --      1.1478                 4.9231                 6.0290
 Frc consts  --      1.6281                 7.3041                10.0889
 IR Inten    --     50.2747                 1.4507                64.7588

                     67                     68                     69
                      A                      A                      A
 Frequencies --   1723.2701              1851.6440              3032.2489
 Red. masses --      8.9006                10.3504                 1.0426
 Frc consts  --     15.5732                20.9085                 5.6483
 IR Inten    --    276.2314               224.7881                37.7285

                     70                     71                     72
                      A                      A                      A
 Frequencies --   3046.4076              3068.5286              3081.5560
 Red. masses --      1.0800                 1.0412                 1.1038
 Frc consts  --      5.9054                 5.7762                 6.1754
 IR Inten    --     24.7284                22.9039                33.8887

                     73                     74                     75
                      A                      A                      A
 Frequencies --   3138.5372              3175.7896              3182.2836
 Red. masses --      1.0984                 1.0900                 1.1017
 Frc consts  --      6.3748                 6.4773                 6.5731
 IR Inten    --     24.4852                 7.8190                 5.9141

                     76                     77                     78
                      A                      A                      A
 Frequencies --   3185.4050              3203.8192              3221.5463
 Red. masses --      1.0951                 1.0885                 1.0883
 Frc consts  --      6.5470                 6.5830                 6.6549
 IR Inten    --      5.6442                 7.3869                 6.8681

                     79                     80                     81
                      A                      A                      A
 Frequencies --   3235.3730              3274.5579              3689.0629
 Red. masses --      1.0956                 1.0967                 1.0639
 Frc consts  --      6.7567                 6.9288                 8.5307
 IR Inten    --      6.0759                 0.6511                55.9166

 - Thermochemistry -
 -------------------
 Temperature   298.150 Kelvin.  Pressure   1.00000 Atm.
 Atom     1 has atomic number  6 and mass  12.00000

 Molecular mass:   239.06162 amu.
 Principal axes and moments of inertia in atomic units:
                           1         2         3
     Eigenvalues --  1478.622869467.242689564.17312
           X            0.99994   0.00079   0.01050
           Y           -0.00132   0.99868   0.05134
           Z           -0.01044  -0.05135   0.99863
 This molecule is an asymmetric top.
 Rotational symmetry number  1.
 Warning -- assumption of classical behavior for rotation
           may cause significant error
 Rotational temperatures (Kelvin)      0.05858     0.00915     0.00906
 Rotational constants (GHZ):           1.22056     0.19063     0.18870
 Zero-point vibrational energy     598790.7 (Joules/Mol)
                                  143.11441 (Kcal/Mol)
 Warning -- explicit consideration of  24 degrees of freedom as
           vibrations may cause significant error
 Vibrational temperatures:     30.09    42.17    73.10    84.47   109.78
          (Kelvin)            153.40   183.48   222.09   246.66   274.74
                              321.26   342.75   398.96   403.85   472.00
                              511.12   542.63   601.94   660.31   713.80
                              759.45   807.25   833.37   846.57   900.52
                              959.47  1008.63  1020.38  1031.46  1078.69
                             1107.83  1189.52  1199.83  1217.80  1251.25
                             1257.16  1315.67  1395.15  1447.80  1528.97
                             1541.80  1597.69  1601.47  1633.21  1668.68
                             1672.68  1728.26  1760.06  1795.72  1844.26
                             1883.26  1925.00  1958.77  1968.24  2005.85
                             2028.77  2061.21  2089.47  2129.77  2161.44
                             2182.62  2194.21  2214.55  2232.42  2283.13
                             2424.75  2479.40  2664.10  4362.73  4383.10
                             4414.93  4433.67  4515.66  4569.25  4578.60
                             4583.09  4609.58  4635.09  4654.98  4711.36
                             5307.74

 Zero-point correction=                           0.228067 (Hartree/Particle)
 Thermal correction to Energy=                    0.244388
 Thermal correction to Enthalpy=                  0.245332
 Thermal correction to Gibbs Free Energy=         0.181836
 Sum of electronic and zero-point Energies=          -1105.428072
 Sum of electronic and thermal Energies=             -1105.411751
 Sum of electronic and thermal Enthalpies=           -1105.410807
 Sum of electronic and thermal Free Energies=        -1105.474303

                     E (Thermal)             CV                S
                      KCal/Mol        Cal/Mol-Kelvin    Cal/Mol-Kelvin
 Total                  153.356             59.474            133.638
 Electronic               0.000              0.000              0.000
 Translational            0.889              2.981             42.316
 Rotational               0.889              2.981             33.259
 Vibrational            151.578             53.512             58.063
 Vibration     1          0.593              1.986              6.545
 Vibration     2          0.593              1.984              5.876
 Vibration     3          0.595              1.977              4.786
 Vibration     4          0.596              1.974              4.500
 Vibration     5          0.599              1.965              3.984
 Vibration     6          0.605              1.944              3.330
 Vibration     7          0.611              1.926              2.983
 Vibration     8          0.620              1.898              2.618
 Vibration     9          0.626              1.878              2.420
 Vibration    10          0.634              1.852              2.219
 Vibration    11          0.649              1.806              1.932
 Vibration    12          0.656              1.782              1.816
 Vibration    13          0.678              1.715              1.550
 Vibration    14          0.680              1.709              1.529
 Vibration    15          0.711              1.619              1.270
 Vibration    16          0.731              1.564              1.143
 Vibration    17          0.748              1.519              1.051
 Vibration    18          0.781              1.430              0.898
 Vibration    19          0.817              1.341              0.769
 Vibration    20          0.852              1.259              0.668
 Vibration    21          0.883              1.188              0.592
 Vibration    22          0.917              1.116              0.522
 Vibration    23          0.936              1.076              0.487
 Vibration    24          0.946              1.057              0.470

                           ! Non-Optimized Parameters !
 Normal termination of Gaussian 16 at Thu Dec 10 21:28:34 2020.

 ----------------------------------------------------------------------
 # B3LYP/6-311++G(d,p) empiricaldispersion=gd3bj scf=xqc pop=npa geom=c
 heck
 ----------------------------------------------------------------------

 --------------------------------------
 CID_76947160_JID_6104_Energie_neutraal
 --------------------------------------
 Structure from the checkpoint file:  "JID_6104.chk"
 Charge =  0 Multiplicity = 1

 SCF Done:  E(RB3LYP) =  -1105.89285742     A.U. after   16 cycles
 Normal termination of Gaussian 16 at Thu Dec 10 21:32:18 2020.

 ----------------------------------------------------------------------
 # B3LYP/6-311++G(d,p) empiricaldispersion=gd3bj scf=xqc pop=npa geom=c
 heck
 ----------------------------------------------------------------------

 ------------------------------------
 CID_76947160_JID_6104_Energie_kation
 ------------------------------------
 Structure from the checkpoint file:  "JID_6104.chk"
 Charge =  1 Multiplicity = 2

 SCF Done:  E(UB3LYP) =  -1105.60081046     A.U. after   31 cycles
 Normal termination of Gaussian 16 at Thu Dec 10 21:43:45 2020.
 Gaussian 16:  ES64L-G16RevA.03 25-Dec-2016

 ----------------------------------------------------------------------
 # B3LYP/6-311++G(d,p) empiricaldispersion=gd3bj scf=xqc pop=npa geom=c
 heck
 ----------------------------------------------------------------------

 -----------------------------------
 CID_76947160_JID_6104_Energie_anion
 -----------------------------------
 Structure from the checkpoint file:  "JID_6104.chk"
 Charge = -1 Multiplicity = 2

                         Standard orientation:
 ---------------------------------------------------------------------
 Center     Atomic      Atomic             Coordinates (Angstroms)
 Number     Number       Type             X           Y           Z
 ---------------------------------------------------------------------
      1          6           0        4.024012   -1.038283    0.936611
      2          6           0        3.116992    0.169385    0.684807
      3          6           0        3.328570    0.877557   -0.657578
      4          8           0        2.567359    1.692269   -1.124473
      5          8           0        4.520114    0.574161   -1.217122
      6          7           0        1.695852   -0.140466    0.840473
      7          6           0        1.101355    0.148770    2.135565
      8          6           0        1.102746   -0.844815   -0.178779
      9          8           0        1.771150   -1.285877   -1.116166
     10          6           0       -0.370990   -1.028446   -0.185709
     11          6           0       -1.254039   -0.043118    0.064636
     12          6           0       -2.690774   -0.135088   -0.103290
     13          6           0       -3.471962   -1.174899   -0.565067
     14          6           0       -4.861256   -0.878848   -0.569481
     15          6           0       -5.139526    0.384035   -0.112887
     16         16           0       -3.698844    1.232929    0.328215
     17          1           0        3.847071   -1.801295    0.178002
     18          1           0        3.807247   -1.457895    1.925052
     19          1           0        5.076165   -0.744120    0.907612
     20          1           0        3.338714    0.942210    1.432728
     21          1           0        4.563246    1.094424   -2.041225
     22          1           0        0.917741    1.223547    2.264664
     23          1           0        0.158547   -0.385332    2.241118
     24          1           0        1.775027   -0.184168    2.934790
     25          1           0       -0.692564   -1.981726   -0.595050
     26          1           0       -0.873683    0.919885    0.399071
     27          1           0       -3.057581   -2.120036   -0.896971
     28          1           0       -5.624928   -1.573492   -0.900886
     29          1           0       -6.104200    0.862459   -0.014524
 ---------------------------------------------------------------------

 SCF Done:  E(UB3LYP) =  -1105.90786850     A.U. after   30 cycles

 The electronic state is 2-A.
 Alpha  occ. eigenvalues --  -88.72084 -19.07815 -19.01027 -18.93884 -14.21440
 Alpha  occ. eigenvalues --  -10.20605 -10.12405 -10.11920 -10.09264 -10.06495
 Alpha  occ. eigenvalues --  -10.04669 -10.04442 -10.03671 -10.01733 -10.01610
 Alpha  occ. eigenvalues --  -10.00207  -7.80789  -5.77074  -5.76729  -5.76408
 Alpha  occ. eigenvalues --   -1.01546  -0.92280  -0.89679  -0.81308  -0.73325
 Alpha  occ. eigenvalues --   -0.68062  -0.63889  -0.59346  -0.58893  -0.57476
 Alpha  occ. eigenvalues --   -0.56349  -0.52120  -0.47558  -0.43000  -0.41868
 Alpha  occ. eigenvalues --   -0.39830  -0.39054  -0.38267  -0.37577  -0.36201
 Alpha  occ. eigenvalues --   -0.34468  -0.34066  -0.32699  -0.31824  -0.30150
 Alpha  occ. eigenvalues --   -0.29617  -0.28531  -0.27806  -0.27026  -0.26665
 Alpha  occ. eigenvalues --   -0.25572  -0.24335  -0.23979  -0.23590  -0.22370
 Alpha  occ. eigenvalues --   -0.20940  -0.19874  -0.18080  -0.15641  -0.12627
 Alpha  occ. eigenvalues --   -0.11821  -0.11522  -0.07370   0.04218
 Alpha virt. eigenvalues --    0.06630   0.07889   0.08954   0.09210   0.09621
 Alpha virt. eigenvalues --    0.10654   0.10755   0.11671   0.12185   0.12684
 Alpha virt. eigenvalues --    0.13239   0.13580   0.14063   0.15028   0.15051

  Beta  occ. eigenvalues --  -88.72019 -19.07812 -19.01024 -18.93680 -14.21400
  Beta  occ. eigenvalues --  -10.20600 -10.12405 -10.11820 -10.09265 -10.06487
  Beta  occ. eigenvalues --  -10.04589 -10.04147 -10.03776 -10.01469 -10.01383
  Beta  occ. eigenvalues --   -9.99929  -7.80731  -5.77043  -5.76699  -5.76199
  Beta  occ. eigenvalues --   -1.01538  -0.92265  -0.89375  -0.81142  -0.73020
  Beta  occ. eigenvalues --   -0.67986  -0.63263  -0.59251  -0.58611  -0.57221
  Beta  occ. eigenvalues --   -0.56083  -0.51986  -0.46863  -0.42888  -0.41643
  Beta  occ. eigenvalues --   -0.39672  -0.39003  -0.38051  -0.37456  -0.36032
  Beta  occ. eigenvalues --   -0.34299  -0.34004  -0.32563  -0.31733  -0.30118
  Beta  occ. eigenvalues --   -0.29588  -0.28383  -0.27651  -0.26769  -0.26607
  Beta  occ. eigenvalues --   -0.25319  -0.23686  -0.23373  -0.23271  -0.22211
  Beta  occ. eigenvalues --   -0.20664  -0.19636  -0.18073  -0.13962  -0.12280
  Beta  occ. eigenvalues --   -0.11267  -0.10594  -0.05544
  Beta virt. eigenvalues --    0.06575   0.07824   0.08921   0.09097   0.09562
  Beta virt. eigenvalues --    0.09879   0.10640   0.10848   0.11632   0.12146
  Beta virt. eigenvalues --    0.12632   0.13273   0.14012   0.14315   0.15011

 Mulliken charges and spin densities:
               1          2
     1  C   -0.329692  -0.050307
     2  C   -0.503840   0.000146
     3  C    0.148951   0.017766
     4  O   -0.270434   0.001178
     5  O   -0.148094  -0.001798
     6  N    0.323408   0.010429
     7  C   -0.320792  -0.021119
     8  C   -0.689549   0.136842
     9  O   -0.285423   0.068650
    10  C   -0.179414   0.227245
    11  C   -0.365669   0.123230
    12  C   -0.036193   0.014231
    13  C    1.417190   0.228526
    14  C   -1.287125  -0.058437
    15  C    0.297115   0.195177
    16  S   -0.727976   0.097997
    17  H    0.219965   0.011938
    18  H    0.104702  -0.001196
    19  H    0.119001   0.018424
    20  H    0.156563   0.006295
    21  H    0.266108   0.014630
    22  H    0.169438  -0.000084
    23  H    0.152278   0.017411
    24  H    0.102365   0.001508
    25  H    0.148584  -0.011109
    26  H    0.139077  -0.023622
    27  H    0.112136  -0.014063
    28  H    0.081204   0.005154
    29  H    0.186118  -0.015045
 Sum of Mulliken charges =  -1.00000   1.00000

 Dipole moment (field-independent basis, Debye):
    X=              5.9194    Y=              1.4582    Z=              3.4098  Tot=              6.9852
 Quadrupole moment (field-independent basis, Debye-Ang):
   XX=           -149.6306   YY=           -116.9184   ZZ=           -111.9069
   XY=              6.3183   XZ=              3.6118   YZ=             -0.5660

 Summary of Natural Population Analysis:

                                       Natural Population
                Natural  -----------------------------------------------
    Atom  No    Charge         Core      Valence    Rydberg      Total
 -----------------------------------------------------------------------
      C    1   -0.29278      0.99965     2.28815    0.00499     3.29278
      C    2   -0.04422      0.99955     2.03039    0.01427     3.04422
      C    3    0.41064      0.99969     1.56224    0.02743     2.58936
      O    4   -0.30271      0.99986     3.29624    0.00660     4.30271
      O    5   -0.34731      0.99987     3.34077    0.00667     4.34731
      N    6   -0.25818      0.99963     2.74726    0.01130     3.75818
      C    7   -0.17503      0.99965     2.16902    0.00637     3.17503
      C    8    0.34920      0.99962     1.62771    0.02347     2.65080
      O    9   -0.31717      0.99988     3.31149    0.00580     4.31717
      C   10   -0.08999      0.99950     2.08146    0.00904     3.08999
      C   11   -0.05254      0.99950     2.04388    0.00915     3.05254
      C   12   -0.09418      0.99949     2.08242    0.01228     3.09418
      C   13   -0.08506      0.99948     2.07661    0.00897     3.08506
      C   14   -0.15820      0.99955     2.14865    0.01000     3.15820
      C   15   -0.15430      0.99956     2.14252    0.01222     3.15430
      S   16    0.20275      4.99942     2.77433    0.02350     7.79725
      H   17    0.11841      0.00000     0.38047    0.00111     0.38159
      H   18    0.09529      0.00000     0.40380    0.00090     0.40471
      H   19    0.09675      0.00000     0.40148    0.00177     0.40325
      H   20    0.10387      0.00000     0.39511    0.00102     0.39613
      H   21    0.23570      0.00000     0.25972    0.00458     0.26430
      H   22    0.08745      0.00000     0.41133    0.00122     0.41255
      H   23    0.11669      0.00000     0.38231    0.00100     0.38331
      H   24    0.08265      0.00000     0.41617    0.00118     0.41735
      H   25    0.09459      0.00000     0.40407    0.00135     0.40541
      H   26    0.08841      0.00000     0.41010    0.00149     0.41159
      H   27    0.09859      0.00000     0.40037    0.00104     0.40141
      H   28    0.09557      0.00000     0.40333    0.00111     0.40443
      H   29    0.09512      0.00000     0.40383    0.00105     0.40488
 =======================================================================
   * Total *    0.00000     19.99391    42.79522    0.21087    63.00000

 Normal termination of Gaussian 16 at Thu Dec 10 21:54:14 2020.
