 Gaussian 16, Revision A.03,

 -----------------------------------------------------------
 # opt freq B3LYP/6-31G(d) empiricaldispersion=gd3bj scf=xqc
 -----------------------------------------------------------

 -------------------------------
 CID_148245515_JID_9840_neutraal
 -------------------------------
 Symbolic Z-matrix:
 Charge =  0 Multiplicity = 1

 SCF Done:  E(RB3LYP) =  -913.921561461     A.U. after   16 cycles
 SCF Done:  E(RB3LYP) =  -913.929844166     A.U. after   15 cycles
 SCF Done:  E(RB3LYP) =  -913.931132372     A.U. after   14 cycles
 SCF Done:  E(RB3LYP) =  -913.929932178     A.U. after   14 cycles
 SCF Done:  E(RB3LYP) =  -913.931689781     A.U. after   14 cycles
 SCF Done:  E(RB3LYP) =  -913.931993422     A.U. after   13 cycles
 SCF Done:  E(RB3LYP) =  -913.932171799     A.U. after   13 cycles
 SCF Done:  E(RB3LYP) =  -913.932208877     A.U. after   12 cycles
 SCF Done:  E(RB3LYP) =  -913.932297426     A.U. after   12 cycles
 SCF Done:  E(RB3LYP) =  -913.932322293     A.U. after   11 cycles
 SCF Done:  E(RB3LYP) =  -913.932358440     A.U. after   10 cycles
 SCF Done:  E(RB3LYP) =  -913.932358677     A.U. after    9 cycles
 SCF Done:  E(RB3LYP) =  -913.932358725     A.U. after    7 cycles
 SCF Done:  E(RB3LYP) =  -913.932358760     A.U. after    7 cycles
 SCF Done:  E(RB3LYP) =  -913.932358774     A.U. after    8 cycles
 SCF Done:  E(RB3LYP) =  -913.932358780     A.U. after    7 cycles
 Optimization completed.
    -- Stationary point found.
 Normal termination of Gaussian 16 at Sat Dec 12 10:11:04 2020.

 --------------------------------------------------------------------
 #N Geom=AllCheck Guess=TCheck SCRF=Check GenChk RB3LYP/6-31G(d) Freq
 --------------------------------------------------------------------

 Structure from the checkpoint file:  "JID_9840.chk"
 -------------------------------
 CID_148245515_JID_9840_neutraal
 -------------------------------
 Charge =  0 Multiplicity = 1

 SCF Done:  E(RB3LYP) =  -913.932358780     A.U. after    1 cycles

  Exact polarizability: 202.345   6.433 172.713  -4.497  11.523 120.475
 Approx polarizability: 276.978  10.161 285.968 -20.410  36.740 185.292

                      1                      2                      3
                      A                      A                      A
 Frequencies --     18.1560                31.4535                42.4232
 Red. masses --      4.0790                 3.2626                 3.3099
 Frc consts  --      0.0008                 0.0019                 0.0035
 IR Inten    --      0.1446                 0.5065                 0.3861

                      4                      5                      6
                      A                      A                      A
 Frequencies --     67.7360                73.1849                85.8835
 Red. masses --      6.4063                 3.5868                 5.8041
 Frc consts  --      0.0173                 0.0113                 0.0252
 IR Inten    --      0.3921                 0.6435                 0.2911

                      7                      8                      9
                      A                      A                      A
 Frequencies --    107.1034               115.6880               126.1055
 Red. masses --      3.2829                 4.2619                 4.1979
 Frc consts  --      0.0222                 0.0336                 0.0393
 IR Inten    --      0.2727                 0.4175                 0.8674

                     10                     11                     12
                      A                      A                      A
 Frequencies --    174.2755               184.7493               210.2759
 Red. masses --      2.8370                 5.9905                 3.5877
 Frc consts  --      0.0508                 0.1205                 0.0935
 IR Inten    --      0.8444                 2.4156                 2.7906

                     13                     14                     15
                      A                      A                      A
 Frequencies --    232.2698               244.8928               267.0983
 Red. masses --      2.3989                 1.4404                 3.3115
 Frc consts  --      0.0763                 0.0509                 0.1392
 IR Inten    --      0.8208                 4.7825                11.6808

                     16                     17                     18
                      A                      A                      A
 Frequencies --    311.4322               333.0536               350.6879
 Red. masses --      1.9901                 2.2444                 3.0929
 Frc consts  --      0.1137                 0.1467                 0.2241
 IR Inten    --      2.9968                 1.6728                28.0596

                     19                     20                     21
                      A                      A                      A
 Frequencies --    377.4454               390.5446               407.3717
 Red. masses --      4.4402                 2.5111                 3.2710
 Frc consts  --      0.3727                 0.2257                 0.3198
 IR Inten    --      3.0015                11.1917                 7.8596

                     22                     23                     24
                      A                      A                      A
 Frequencies --    419.7880               458.3006               465.3229
 Red. masses --      2.2954                 2.5229                 2.8105
 Frc consts  --      0.2383                 0.3122                 0.3585
 IR Inten    --     23.3642                 3.6937                 5.7497

                     25                     26                     27
                      A                      A                      A
 Frequencies --    490.3767               505.0627               558.2959
 Red. masses --      2.1516                 2.4524                 2.1445
 Frc consts  --      0.3048                 0.3686                 0.3938
 IR Inten    --      2.4267                 5.8770                52.9070

                     28                     29                     30
                      A                      A                      A
 Frequencies --    619.3938               644.1079               657.4581
 Red. masses --      3.2696                 2.9535                 6.0049
 Frc consts  --      0.7391                 0.7220                 1.5293
 IR Inten    --     15.1493                 7.5531                 3.8317

                     31                     32                     33
                      A                      A                      A
 Frequencies --    708.7135               735.5366               756.9103
 Red. masses --      3.5669                 6.9919                 6.0892
 Frc consts  --      1.0556                 2.2287                 2.0554
 IR Inten    --      7.3733                22.8889                 5.5948

                     34                     35                     36
                      A                      A                      A
 Frequencies --    760.9469               780.3298               785.5578
 Red. masses --      5.0626                 1.5522                 1.4431
 Frc consts  --      1.7271                 0.5569                 0.5247
 IR Inten    --      6.8466                 0.8257                 1.4664

                     37                     38                     39
                      A                      A                      A
 Frequencies --    832.3533               838.0149               854.4476
 Red. masses --      2.4977                 7.8846                 2.9365
 Frc consts  --      1.0196                 3.2624                 1.2631
 IR Inten    --      6.5007                34.7813                11.7803

                     40                     41                     42
                      A                      A                      A
 Frequencies --    875.2379               877.4448               908.4745
 Red. masses --      2.6694                 2.4294                 1.7848
 Frc consts  --      1.2048                 1.1020                 0.8679
 IR Inten    --     10.2891                 2.3207                17.0257

                     43                     44                     45
                      A                      A                      A
 Frequencies --    935.7806               951.5472               970.8944
 Red. masses --      1.3296                 1.3696                 3.2669
 Frc consts  --      0.6860                 0.7307                 1.8144
 IR Inten    --      4.0044                 4.6822                35.2815

                     46                     47                     48
                      A                      A                      A
 Frequencies --    985.8850              1040.1112              1056.9107
 Red. masses --      3.1589                 2.7178                 1.9856
 Frc consts  --      1.8090                 1.7323                 1.3068
 IR Inten    --     51.5794                 3.2347                 3.2023

                     49                     50                     51
                      A                      A                      A
 Frequencies --   1063.4600              1081.4930              1101.3146
 Red. masses --      1.7131                 2.3191                 3.1637
 Frc consts  --      1.1415                 1.5981                 2.2608
 IR Inten    --      2.5856                36.9446                48.4231

                     52                     53                     54
                      A                      A                      A
 Frequencies --   1118.0675              1126.0386              1150.8197
 Red. masses --      2.0215                 1.9140                 1.0254
 Frc consts  --      1.4889                 1.4299                 0.8001
 IR Inten    --      1.2284                 3.8139                 0.5649

                     55                     56                     57
                      A                      A                      A
 Frequencies --   1173.7295              1183.7332              1187.9153
 Red. masses --      1.7828                 2.0097                 2.1770
 Frc consts  --      1.4471                 1.6592                 1.8100
 IR Inten    --     44.6554                13.0791                27.2126

                     58                     59                     60
                      A                      A                      A
 Frequencies --   1195.5378              1255.3985              1303.4371
 Red. masses --      2.2878                 4.6752                 1.3824
 Frc consts  --      1.9267                 4.3412                 1.3837
 IR Inten    --     25.6864                16.4649                26.0925

                     61                     62                     63
                      A                      A                      A
 Frequencies --   1306.6948              1308.1594              1318.9741
 Red. masses --      1.2966                 1.2915                 1.5402
 Frc consts  --      1.3043                 1.3021                 1.5787
 IR Inten    --      8.8824                 5.0146                44.2470

                     64                     65                     66
                      A                      A                      A
 Frequencies --   1329.8034              1335.4866              1352.8336
 Red. masses --      1.4010                 1.5702                 1.7288
 Frc consts  --      1.4597                 1.6500                 1.8641
 IR Inten    --     41.1486                65.3778                29.1895

                     67                     68                     69
                      A                      A                      A
 Frequencies --   1363.1107              1376.2158              1405.2423
 Red. masses --      2.2304                 1.3727                 1.4066
 Frc consts  --      2.4417                 1.5318                 1.6365
 IR Inten    --     47.4941                 6.5158                18.6003

                     70                     71                     72
                      A                      A                      A
 Frequencies --   1407.6865              1409.4707              1411.4033
 Red. masses --      1.4292                 1.5033                 1.5226
 Frc consts  --      1.6686                 1.7596                 1.7870
 IR Inten    --      3.8830                77.3009                31.5175

                     73                     74                     75
                      A                      A                      A
 Frequencies --   1412.8764              1420.7903              1430.2353
 Red. masses --      1.5307                 2.1024                 1.3355
 Frc consts  --      1.8003                 2.5005                 1.6096
 IR Inten    --    127.2896               324.3579                 9.6768

                     76                     77                     78
                      A                      A                      A
 Frequencies --   1447.9943              1455.0450              1502.0393
 Red. masses --      1.2681                 1.6685                 1.0899
 Frc consts  --      1.5666                 2.0813                 1.4488
 IR Inten    --      7.6712                14.2855                 2.8078

                     79                     80                     81
                      A                      A                      A
 Frequencies --   1503.2388              1507.7946              1508.4186
 Red. masses --      1.1129                 2.0513                 1.3172
 Frc consts  --      1.4818                 2.7476                 1.7658
 IR Inten    --      2.7167                25.6647                32.7581

                     82                     83                     84
                      A                      A                      A
 Frequencies --   1518.7295              1520.3049              1521.2095
 Red. masses --      1.1024                 1.1281                 1.0927
 Frc consts  --      1.4982                 1.5363                 1.4899
 IR Inten    --     11.0266                15.7773                 2.9308

                     85                     86                     87
                      A                      A                      A
 Frequencies --   1529.9124              1535.6753              1544.8527
 Red. masses --      1.1453                 1.1220                 1.0590
 Frc consts  --      1.5794                 1.5590                 1.4891
 IR Inten    --      8.1389                 9.4894                 8.4799

                     88                     89                     90
                      A                      A                      A
 Frequencies --   1547.4968              1599.4729              1612.9752
 Red. masses --      1.5733                 3.4993                 8.5773
 Frc consts  --      2.2199                 5.2745                13.1479
 IR Inten    --     20.9891               148.3043               212.4990

                     91                     92                     93
                      A                      A                      A
 Frequencies --   1649.3098              3011.6064              3019.7270
 Red. masses --      9.3375                 1.0682                 1.0665
 Frc consts  --     14.9654                 5.7084                 5.7299
 IR Inten    --    165.1320                33.5822                24.0392

                     94                     95                     96
                      A                      A                      A
 Frequencies --   3025.9038              3034.9205              3049.0323
 Red. masses --      1.0697                 1.0659                 1.0730
 Frc consts  --      5.7704                 5.7846                 5.8772
 IR Inten    --     12.7935                25.7454                44.5081

                     97                     98                     99
                      A                      A                      A
 Frequencies --   3050.7234              3054.1517              3055.6879
 Red. masses --      1.0717                 1.0426                 1.0805
 Frc consts  --      5.8767                 5.7301                 5.9439
 IR Inten    --     69.9047                20.7553                75.9946

                    100                    101                    102
                      A                      A                      A
 Frequencies --   3063.7484              3069.1829              3072.0220
 Red. masses --      1.0591                 1.0980                 1.0929
 Frc consts  --      5.8574                 6.0938                 6.0769
 IR Inten    --     34.3314                48.6802                46.5606

                    103                    104                    105
                      A                      A                      A
 Frequencies --   3088.8477              3089.0913              3115.0681
 Red. masses --      1.0945                 1.0959                 1.1026
 Frc consts  --      6.1526                 6.1613                 6.3039
 IR Inten    --     16.6321                31.2782                28.9394

                    106                    107                    108
                      A                      A                      A
 Frequencies --   3120.9138              3121.2299              3137.7823
 Red. masses --      1.0952                 1.1073                 1.0929
 Frc consts  --      6.2851                 6.3560                 6.3396
 IR Inten    --     24.5643                41.3585                17.8188

                    109                    110                    111
                      A                      A                      A
 Frequencies --   3163.6680              3564.3807              3681.2683
 Red. masses --      1.0972                 1.0748                 1.0817
 Frc consts  --      6.4700                 8.0457                 8.6370
 IR Inten    --     14.5561                 9.2573               160.5902

 - Thermochemistry -
 -------------------
 Temperature   298.150 Kelvin.  Pressure   1.00000 Atm.
 Atom     1 has atomic number  6 and mass  12.00000

 Molecular mass:   268.15354 amu.
 Principal axes and moments of inertia in atomic units:
                           1         2         3
     Eigenvalues --  2917.230667775.574109373.82613
           X            0.99953  -0.02951   0.00778
           Y            0.02957   0.99954  -0.00714
           Z           -0.00756   0.00736   0.99994
 This molecule is an asymmetric top.
 Rotational symmetry number  1.
 Warning -- assumption of classical behavior for rotation
           may cause significant error
 Rotational temperatures (Kelvin)      0.02969     0.01114     0.00924
 Rotational constants (GHZ):           0.61865     0.23210     0.19253
 Zero-point vibrational energy     874759.6 (Joules/Mol)
                                  209.07257 (Kcal/Mol)
 Warning -- explicit consideration of  28 degrees of freedom as
           vibrations may cause significant error
 Vibrational temperatures:     26.12    45.25    61.04    97.46   105.30
          (Kelvin)            123.57   154.10   166.45   181.44   250.74
                              265.81   302.54   334.18   352.35   384.29
                              448.08   479.19   504.56   543.06   561.91
                              586.12   603.98   659.39   669.50   705.54
                              726.67   803.26   891.17   926.73   945.94
                             1019.68  1058.27  1089.03  1094.83  1122.72
                             1130.24  1197.57  1205.72  1229.36  1259.27
                             1262.45  1307.09  1346.38  1369.06  1396.90
                             1418.47  1496.49  1520.66  1530.08  1556.03
                             1584.55  1608.65  1620.12  1655.77  1688.73
                             1703.13  1709.15  1720.11  1806.24  1875.36
                             1880.04  1882.15  1897.71  1913.29  1921.47
                             1946.43  1961.21  1980.07  2021.83  2025.35
                             2027.91  2030.69  2032.81  2044.20  2057.79
                             2083.34  2093.49  2161.10  2162.83  2169.38
                             2170.28  2185.11  2187.38  2188.68  2201.20
                             2209.49  2222.70  2226.50  2301.28  2320.71
                             2372.99  4333.03  4344.71  4353.60  4366.57
                             4386.88  4389.31  4394.24  4396.45  4408.05
                             4415.87  4419.95  4444.16  4444.51  4481.89
                             4490.30  4490.75  4514.57  4551.81  5128.35
                             5296.52

 Zero-point correction=                           0.333178 (Hartree/Particle)
 Thermal correction to Energy=                    0.351853
 Thermal correction to Enthalpy=                  0.352798
 Thermal correction to Gibbs Free Energy=         0.284438
 Sum of electronic and zero-point Energies=           -913.599180
 Sum of electronic and thermal Energies=              -913.580505
 Sum of electronic and thermal Enthalpies=            -913.579561
 Sum of electronic and thermal Free Energies=         -913.647921

                     E (Thermal)             CV                S
                      KCal/Mol        Cal/Mol-Kelvin    Cal/Mol-Kelvin
 Total                  220.791             70.046            143.874
 Electronic               0.000              0.000              0.000
 Translational            0.889              2.981             42.658
 Rotational               0.889              2.981             33.719
 Vibrational            219.014             64.084             67.497
 Vibration     1          0.593              1.986              6.826
 Vibration     2          0.594              1.983              5.736
 Vibration     3          0.595              1.980              5.143
 Vibration     4          0.598              1.970              4.218
 Vibration     5          0.599              1.967              4.066
 Vibration     6          0.601              1.959              3.752
 Vibration     7          0.606              1.944              3.321
 Vibration     8          0.608              1.936              3.171
 Vibration     9          0.611              1.927              3.005
 Vibration    10          0.627              1.874              2.389
 Vibration    11          0.631              1.861              2.280
 Vibration    12          0.642              1.825              2.041
 Vibration    13          0.653              1.792              1.861
 Vibration    14          0.660              1.771              1.767
 Vibration    15          0.672              1.734              1.615
 Vibration    16          0.700              1.652              1.355
 Vibration    17          0.715              1.609              1.245
 Vibration    18          0.728              1.574              1.163
 Vibration    19          0.748              1.518              1.049
 Vibration    20          0.758              1.490              0.998
 Vibration    21          0.772              1.454              0.936
 Vibration    22          0.782              1.427              0.893
 Vibration    23          0.816              1.343              0.771
 Vibration    24          0.823              1.327              0.751
 Vibration    25          0.846              1.271              0.683
 Vibration    26          0.860              1.239              0.646
 Vibration    27          0.914              1.122              0.527
 Vibration    28          0.979              0.991              0.417

                           ! Non-Optimized Parameters !
 Normal termination of Gaussian 16 at Sat Dec 12 10:30:05 2020.

 ----------------------------------------------------------------------
 # B3LYP/6-311++G(d,p) empiricaldispersion=gd3bj scf=xqc pop=npa geom=c
 heck
 ----------------------------------------------------------------------

 ---------------------------------------
 CID_148245515_JID_9840_Energie_neutraal
 ---------------------------------------
 Structure from the checkpoint file:  "JID_9840.chk"
 Charge =  0 Multiplicity = 1

 SCF Done:  E(RB3LYP) =  -914.191833862     A.U. after   17 cycles
 Normal termination of Gaussian 16 at Sat Dec 12 10:38:13 2020.

 ----------------------------------------------------------------------
 # B3LYP/6-311++G(d,p) empiricaldispersion=gd3bj scf=xqc pop=npa geom=c
 heck
 ----------------------------------------------------------------------

 -------------------------------------
 CID_148245515_JID_9840_Energie_kation
 -------------------------------------
 Structure from the checkpoint file:  "JID_9840.chk"
 Charge =  1 Multiplicity = 2

 SCF Done:  E(UB3LYP) =  -913.904723400     A.U. after   27 cycles
 Normal termination of Gaussian 16 at Sat Dec 12 10:55:37 2020.
 Gaussian 16:  ES64L-G16RevA.03 25-Dec-2016

 ----------------------------------------------------------------------
 # B3LYP/6-311++G(d,p) empiricaldispersion=gd3bj scf=xqc pop=npa geom=c
 heck
 ----------------------------------------------------------------------

 ------------------------------------
 CID_148245515_JID_9840_Energie_anion
 ------------------------------------
 Structure from the checkpoint file:  "JID_9840.chk"
 Charge = -1 Multiplicity = 2

                         Standard orientation:
 ---------------------------------------------------------------------
 Center     Atomic      Atomic             Coordinates (Angstroms)
 Number     Number       Type             X           Y           Z
 ---------------------------------------------------------------------
      1          6           0        3.462915   -1.467567    1.490838
      2          6           0        3.295748   -2.418781    0.304399
      3          6           0        1.958115   -2.305939   -0.412879
      4          8           0        1.817869   -1.041931   -1.118207
      5          6           0        1.104588   -0.076590   -0.501728
      6          6           0        1.508959    1.199403   -0.122879
      7          7           0        0.423659    1.830759    0.391793
      8          7           0       -0.679279    1.051895    0.361954
      9          6           0       -0.290844   -0.106350   -0.181983
     10          7           0       -1.080142   -1.223289   -0.382903
     11          6           0       -2.555736   -1.323202   -0.339938
     12          6           0       -3.154099   -1.181897    1.076084
     13          6           0       -3.530773    0.244057    1.503197
     14          6           0       -4.379169    0.943069    0.432757
     15          6           0       -3.656819    0.959136   -0.920774
     16          6           0       -3.316788   -0.465665   -1.378973
     17          7           0        2.759334    1.870164   -0.188721
     18          8           0        2.777223    3.042626    0.213546
     19          8           0        3.729470    1.251329   -0.628209
     20          1           0        3.541132   -0.433277    1.150106
     21          1           0        4.377571   -1.700436    2.046172
     22          1           0        2.618322   -1.544579    2.186529
     23          1           0        4.098139   -2.255682   -0.424564
     24          1           0        3.381865   -3.460733    0.644592
     25          1           0        1.878448   -3.070632   -1.191661
     26          1           0        1.121119   -2.426760    0.283684
     27          1           0        0.389470    2.782553    0.722483
     28          1           0       -0.700772   -1.770343   -1.147009
     29          1           0       -2.707756   -2.369797   -0.627596
     30          1           0       -4.069664   -1.790142    1.083969
     31          1           0       -2.466484   -1.640242    1.795587
     32          1           0       -2.626044    0.829569    1.680979
     33          1           0       -4.082594    0.194161    2.450549
     34          1           0       -4.614131    1.967114    0.747787
     35          1           0       -5.341460    0.418949    0.325109
     36          1           0       -2.741753    1.551516   -0.833200
     37          1           0       -4.285646    1.438959   -1.681563
     38          1           0       -2.749014   -0.450397   -2.317909
     39          1           0       -4.258827   -0.990752   -1.594675
 ---------------------------------------------------------------------

 SCF Done:  E(UB3LYP) =  -914.228564237     A.U. after   25 cycles

 The electronic state is 2-A.
 Alpha  occ. eigenvalues --  -19.01495 -18.92756 -18.92628 -14.30287 -14.23020
 Alpha  occ. eigenvalues --  -14.20862 -14.18146 -10.11480 -10.10966 -10.09315
 Alpha  occ. eigenvalues --  -10.08437 -10.07439 -10.07418 -10.07342 -10.07211
 Alpha  occ. eigenvalues --  -10.06355 -10.06121 -10.06119 -10.04120  -1.01063
 Alpha  occ. eigenvalues --   -0.93225  -0.90357  -0.83803  -0.81737  -0.72764
 Alpha  occ. eigenvalues --   -0.68310  -0.67864  -0.65031  -0.64819  -0.62800
 Alpha  occ. eigenvalues --   -0.57743  -0.54290  -0.52714  -0.51850  -0.48827
 Alpha  occ. eigenvalues --   -0.47143  -0.45169  -0.43554  -0.39696  -0.38772
 Alpha  occ. eigenvalues --   -0.37492  -0.36810  -0.36562  -0.35448  -0.35010
 Alpha  occ. eigenvalues --   -0.34482  -0.34012  -0.33117  -0.32035  -0.31018
 Alpha  occ. eigenvalues --   -0.30159  -0.29414  -0.28945  -0.28463  -0.28071
 Alpha  occ. eigenvalues --   -0.27371  -0.26342  -0.25013  -0.24722  -0.23469
 Alpha  occ. eigenvalues --   -0.22786  -0.22313  -0.21905  -0.21118  -0.19150
 Alpha  occ. eigenvalues --   -0.18170  -0.14642  -0.12502  -0.11043  -0.10486
 Alpha  occ. eigenvalues --   -0.09066  -0.07744   0.03359
 Alpha virt. eigenvalues --    0.05821   0.07390   0.08054   0.08226   0.09245
 Alpha virt. eigenvalues --    0.09701   0.10398   0.10616   0.11203   0.11473
 Alpha virt. eigenvalues --    0.11925   0.12448   0.12920   0.13683   0.14471

  Beta  occ. eigenvalues --  -19.01472 -18.92219 -18.91974 -14.29467 -14.22823
  Beta  occ. eigenvalues --  -14.20877 -14.17901 -10.11480 -10.10941 -10.09394
  Beta  occ. eigenvalues --  -10.08461 -10.07419 -10.07343 -10.07236 -10.07211
  Beta  occ. eigenvalues --  -10.06352 -10.06120 -10.06118 -10.04120  -0.99738
  Beta  occ. eigenvalues --   -0.93094  -0.90061  -0.82707  -0.81723  -0.72757
  Beta  occ. eigenvalues --   -0.67958  -0.67792  -0.64883  -0.64771  -0.62643
  Beta  occ. eigenvalues --   -0.57567  -0.53391  -0.52572  -0.51847  -0.48769
  Beta  occ. eigenvalues --   -0.47115  -0.44962  -0.43478  -0.39557  -0.38744
  Beta  occ. eigenvalues --   -0.37375  -0.36373  -0.36244  -0.35399  -0.34841
  Beta  occ. eigenvalues --   -0.33999  -0.32821  -0.32135  -0.31797  -0.30574
  Beta  occ. eigenvalues --   -0.30027  -0.28549  -0.28479  -0.28134  -0.27597
  Beta  occ. eigenvalues --   -0.27267  -0.26162  -0.25000  -0.24660  -0.23413
  Beta  occ. eigenvalues --   -0.22747  -0.22259  -0.21803  -0.21117  -0.18923
  Beta  occ. eigenvalues --   -0.17971  -0.14410  -0.10476  -0.09215  -0.08520
  Beta  occ. eigenvalues --   -0.08458  -0.06943
  Beta virt. eigenvalues --    0.05806   0.07373   0.08044   0.08205   0.09226
  Beta virt. eigenvalues --    0.09687   0.10382   0.10596   0.11171   0.11433
  Beta virt. eigenvalues --    0.11611   0.11941   0.12490   0.12903   0.13673

 Mulliken charges and spin densities:
               1          2
     1  C   -0.452710  -0.022973
     2  C   -0.341813  -0.022147
     3  C   -0.169795   0.031383
     4  O   -0.087461  -0.003831
     5  C    0.141281   0.189315
     6  C   -0.228186  -0.040079
     7  N    0.254868   0.086892
     8  N   -0.469827   0.120931
     9  C   -0.289098  -0.086418
    10  N   -0.008580  -0.002990
    11  C   -0.011483  -0.009272
    12  C   -0.366759   0.003512
    13  C   -0.172395   0.000165
    14  C   -0.614975   0.000021
    15  C   -0.141684   0.001280
    16  C   -0.351498  -0.002302
    17  N   -0.426095   0.249557
    18  O   -0.188516   0.214587
    19  O   -0.179892   0.248514
    20  H    0.133707   0.038258
    21  H    0.127842  -0.003674
    22  H    0.103690   0.002751
    23  H    0.163761  -0.001949
    24  H    0.093992   0.001935
    25  H    0.110694   0.011612
    26  H    0.152985  -0.006011
    27  H    0.332648  -0.006688
    28  H    0.304865   0.000943
    29  H    0.151474   0.001582
    30  H    0.136939   0.000028
    31  H    0.148475  -0.000187
    32  H    0.177557   0.000325
    33  H    0.147870   0.000702
    34  H    0.148089  -0.000165
    35  H    0.085673   0.000252
    36  H    0.175145  -0.000191
    37  H    0.148913   0.002669
    38  H    0.137352  -0.000158
    39  H    0.122948   0.001822
 Sum of Mulliken charges =  -1.00000   1.00000

 Dipole moment (field-independent basis, Debye):
    X=            -10.5935    Y=             -7.8553    Z=              0.7283  Tot=             13.2083
 Quadrupole moment (field-independent basis, Debye-Ang):
   XX=           -175.2973   YY=           -138.8548   ZZ=           -124.5770
   XY=            -22.7778   XZ=              6.5966   YZ=              2.2725

 Summary of Natural Population Analysis:

                                       Natural Population
                Natural  -----------------------------------------------
    Atom  No    Charge         Core      Valence    Rydberg      Total
 -----------------------------------------------------------------------
      C    1   -0.29368      0.99966     2.28896    0.00505     3.29368
      C    2   -0.19965      0.99964     2.19360    0.00640     3.19965
      C    3   -0.00582      0.99955     1.99572    0.01055     3.00582
      O    4   -0.28217      0.99985     3.27063    0.01169     4.28217
      C    5    0.12398      0.99929     1.86396    0.01277     2.87602
      C    6    0.11972      0.99943     1.86687    0.01399     2.88028
      N    7   -0.14572      0.99966     2.63378    0.01228     3.64572
      N    8   -0.16888      0.99969     2.65352    0.01567     3.66888
      C    9    0.12519      0.99954     1.85985    0.01542     2.87481
      N   10   -0.33661      0.99967     2.82399    0.01295     3.83661
      C   11    0.00012      0.99958     1.98873    0.01157     2.99988
      C   12   -0.19143      0.99961     2.18419    0.00763     3.19143
      C   13   -0.20023      0.99963     2.19318    0.00743     3.20023
      C   14   -0.18695      0.99964     2.18027    0.00703     3.18695
      C   15   -0.19895      0.99963     2.19175    0.00757     3.19895
      C   16   -0.19480      0.99961     2.18777    0.00742     3.19480
      N   17    0.31818      0.99969     2.15694    0.02519     3.18182
      O   18   -0.21184      0.99990     3.20401    0.00792     4.21184
      O   19   -0.17557      0.99990     3.16669    0.00899     4.17557
      H   20    0.12158      0.00000     0.37694    0.00148     0.37842
      H   21    0.09081      0.00000     0.40827    0.00092     0.40919
      H   22    0.09088      0.00000     0.40806    0.00106     0.40912
      H   23    0.10095      0.00000     0.39782    0.00123     0.39905
      H   24    0.08545      0.00000     0.41319    0.00136     0.41455
      H   25    0.07905      0.00000     0.41982    0.00113     0.42095
      H   26    0.08592      0.00000     0.41270    0.00138     0.41408
      H   27    0.20402      0.00000     0.29421    0.00178     0.29598
      H   28    0.18285      0.00000     0.31485    0.00231     0.31715
      H   29    0.08876      0.00000     0.40978    0.00146     0.41124
      H   30    0.08912      0.00000     0.40973    0.00115     0.41088
      H   31    0.10476      0.00000     0.39417    0.00107     0.39524
      H   32    0.11902      0.00000     0.37964    0.00134     0.38098
      H   33    0.08840      0.00000     0.41042    0.00119     0.41160
      H   34    0.09556      0.00000     0.40341    0.00103     0.40444
      H   35    0.08338      0.00000     0.41522    0.00140     0.41662
      H   36    0.11598      0.00000     0.38257    0.00145     0.38402
      H   37    0.08919      0.00000     0.40958    0.00123     0.41081
      H   38    0.10055      0.00000     0.39844    0.00101     0.39945
      H   39    0.08888      0.00000     0.40985    0.00127     0.41112
 =======================================================================
   * Total *   -0.00000     18.99317    52.77306    0.23377    72.00000

 Normal termination of Gaussian 16 at Sat Dec 12 11:12:01 2020.
