 Gaussian 16, Revision A.03,

 -----------------------------------------------------------
 # opt freq B3LYP/6-31G(d) empiricaldispersion=gd3bj scf=xqc
 -----------------------------------------------------------

 ------------------------------
 CID_59889342_JID_3644_neutraal
 ------------------------------
 Symbolic Z-matrix:
 Charge =  0 Multiplicity = 1

 SCF Done:  E(RB3LYP) =  -535.936278043     A.U. after   14 cycles
 SCF Done:  E(RB3LYP) =  -535.939748793     A.U. after   13 cycles
 SCF Done:  E(RB3LYP) =  -535.941081882     A.U. after   13 cycles
 SCF Done:  E(RB3LYP) =  -535.942208269     A.U. after   12 cycles
 SCF Done:  E(RB3LYP) =  -535.942448150     A.U. after   12 cycles
 SCF Done:  E(RB3LYP) =  -535.942570719     A.U. after   12 cycles
 SCF Done:  E(RB3LYP) =  -535.942614952     A.U. after   11 cycles
 SCF Done:  E(RB3LYP) =  -535.942628947     A.U. after    9 cycles
 SCF Done:  E(RB3LYP) =  -535.942637894     A.U. after    9 cycles
 SCF Done:  E(RB3LYP) =  -535.942643752     A.U. after    9 cycles
 SCF Done:  E(RB3LYP) =  -535.942649026     A.U. after    9 cycles
 SCF Done:  E(RB3LYP) =  -535.942650572     A.U. after    8 cycles
 SCF Done:  E(RB3LYP) =  -535.942650903     A.U. after    7 cycles
 SCF Done:  E(RB3LYP) =  -535.942650971     A.U. after    7 cycles
 Optimization completed.
    -- Stationary point found.
 Normal termination of Gaussian 16 at Wed Dec  9 23:51:46 2020.

 --------------------------------------------------------------------
 #N Geom=AllCheck Guess=TCheck SCRF=Check GenChk RB3LYP/6-31G(d) Freq
 --------------------------------------------------------------------

 Structure from the checkpoint file:  "JID_3644.chk"
 ------------------------------
 CID_59889342_JID_3644_neutraal
 ------------------------------
 Charge =  0 Multiplicity = 1

 SCF Done:  E(RB3LYP) =  -535.942650971     A.U. after    1 cycles

  Exact polarizability: 196.223  -3.636 126.942   3.431   7.714  64.409
 Approx polarizability: 291.073 -11.341 214.618   7.751  17.417 101.866

                      1                      2                      3
                      A                      A                      A
 Frequencies --     64.5275                74.8172               110.2901
 Red. masses --      3.1255                 3.9134                 4.1919
 Frc consts  --      0.0077                 0.0129                 0.0300
 IR Inten    --      2.1138                 0.2482                 0.6810

                      4                      5                      6
                      A                      A                      A
 Frequencies --    148.3536               169.6993               199.3815
 Red. masses --      1.3762                 1.1188                 2.1170
 Frc consts  --      0.0178                 0.0190                 0.0496
 IR Inten    --      0.1699                 0.1567                 0.7911

                      7                      8                      9
                      A                      A                      A
 Frequencies --    236.7737               277.5774               314.5920
 Red. masses --      3.5545                 4.1386                 3.8580
 Frc consts  --      0.1174                 0.1879                 0.2250
 IR Inten    --      6.3376                 2.0883                 1.0976

                     10                     11                     12
                      A                      A                      A
 Frequencies --    328.8061               369.3584               397.7741
 Red. masses --      2.9768                 4.3567                 2.6911
 Frc consts  --      0.1896                 0.3502                 0.2509
 IR Inten    --      1.4632                 0.5100                 0.3270

                     13                     14                     15
                      A                      A                      A
 Frequencies --    489.2029               560.4865               631.5513
 Red. masses --      3.3898                 3.2708                 5.1784
 Frc consts  --      0.4780                 0.6054                 1.2169
 IR Inten    --      3.4042                 8.7441                11.8559

                     16                     17                     18
                      A                      A                      A
 Frequencies --    636.8774               664.5375               689.0270
 Red. masses --      3.8108                 4.1530                 6.1318
 Frc consts  --      0.9107                 1.0806                 1.7152
 IR Inten    --      2.3238                 1.1921                 0.7537

                     19                     20                     21
                      A                      A                      A
 Frequencies --    720.9997               745.5426               763.4074
 Red. masses --      5.5000                 4.0292                 3.3500
 Frc consts  --      1.6845                 1.3195                 1.1503
 IR Inten    --     16.9488                 5.3664                 4.8447

                     22                     23                     24
                      A                      A                      A
 Frequencies --    773.6128               837.3978               853.1136
 Red. masses --      1.3342                 1.3480                 1.4726
 Frc consts  --      0.4705                 0.5570                 0.6315
 IR Inten    --     35.3255                16.3017                 9.3871

                     25                     26                     27
                      A                      A                      A
 Frequencies --    887.4610               952.3016               977.2673
 Red. masses --      1.2421                 3.9093                 1.2887
 Frc consts  --      0.5764                 2.0888                 0.7252
 IR Inten    --      0.1802                 0.1046                 0.7817

                     28                     29                     30
                      A                      A                      A
 Frequencies --    991.6546              1007.4323              1013.3194
 Red. masses --      1.4417                 1.5906                 7.4174
 Frc consts  --      0.8353                 0.9511                 4.4874
 IR Inten    --      0.1730                 4.2177                14.4274

                     31                     32                     33
                      A                      A                      A
 Frequencies --   1053.1482              1075.2245              1086.2874
 Red. masses --      1.4035                 1.4464                 2.0025
 Frc consts  --      0.9172                 0.9852                 1.3922
 IR Inten    --      7.3934                 1.7419                 5.4747

                     34                     35                     36
                      A                      A                      A
 Frequencies --   1103.9799              1123.8205              1157.3934
 Red. masses --      1.7331                 1.5856                 1.3001
 Frc consts  --      1.2445                 1.1798                 1.0261
 IR Inten    --      0.3145                 0.1937                 2.5466

                     37                     38                     39
                      A                      A                      A
 Frequencies --   1195.4915              1228.2095              1259.0610
 Red. masses --      2.2404                 2.0317                 1.2742
 Frc consts  --      1.8866                 1.8057                 1.1901
 IR Inten    --      6.1769                14.1422                10.4972

                     40                     41                     42
                      A                      A                      A
 Frequencies --   1288.8366              1296.8101              1364.7380
 Red. masses --      3.1707                 4.9424                 1.5480
 Frc consts  --      3.1031                 4.8971                 1.6987
 IR Inten    --      2.0011                 1.8547                 0.5538

                     43                     44                     45
                      A                      A                      A
 Frequencies --   1371.0981              1416.8261              1445.1810
 Red. masses --      3.5852                 4.3967                 1.9662
 Frc consts  --      3.9710                 5.2001                 2.4195
 IR Inten    --     31.9080                13.8378                11.2244

                     46                     47                     48
                      A                      A                      A
 Frequencies --   1447.4843              1465.9862              1496.9834
 Red. masses --      1.4989                 2.0773                 1.2692
 Frc consts  --      1.8503                 2.6304                 1.6758
 IR Inten    --     18.7747                39.4511                16.3550

                     49                     50                     51
                      A                      A                      A
 Frequencies --   1510.0630              1521.5333              1525.0667
 Red. masses --      1.0619                 2.3509                 1.1719
 Frc consts  --      1.4266                 3.2066                 1.6058
 IR Inten    --      6.4512                 1.4694                 9.0623

                     52                     53                     54
                      A                      A                      A
 Frequencies --   1531.6070              1543.5102              1561.8400
 Red. masses --      1.2377                 1.0857                 3.6774
 Frc consts  --      1.7107                 1.5240                 5.2852
 IR Inten    --     22.6519                 0.4394                67.3738

                     55                     56                     57
                      A                      A                      A
 Frequencies --   1596.9192              1621.0177              1655.4940
 Red. masses --      6.1202                 5.2497                 5.4124
 Frc consts  --      9.1957                 8.1276                 8.7397
 IR Inten    --     13.7742                 7.9704               202.2938

                     58                     59                     60
                      A                      A                      A
 Frequencies --   3028.4934              3052.5886              3073.5986
 Red. masses --      1.0422                 1.0454                 1.0991
 Frc consts  --      5.6317                 5.7396                 6.1179
 IR Inten    --     48.5791                42.8589                25.0218

                     61                     62                     63
                      A                      A                      A
 Frequencies --   3127.1898              3138.0747              3166.5426
 Red. masses --      1.0931                 1.0965                 1.0882
 Frc consts  --      6.2984                 6.3617                 6.4287
 IR Inten    --     20.1286                12.7312                37.7976

                     64                     65                     66
                      A                      A                      A
 Frequencies --   3170.6562              3174.1091              3213.6530
 Red. masses --      1.0904                 1.1022                 1.0929
 Frc consts  --      6.4586                 6.5427                 6.6499
 IR Inten    --     36.9552                 4.5874                12.9279

                     67                     68                     69
                      A                      A                      A
 Frequencies --   3218.3028              3251.2392              3266.6637
 Red. masses --      1.0924                 1.0914                 1.1005
 Frc consts  --      6.6666                 6.7974                 6.9189
 IR Inten    --     10.3651                 9.4173                 4.5621

 - Thermochemistry -
 -------------------
 Temperature   298.150 Kelvin.  Pressure   1.00000 Atm.
 Atom     1 has atomic number  6 and mass  12.00000

 Molecular mass:   172.10005 amu.
 Principal axes and moments of inertia in atomic units:
                           1         2         3
     Eigenvalues --   845.461193776.686174435.92014
           X            0.99993   0.01207  -0.00128
           Y           -0.01207   0.99993   0.00188
           Z            0.00130  -0.00186   1.00000
 This molecule is an asymmetric top.
 Rotational symmetry number  1.
 Warning -- assumption of classical behavior for rotation
           may cause significant error
 Rotational temperatures (Kelvin)      0.10245     0.02293     0.01953
 Rotational constants (GHZ):           2.13462     0.47786     0.40685
 Zero-point vibrational energy     548558.8 (Joules/Mol)
                                  131.10870 (Kcal/Mol)
 Warning -- explicit consideration of  14 degrees of freedom as
           vibrations may cause significant error
 Vibrational temperatures:     92.84   107.65   158.68   213.45   244.16
          (Kelvin)            286.87   340.66   399.37   452.63   473.08
                              531.42   572.31   703.85   806.42   908.66
                              916.32   956.12   991.36  1037.36  1072.67
                             1098.37  1113.06  1204.83  1227.44  1276.86
                             1370.15  1406.07  1426.77  1449.47  1457.94
                             1515.25  1547.01  1562.93  1588.38  1616.93
                             1665.23  1720.05  1767.12  1811.51  1854.35
                             1865.82  1963.55  1972.70  2038.50  2079.29
                             2082.61  2109.23  2153.83  2172.64  2189.15
                             2194.23  2203.64  2220.77  2247.14  2297.61
                             2332.28  2381.89  4357.33  4391.99  4422.22
                             4499.33  4514.99  4555.95  4561.87  4566.84
                             4623.73  4630.42  4677.81  4700.00

 Zero-point correction=                           0.208935 (Hartree/Particle)
 Thermal correction to Energy=                    0.220287
 Thermal correction to Enthalpy=                  0.221231
 Thermal correction to Gibbs Free Energy=         0.171499
 Sum of electronic and zero-point Energies=           -535.733716
 Sum of electronic and thermal Energies=              -535.722364
 Sum of electronic and thermal Enthalpies=            -535.721420
 Sum of electronic and thermal Free Energies=         -535.771152

                     E (Thermal)             CV                S
                      KCal/Mol        Cal/Mol-Kelvin    Cal/Mol-Kelvin
 Total                  138.232             43.649            104.669
 Electronic               0.000              0.000              0.000
 Translational            0.889              2.981             41.336
 Rotational               0.889              2.981             31.027
 Vibrational            136.454             37.688             32.306
 Vibration     1          0.597              1.971              4.314
 Vibration     2          0.599              1.966              4.022
 Vibration     3          0.606              1.941              3.264
 Vibration     4          0.618              1.904              2.693
 Vibration     5          0.625              1.880              2.439
 Vibration     6          0.638              1.841              2.139
 Vibration     7          0.656              1.784              1.827
 Vibration     8          0.679              1.715              1.549
 Vibration     9          0.702              1.646              1.338
 Vibration    10          0.712              1.618              1.266
 Vibration    11          0.742              1.535              1.082
 Vibration    12          0.764              1.475              0.971
 Vibration    13          0.845              1.274              0.686
 Vibration    14          0.916              1.117              0.523

 Optimization completed.
    -- Stationary point found.
 Normal termination of Gaussian 16 at Wed Dec  9 23:57:36 2020.

 ----------------------------------------------------------------------
 # B3LYP/6-311++G(d,p) empiricaldispersion=gd3bj scf=xqc pop=npa geom=c
 heck
 ----------------------------------------------------------------------

 --------------------------------------
 CID_59889342_JID_3644_Energie_neutraal
 --------------------------------------
 Structure from the checkpoint file:  "JID_3644.chk"
 Charge =  0 Multiplicity = 1

 SCF Done:  E(RB3LYP) =  -536.079612609     A.U. after   15 cycles
 Normal termination of Gaussian 16 at Wed Dec  9 23:59:42 2020.

 ----------------------------------------------------------------------
 # B3LYP/6-311++G(d,p) empiricaldispersion=gd3bj scf=xqc pop=npa geom=c
 heck
 ----------------------------------------------------------------------

 ------------------------------------
 CID_59889342_JID_3644_Energie_kation
 ------------------------------------
 Structure from the checkpoint file:  "JID_3644.chk"
 Charge =  1 Multiplicity = 2

 SCF Done:  E(UB3LYP) =  -535.806264058     A.U. after   23 cycles
 Normal termination of Gaussian 16 at Thu Dec 10 00:04:02 2020.
 Gaussian 16:  ES64L-G16RevA.03 25-Dec-2016

 ----------------------------------------------------------------------
 # B3LYP/6-311++G(d,p) empiricaldispersion=gd3bj scf=xqc pop=npa geom=c
 heck
 ----------------------------------------------------------------------

 -----------------------------------
 CID_59889342_JID_3644_Energie_anion
 -----------------------------------
 Structure from the checkpoint file:  "JID_3644.chk"
 Charge = -1 Multiplicity = 2

                         Standard orientation:
 ---------------------------------------------------------------------
 Center     Atomic      Atomic             Coordinates (Angstroms)
 Number     Number       Type             X           Y           Z
 ---------------------------------------------------------------------
      1          6           0       -3.948099   -0.575191    0.097001
      2          6           0       -2.659343    0.164116   -0.052905
      3          6           0       -2.432619    1.502313   -0.320263
      4          6           0       -1.033633    1.709734   -0.325416
      5          6           0       -0.419797    0.490104   -0.076449
      6          7           0       -1.431727   -0.453105    0.090074
      7          6           0       -1.265692   -1.833484    0.512506
      8          6           0        1.008274    0.195696   -0.040501
      9          6           0        1.575307   -0.987558   -0.546247
     10          6           0        2.956115   -1.162070   -0.493313
     11          7           0        3.812116   -0.260543    0.003223
     12          6           0        3.271464    0.874925    0.469308
     13          6           0        1.907583    1.144705    0.478171
     14          1           0       -4.018820   -1.434782   -0.582091
     15          1           0       -4.779550    0.097296   -0.129724
     16          1           0       -4.101666   -0.953543    1.117209
     17          1           0       -3.202563    2.240509   -0.499727
     18          1           0       -0.511358    2.631533   -0.541460
     19          1           0       -1.301997   -2.526618   -0.336680
     20          1           0       -0.306923   -1.949089    1.018260
     21          1           0       -2.060486   -2.101957    1.212334
     22          1           0        0.957308   -1.749185   -1.008918
     23          1           0        3.399983   -2.077113   -0.882795
     24          1           0        3.971680    1.606037    0.870210
     25          1           0        1.534319    2.072712    0.898953
 ---------------------------------------------------------------------

 SCF Done:  E(UB3LYP) =  -536.072454960     A.U. after   33 cycles
 SCF Done:  E(UB3LYP) =  -536.072454960     a.u. after    1 cycles

 The electronic state is 2-A.
 Alpha  occ. eigenvalues --  -14.24062 -14.16723 -10.09819 -10.07863 -10.07635
 Alpha  occ. eigenvalues --  -10.07583 -10.07532 -10.06080 -10.06045 -10.05047
 Alpha  occ. eigenvalues --  -10.04964 -10.03684 -10.03439  -0.86742  -0.81041
 Alpha  occ. eigenvalues --   -0.69538  -0.68679  -0.64247  -0.63292  -0.57778
 Alpha  occ. eigenvalues --   -0.56572  -0.50545  -0.49627  -0.45650  -0.42818
 Alpha  occ. eigenvalues --   -0.41178  -0.36322  -0.35269  -0.35087  -0.34770
 Alpha  occ. eigenvalues --   -0.32167  -0.30836  -0.30409  -0.30148  -0.29052
 Alpha  occ. eigenvalues --   -0.27547  -0.27063  -0.26525  -0.25380  -0.24917
 Alpha  occ. eigenvalues --   -0.23196  -0.17329  -0.14202  -0.13289  -0.12622
 Alpha  occ. eigenvalues --   -0.08455   0.04733
 Alpha virt. eigenvalues --    0.06451   0.08087   0.08593   0.09234   0.09875
 Alpha virt. eigenvalues --    0.10173   0.10329   0.11393   0.11972   0.12438
 Alpha virt. eigenvalues --    0.13016   0.13241   0.14222   0.15023   0.15358

  Beta  occ. eigenvalues --  -14.23986 -14.16409 -10.09794 -10.07798 -10.07618
  Beta  occ. eigenvalues --  -10.07562 -10.07561 -10.05999 -10.05820 -10.05016
  Beta  occ. eigenvalues --  -10.04941 -10.03707 -10.03350  -0.86617  -0.80628
  Beta  occ. eigenvalues --   -0.69220  -0.68512  -0.64095  -0.63102  -0.57692
  Beta  occ. eigenvalues --   -0.56393  -0.50459  -0.49275  -0.45554  -0.42717
  Beta  occ. eigenvalues --   -0.41067  -0.36173  -0.35141  -0.34939  -0.34635
  Beta  occ. eigenvalues --   -0.32085  -0.30758  -0.30346  -0.30065  -0.28961
  Beta  occ. eigenvalues --   -0.27095  -0.26730  -0.26438  -0.25065  -0.24800
  Beta  occ. eigenvalues --   -0.23095  -0.16053  -0.13671  -0.12935  -0.12310
  Beta  occ. eigenvalues --   -0.08009
  Beta virt. eigenvalues --    0.07278   0.08349   0.08610   0.08850   0.09560
  Beta virt. eigenvalues --    0.10224   0.10401   0.10558   0.11521   0.12298
  Beta virt. eigenvalues --    0.12542   0.13213   0.13336   0.14435   0.15155

 Mulliken charges and spin densities:
               1          2
     1  C    2.651701  -3.397583
     2  C   -1.824682   2.041780
     3  C    0.014160  -0.190048
     4  C   -0.369906   0.035802
     5  C   -0.048563  -0.163876
     6  N    0.084528   0.207395
     7  C    0.139526  -0.564046
     8  C    0.396776  -0.111833
     9  C   -0.013184   0.321678
    10  C   -0.345203  -0.172477
    11  N   -0.127509   0.143442
    12  C   -0.526400  -0.068065
    13  C   -0.125125   0.278764
    14  H   -0.580289   0.745506
    15  H   -0.401880   0.550680
    16  H   -0.122909   0.272716
    17  H   -0.052626   0.185488
    18  H    0.073390   0.036891
    19  H    0.005554   0.181015
    20  H    0.085533   0.079654
    21  H   -0.258423   0.396610
    22  H   -0.016297   0.157166
    23  H    0.106022   0.022852
    24  H    0.116377   0.003273
    25  H    0.139428   0.007217
 Sum of Mulliken charges =  -1.00000   1.00000

 Dipole moment (field-independent basis, Debye):
    X=              2.7708    Y=              1.8091    Z=              0.7818  Tot=              3.4002
 Quadrupole moment (field-independent basis, Debye-Ang):
   XX=           -162.9868   YY=            -98.3540   ZZ=            -97.4531
   XY=             -7.6928   XZ=             -0.1358   YZ=              0.7082

 Summary of Natural Population Analysis:

                                       Natural Population
                Natural  -----------------------------------------------
    Atom  No    Charge         Core      Valence    Rydberg      Total
 -----------------------------------------------------------------------
      C    1   -0.30267      0.99964     2.29744    0.00559     3.30267
      C    2    0.09278      0.99953     1.89536    0.01233     2.90722
      C    3   -0.15726      0.99951     2.14763    0.01012     3.15726
      C    4   -0.11615      0.99952     2.10876    0.00787     3.11615
      C    5    0.05797      0.99950     1.92998    0.01255     2.94203
      N    6   -0.19390      0.99959     2.68467    0.00965     3.69390
      C    7   -0.17672      0.99964     2.16935    0.00773     3.17672
      C    8    0.01772      0.99949     1.97276    0.01002     2.98228
      C    9   -0.12347      0.99953     2.11413    0.00981     3.12347
      C   10    0.02162      0.99960     1.96277    0.01601     2.97838
      N   11   -0.20757      0.99972     2.69595    0.01190     3.70757
      C   12    0.02244      0.99960     1.96392    0.01404     2.97756
      C   13   -0.11422      0.99953     2.10717    0.00752     3.11422
      H   14    0.10702      0.00000     0.38932    0.00366     0.39298
      H   15    0.10821      0.00000     0.39057    0.00122     0.39179
      H   16    0.10106      0.00000     0.39770    0.00124     0.39894
      H   17    0.10003      0.00000     0.39927    0.00070     0.39997
      H   18    0.10003      0.00000     0.39914    0.00083     0.39997
      H   19    0.09390      0.00000     0.40499    0.00110     0.40610
      H   20    0.10728      0.00000     0.39183    0.00089     0.39272
      H   21    0.10078      0.00000     0.39814    0.00108     0.39922
      H   22    0.09866      0.00000     0.39995    0.00139     0.40134
      H   23    0.08172      0.00000     0.41646    0.00183     0.41828
      H   24    0.08125      0.00000     0.41756    0.00119     0.41875
      H   25    0.09948      0.00000     0.39943    0.00109     0.40052
 =======================================================================
   * Total *    0.00000     12.99439    32.85425    0.15136    46.00000

 Normal termination of Gaussian 16 at Thu Dec 10 00:10:11 2020.
