 Gaussian 16, Revision A.03,

 -----------------------------------------------------------
 # opt freq B3LYP/6-31G(d) empiricaldispersion=gd3bj scf=xqc
 -----------------------------------------------------------

 ------------------------------
 CID_65963557_JID_8543_neutraal
 ------------------------------
 Symbolic Z-matrix:
 Charge =  0 Multiplicity = 1

 SCF Done:  E(RB3LYP) =  -843.875017557     A.U. after   15 cycles
 SCF Done:  E(RB3LYP) =  -843.882517310     A.U. after   12 cycles
 SCF Done:  E(RB3LYP) =  -843.883420267     A.U. after   13 cycles
 SCF Done:  E(RB3LYP) =  -843.884055485     A.U. after   13 cycles
 SCF Done:  E(RB3LYP) =  -843.884317642     A.U. after   11 cycles
 SCF Done:  E(RB3LYP) =  -843.885658149     A.U. after   12 cycles
 SCF Done:  E(RB3LYP) =  -843.886146123     A.U. after   12 cycles
 SCF Done:  E(RB3LYP) =  -843.886422769     A.U. after   13 cycles
 SCF Done:  E(RB3LYP) =  -843.886674797     A.U. after   11 cycles
 SCF Done:  E(RB3LYP) =  -843.886757488     A.U. after   10 cycles
 SCF Done:  E(RB3LYP) =  -843.887479362     A.U. after    8 cycles
 SCF Done:  E(RB3LYP) =  -843.887479668     A.U. after    8 cycles
 SCF Done:  E(RB3LYP) =  -843.887479997     A.U. after    9 cycles
 SCF Done:  E(RB3LYP) =  -843.887480090     A.U. after    8 cycles
 SCF Done:  E(RB3LYP) =  -843.887480103     A.U. after    7 cycles
 Optimization completed.
    -- Stationary point found.
 Normal termination of Gaussian 16 at Fri Dec 11 21:21:49 2020.

 --------------------------------------------------------------------
 #N Geom=AllCheck Guess=TCheck SCRF=Check GenChk RB3LYP/6-31G(d) Freq
 --------------------------------------------------------------------

 Structure from the checkpoint file:  "JID_8543.chk"
 ------------------------------
 CID_65963557_JID_8543_neutraal
 ------------------------------
 Charge =  0 Multiplicity = 1

 SCF Done:  E(RB3LYP) =  -843.887480103     A.U. after    1 cycles

  Exact polarizability: 184.046   0.269 153.021   3.063   1.257 122.533
 Approx polarizability: 222.832  -0.076 228.207   7.199  -0.635 194.270

                      1                      2                      3
                      A                      A                      A
 Frequencies --     19.5680                25.8976                31.4057
 Red. masses --      8.6525                 3.6502                 4.6260
 Frc consts  --      0.0020                 0.0014                 0.0027
 IR Inten    --      0.9546                 0.2332                 0.2896

                      4                      5                      6
                      A                      A                      A
 Frequencies --     45.7430                82.5316               114.5002
 Red. masses --      4.3854                 4.3744                 4.1049
 Frc consts  --      0.0054                 0.0176                 0.0317
 IR Inten    --      1.0109                 1.7681                 1.8302

                      7                      8                      9
                      A                      A                      A
 Frequencies --    126.8413               185.4543               203.1609
 Red. masses --      3.5880                 3.7243                 3.6381
 Frc consts  --      0.0340                 0.0755                 0.0885
 IR Inten    --      1.8728                 1.5591                 3.6074

                     10                     11                     12
                      A                      A                      A
 Frequencies --    218.0856               234.8176               246.2098
 Red. masses --      2.5541                 2.1873                 3.3728
 Frc consts  --      0.0716                 0.0711                 0.1205
 IR Inten    --      0.6405                 3.8804                 4.2248

                     13                     14                     15
                      A                      A                      A
 Frequencies --    254.4169               278.4426               287.9660
 Red. masses --      1.3760                 1.6968                 4.1383
 Frc consts  --      0.0525                 0.0775                 0.2022
 IR Inten    --      0.2261                 0.3677                 8.2829

                     16                     17                     18
                      A                      A                      A
 Frequencies --    305.1691               312.2751               355.9060
 Red. masses --      1.1484                 2.3921                 2.6143
 Frc consts  --      0.0630                 0.1374                 0.1951
 IR Inten    --      0.3791                12.7793                 3.7990

                     19                     20                     21
                      A                      A                      A
 Frequencies --    386.3260               399.9084               417.6397
 Red. masses --      3.1194                 2.2793                 2.5276
 Frc consts  --      0.2743                 0.2148                 0.2598
 IR Inten    --      2.0089                 3.9952                 4.4718

                     22                     23                     24
                      A                      A                      A
 Frequencies --    423.7262               441.8710               499.8709
 Red. masses --      2.2569                 3.0291                 2.5900
 Frc consts  --      0.2387                 0.3485                 0.3813
 IR Inten    --      1.3785                 7.9236                 5.1418

                     25                     26                     27
                      A                      A                      A
 Frequencies --    512.1392               555.4575               580.8351
 Red. masses --      3.9714                 2.5211                 2.9950
 Frc consts  --      0.6137                 0.4583                 0.5953
 IR Inten    --     22.8346                 1.1149                22.5551

                     28                     29                     30
                      A                      A                      A
 Frequencies --    623.2873               635.8725               677.7535
 Red. masses --      2.7943                 1.6310                 3.2812
 Frc consts  --      0.6396                 0.3886                 0.8880
 IR Inten    --     29.9110                52.5593                 7.5918

                     31                     32                     33
                      A                      A                      A
 Frequencies --    717.9172               742.1856               769.4065
 Red. masses --      2.7666                 3.1344                 7.6557
 Frc consts  --      0.8401                 1.0173                 2.6702
 IR Inten    --      5.0080                36.5033                12.6368

                     34                     35                     36
                      A                      A                      A
 Frequencies --    794.6723               818.9407               851.7782
 Red. masses --      2.6776                 2.4415                 2.3791
 Frc consts  --      0.9963                 0.9647                 1.0170
 IR Inten    --     13.1698                 3.7417                 2.3650

                     37                     38                     39
                      A                      A                      A
 Frequencies --    879.1553               899.6514               901.2818
 Red. masses --      1.9237                 2.1063                 2.3895
 Frc consts  --      0.8760                 1.0044                 1.1436
 IR Inten    --      2.1634                 2.7067                 8.2139

                     40                     41                     42
                      A                      A                      A
 Frequencies --    907.8422               949.4084               962.2770
 Red. masses --      1.5635                 1.9201                 1.6586
 Frc consts  --      0.7592                 1.0197                 0.9049
 IR Inten    --      0.2342                 2.7198                 0.3571

                     43                     44                     45
                      A                      A                      A
 Frequencies --    968.5162               989.2845              1019.0719
 Red. masses --      2.0985                 1.9732                 1.4943
 Frc consts  --      1.1598                 1.1378                 0.9143
 IR Inten    --      3.6527                17.6808                 2.6771

                     46                     47                     48
                      A                      A                      A
 Frequencies --   1037.7334              1043.1307              1056.5986
 Red. masses --      1.8550                 2.2228                 2.5966
 Frc consts  --      1.1769                 1.4251                 1.7080
 IR Inten    --      2.8722                 5.5468                11.7529

                     49                     50                     51
                      A                      A                      A
 Frequencies --   1085.4632              1090.6604              1095.1505
 Red. masses --      2.0561                 2.2179                 2.0578
 Frc consts  --      1.4273                 1.5544                 1.4541
 IR Inten    --      5.3986                 3.6148                 1.0018

                     52                     53                     54
                      A                      A                      A
 Frequencies --   1111.6116              1130.7089              1161.6863
 Red. masses --      1.8815                 2.2946                 1.4641
 Frc consts  --      1.3698                 1.7284                 1.1641
 IR Inten    --      1.1301                29.6322                20.4419

                     55                     56                     57
                      A                      A                      A
 Frequencies --   1171.2057              1177.7617              1186.5180
 Red. masses --      1.5554                 2.3526                 1.6832
 Frc consts  --      1.2570                 1.9227                 1.3962
 IR Inten    --     86.2708               178.6074                 5.7671

                     58                     59                     60
                      A                      A                      A
 Frequencies --   1187.8868              1200.8024              1244.9476
 Red. masses --      1.6594                 1.5810                 1.9477
 Frc consts  --      1.3796                 1.3431                 1.7786
 IR Inten    --     27.0101                21.5407                 9.3031

                     61                     62                     63
                      A                      A                      A
 Frequencies --   1252.1518              1258.4554              1271.1334
 Red. masses --      1.8905                 2.3925                 1.6417
 Frc consts  --      1.7464                 2.2325                 1.5629
 IR Inten    --     34.8807                12.3291                30.8221

                     64                     65                     66
                      A                      A                      A
 Frequencies --   1301.3282              1309.8823              1315.0626
 Red. masses --      1.3044                 1.4044                 1.4015
 Frc consts  --      1.3015                 1.4198                 1.4280
 IR Inten    --      2.2002                12.5111                 2.7968

                     67                     68                     69
                      A                      A                      A
 Frequencies --   1320.0551              1345.4775              1350.2950
 Red. masses --      1.7425                 1.5765                 1.7397
 Frc consts  --      1.7890                 1.6815                 1.8689
 IR Inten    --    101.6939                24.6314               234.0967

                     70                     71                     72
                      A                      A                      A
 Frequencies --   1356.7005              1391.7635              1407.2519
 Red. masses --      1.5052                 1.3766                 1.3149
 Frc consts  --      1.6324                 1.5711                 1.5342
 IR Inten    --      0.1580                10.7116                10.4374

                     73                     74                     75
                      A                      A                      A
 Frequencies --   1410.7026              1417.1925              1420.8428
 Red. masses --      1.8007                 1.4304                 1.9557
 Frc consts  --      2.1114                 1.6926                 2.3262
 IR Inten    --    170.9044                 6.0301                45.1028

                     76                     77                     78
                      A                      A                      A
 Frequencies --   1427.0332              1438.8251              1449.2498
 Red. masses --      1.2949                 2.0084                 1.4701
 Frc consts  --      1.5536                 2.4497                 1.8192
 IR Inten    --      3.9115               173.2739                75.0641

                     79                     80                     81
                      A                      A                      A
 Frequencies --   1454.6450              1504.6986              1512.3165
 Red. masses --      1.3679                 1.0756                 1.0810
 Frc consts  --      1.7053                 1.4348                 1.4567
 IR Inten    --     43.0390                 1.1122                 4.1299

                     82                     83                     84
                      A                      A                      A
 Frequencies --   1515.7331              1522.9112              1524.5041
 Red. masses --      1.0821                 1.0594                 1.0676
 Frc consts  --      1.4648                 1.4476                 1.4619
 IR Inten    --      6.9835                 7.3240                 3.0638

                     85                     86                     87
                      A                      A                      A
 Frequencies --   1534.0822              1535.3058              1537.2652
 Red. masses --      1.0755                 1.0630                 1.0734
 Frc consts  --      1.4913                 1.4763                 1.4945
 IR Inten    --      5.0142                 6.7057                13.4743

                     88                     89                     90
                      A                      A                      A
 Frequencies --   1543.8969              1550.9937              1558.7418
 Red. masses --      1.0860                 1.0845                 1.0953
 Frc consts  --      1.5251                 1.5371                 1.5679
 IR Inten    --      9.8670                10.7629                 3.7681

                     91                     92                     93
                      A                      A                      A
 Frequencies --   1745.9319              1851.4980              3015.7725
 Red. masses --     10.4255                 9.8935                 1.0627
 Frc consts  --     18.7241                19.9823                 5.6946
 IR Inten    --    294.9497               259.3634                20.5045

                     94                     95                     96
                      A                      A                      A
 Frequencies --   3017.5501              3034.4620              3037.2358
 Red. masses --      1.0734                 1.0668                 1.0419
 Frc consts  --      5.7584                 5.7875                 5.6629
 IR Inten    --     32.5875                15.8786                15.0304

                     97                     98                     99
                      A                      A                      A
 Frequencies --   3040.9574              3042.0113              3047.4933
 Red. masses --      1.0617                 1.0603                 1.0501
 Frc consts  --      5.7847                 5.7809                 5.7462
 IR Inten    --     28.6155                72.9895                25.1030

                    100                    101                    102
                      A                      A                      A
 Frequencies --   3056.2926              3056.7990              3075.4161
 Red. masses --      1.0627                 1.0868                 1.0986
 Frc consts  --      5.8487                 5.9832                 6.1222
 IR Inten    --     24.7926                56.5318                 8.5453

                    103                    104                    105
                      A                      A                      A
 Frequencies --   3086.7696              3097.7642              3102.0133
 Red. masses --      1.0996                 1.0602                 1.1018
 Frc consts  --      6.1730                 5.9944                 6.2468
 IR Inten    --     58.9659                20.8214                 3.0549

                    106                    107                    108
                      A                      A                      A
 Frequencies --   3102.5505              3105.4381              3110.4798
 Red. masses --      1.1045                 1.1019                 1.1017
 Frc consts  --      6.2642                 6.2612                 6.2804
 IR Inten    --     19.5529                40.7209                59.7889

                    109                    110                    111
                      A                      A                      A
 Frequencies --   3117.2042              3130.6798              3138.2815
 Red. masses --      1.0894                 1.0993                 1.0870
 Frc consts  --      6.2366                 6.3480                 6.3077
 IR Inten    --     13.7218                34.5929                30.3182

                    112                    113                    114
                      A                      A                      A
 Frequencies --   3152.1108              3161.7341              3684.5873
 Red. masses --      1.1112                 1.0906                 1.0640
 Frc consts  --      6.5049                 6.4235                 8.5107
 IR Inten    --      9.2207                 5.0354                52.2832

 - Thermochemistry -
 -------------------
 Temperature   298.150 Kelvin.  Pressure   1.00000 Atm.
 Atom     1 has atomic number  6 and mass  12.00000

 Molecular mass:   254.16304 amu.
 Principal axes and moments of inertia in atomic units:
                           1         2         3
     Eigenvalues --  2352.899008382.964639808.07922
           X            0.99992  -0.01254  -0.00194
           Y            0.01255   0.99991   0.00555
           Z            0.00187  -0.00557   0.99998
 This molecule is an asymmetric top.
 Rotational symmetry number  1.
 Warning -- assumption of classical behavior for rotation
           may cause significant error
 Rotational temperatures (Kelvin)      0.03681     0.01033     0.00883
 Rotational constants (GHZ):           0.76703     0.21529     0.18401
 Zero-point vibrational energy     923432.5 (Joules/Mol)
                                  220.70567 (Kcal/Mol)
 Warning -- explicit consideration of  27 degrees of freedom as
           vibrations may cause significant error
 Vibrational temperatures:     28.15    37.26    45.19    65.81   118.74
          (Kelvin)            164.74   182.50   266.83   292.30   313.78
                              337.85   354.24   366.05   400.62   414.32
                              439.07   449.29   512.07   555.84   575.38
                              600.89   609.65   635.75   719.20   736.85
                              799.18   835.69   896.77   914.88   975.14
                             1032.92  1067.84  1107.00  1143.36  1178.27
                             1225.52  1264.91  1294.40  1296.74  1306.18
                             1365.99  1384.50  1393.48  1423.36  1466.22
                             1493.07  1500.83  1520.21  1561.74  1569.22
                             1575.68  1599.36  1626.84  1671.41  1685.10
                             1694.54  1707.13  1709.10  1727.69  1791.20
                             1801.57  1810.64  1828.88  1872.32  1884.63
                             1892.08  1899.26  1935.84  1942.77  1951.99
                             2002.44  2024.72  2029.69  2039.02  2044.28
                             2053.18  2070.15  2085.15  2092.91  2164.93
                             2175.89  2180.80  2191.13  2193.42  2207.20
                             2208.96  2211.78  2221.32  2231.53  2242.68
                             2512.01  2663.89  4339.02  4341.58  4365.91
                             4369.90  4375.26  4376.78  4384.66  4397.32
                             4398.05  4424.84  4441.17  4456.99  4463.11
                             4463.88  4468.03  4475.29  4484.96  4504.35
                             4515.29  4535.18  4549.03  5301.30

 Zero-point correction=                           0.351717 (Hartree/Particle)
 Thermal correction to Energy=                    0.369602
 Thermal correction to Enthalpy=                  0.370546
 Thermal correction to Gibbs Free Energy=         0.304001
 Sum of electronic and zero-point Energies=           -843.535763
 Sum of electronic and thermal Energies=              -843.517878
 Sum of electronic and thermal Enthalpies=            -843.516934
 Sum of electronic and thermal Free Energies=         -843.583479

                     E (Thermal)             CV                S
                      KCal/Mol        Cal/Mol-Kelvin    Cal/Mol-Kelvin
 Total                  231.929             68.629            140.057
 Electronic               0.000              0.000              0.000
 Translational            0.889              2.981             42.499
 Rotational               0.889              2.981             33.625
 Vibrational            230.151             62.667             63.933
 Vibration     1          0.593              1.986              6.678
 Vibration     2          0.593              1.985              6.121
 Vibration     3          0.594              1.983              5.739
 Vibration     4          0.595              1.979              4.993
 Vibration     5          0.600              1.961              3.830
 Vibration     6          0.607              1.937              3.191
 Vibration     7          0.611              1.926              2.993
 Vibration     8          0.632              1.860              2.273
 Vibration     9          0.639              1.835              2.104
 Vibration    10          0.646              1.814              1.975
 Vibration    11          0.655              1.788              1.842
 Vibration    12          0.661              1.769              1.758
 Vibration    13          0.665              1.755              1.700
 Vibration    14          0.679              1.713              1.543
 Vibration    15          0.685              1.696              1.486
 Vibration    16          0.696              1.664              1.388
 Vibration    17          0.701              1.650              1.350
 Vibration    18          0.731              1.563              1.140
 Vibration    19          0.755              1.499              1.014
 Vibration    20          0.766              1.470              0.963
 Vibration    21          0.781              1.432              0.900
 Vibration    22          0.786              1.419              0.879
 Vibration    23          0.802              1.379              0.821
 Vibration    24          0.855              1.250              0.658
 Vibration    25          0.867              1.223              0.628
 Vibration    26          0.911              1.128              0.533
 Vibration    27          0.938              1.073              0.484

 Optimization completed.
    -- Stationary point found.
 Normal termination of Gaussian 16 at Fri Dec 11 21:39:37 2020.

 ----------------------------------------------------------------------
 # B3LYP/6-311++G(d,p) empiricaldispersion=gd3bj scf=xqc pop=npa geom=c
 heck
 ----------------------------------------------------------------------

 --------------------------------------
 CID_65963557_JID_8543_Energie_neutraal
 --------------------------------------
 Structure from the checkpoint file:  "JID_8543.chk"
 Charge =  0 Multiplicity = 1

 SCF Done:  E(RB3LYP) =  -844.133270251     A.U. after   14 cycles
 Normal termination of Gaussian 16 at Fri Dec 11 21:46:39 2020.

 ----------------------------------------------------------------------
 # B3LYP/6-311++G(d,p) empiricaldispersion=gd3bj scf=xqc pop=npa geom=c
 heck
 ----------------------------------------------------------------------

 ------------------------------------
 CID_65963557_JID_8543_Energie_kation
 ------------------------------------
 Structure from the checkpoint file:  "JID_8543.chk"
 Charge =  1 Multiplicity = 2

 SCF Done:  E(UB3LYP) =  -843.830383887     A.U. after   23 cycles
 Normal termination of Gaussian 16 at Fri Dec 11 22:02:20 2020.
 Gaussian 16:  ES64L-G16RevA.03 25-Dec-2016

 ----------------------------------------------------------------------
 # B3LYP/6-311++G(d,p) empiricaldispersion=gd3bj scf=xqc pop=npa geom=c
 heck
 ----------------------------------------------------------------------

 -----------------------------------
 CID_65963557_JID_8543_Energie_anion
 -----------------------------------
 Structure from the checkpoint file:  "JID_8543.chk"
 Charge = -1 Multiplicity = 2

                         Standard orientation:
 ---------------------------------------------------------------------
 Center     Atomic      Atomic             Coordinates (Angstroms)
 Number     Number       Type             X           Y           Z
 ---------------------------------------------------------------------
      1          6           0        4.217653   -2.132501   -0.317567
      2          6           0        3.126217   -1.097810    0.014878
      3          6           0        3.837789    0.176099    0.526057
      4          6           0        2.960142    1.376103    0.897000
      5          6           0        2.014162    1.860782   -0.206223
      6          7           0        0.837530    1.001287   -0.359276
      7          6           0        0.939137   -0.219028   -1.168587
      8          6           0        2.349580   -0.800783   -1.293844
      9          6           0       -0.391860    1.602467   -0.149598
     10          8           0       -0.529104    2.793993    0.123103
     11          7           0       -1.510163    0.778716   -0.279225
     12          6           0       -2.821817    1.304699    0.157931
     13          6           0       -3.169776   -0.077712    0.747778
     14          6           0       -1.718678   -0.520879    0.401136
     15          6           0       -4.240540   -0.846673    0.018131
     16          8           0       -4.927567   -0.437879   -0.889925
     17          8           0       -4.342265   -2.110670    0.503626
     18          6           0        2.202404   -1.685442    1.094492
     19          1           0        3.774941   -3.081161   -0.643776
     20          1           0        4.845413   -2.337001    0.557574
     21          1           0        4.870995   -1.772421   -1.121704
     22          1           0        4.448528   -0.094507    1.398239
     23          1           0        4.546263    0.494353   -0.252909
     24          1           0        3.623582    2.207971    1.168769
     25          1           0        2.358103    1.159423    1.787724
     26          1           0        2.545370    1.945806   -1.163847
     27          1           0        1.630781    2.850652    0.038459
     28          1           0        0.546897   -0.032693   -2.179228
     29          1           0        0.308069   -0.992466   -0.730190
     30          1           0        2.971817   -0.165668   -1.935857
     31          1           0        2.220621   -1.741391   -1.845985
     32          1           0       -2.723211    2.106959    0.892971
     33          1           0       -3.462527    1.627735   -0.665532
     34          1           0       -3.387529   -0.094580    1.818392
     35          1           0       -1.644861   -1.395846   -0.252306
     36          1           0       -1.076225   -0.672452    1.275906
     37          1           0       -5.039267   -2.547626   -0.021230
     38          1           0        1.708689   -2.597121    0.735852
     39          1           0        2.780101   -1.951523    1.987420
     40          1           0        1.426895   -0.975939    1.396835
 ---------------------------------------------------------------------

 SCF Done:  E(UB3LYP) =  -844.126219922     A.U. after   33 cycles
 SCF Done:  E(UB3LYP) =  -844.126219921     a.u. after    1 cycles

 The electronic state is 2-A.
 Alpha  occ. eigenvalues --  -19.07929 -19.02924 -18.99144 -14.24486 -14.24035
 Alpha  occ. eigenvalues --  -10.21803 -10.19785 -10.12902 -10.11636 -10.11346
 Alpha  occ. eigenvalues --  -10.10994 -10.10816 -10.09714 -10.08367 -10.08049
 Alpha  occ. eigenvalues --  -10.07806 -10.07031 -10.06627  -1.02111  -0.95819
 Alpha  occ. eigenvalues --   -0.93365  -0.86356  -0.84368  -0.74477  -0.70201
 Alpha  occ. eigenvalues --   -0.68785  -0.64578  -0.61190  -0.60190  -0.59927
 Alpha  occ. eigenvalues --   -0.57321  -0.55146  -0.51622  -0.48080  -0.45714
 Alpha  occ. eigenvalues --   -0.45412  -0.44132  -0.42922  -0.40169  -0.40065
 Alpha  occ. eigenvalues --   -0.39008  -0.37845  -0.37129  -0.36021  -0.35289
 Alpha  occ. eigenvalues --   -0.34853  -0.33865  -0.33690  -0.32264  -0.31927
 Alpha  occ. eigenvalues --   -0.31633  -0.30743  -0.29935  -0.29559  -0.28849
 Alpha  occ. eigenvalues --   -0.28196  -0.28116  -0.27040  -0.25794  -0.25612
 Alpha  occ. eigenvalues --   -0.24967  -0.23896  -0.23259  -0.22858  -0.22662
 Alpha  occ. eigenvalues --   -0.19757  -0.18055  -0.15777  -0.14776   0.03697
 Alpha virt. eigenvalues --    0.05351   0.06460   0.06935   0.07183   0.07795
 Alpha virt. eigenvalues --    0.08274   0.09076   0.09091   0.09736   0.10000
 Alpha virt. eigenvalues --    0.10303   0.10907   0.11580   0.12166   0.12194

  Beta  occ. eigenvalues --  -19.07873 -19.02894 -18.99142 -14.24482 -14.24034
  Beta  occ. eigenvalues --  -10.21778 -10.19785 -10.12869 -10.11627 -10.11341
  Beta  occ. eigenvalues --  -10.10975 -10.10811 -10.09714 -10.08349 -10.08041
  Beta  occ. eigenvalues --  -10.07791 -10.07006 -10.06595  -1.02026  -0.95814
  Beta  occ. eigenvalues --   -0.93287  -0.86346  -0.84358  -0.74459  -0.70173
  Beta  occ. eigenvalues --   -0.68755  -0.64549  -0.61149  -0.60140  -0.59874
  Beta  occ. eigenvalues --   -0.57257  -0.55104  -0.51574  -0.48007  -0.45675
  Beta  occ. eigenvalues --   -0.45373  -0.44091  -0.42878  -0.40122  -0.40045
  Beta  occ. eigenvalues --   -0.38977  -0.37787  -0.37100  -0.35970  -0.35256
  Beta  occ. eigenvalues --   -0.34818  -0.33838  -0.33662  -0.32241  -0.31901
  Beta  occ. eigenvalues --   -0.31599  -0.30708  -0.29911  -0.29524  -0.28820
  Beta  occ. eigenvalues --   -0.28165  -0.28091  -0.27016  -0.25766  -0.25591
  Beta  occ. eigenvalues --   -0.24936  -0.23793  -0.23231  -0.22832  -0.22631
  Beta  occ. eigenvalues --   -0.19702  -0.18043  -0.15769  -0.14758
  Beta virt. eigenvalues --    0.05678   0.06456   0.07054   0.07301   0.07661
  Beta virt. eigenvalues --    0.08221   0.08522   0.09315   0.09407   0.09859
  Beta virt. eigenvalues --    0.10258   0.10550   0.11065   0.11654   0.12215

 Mulliken charges and spin densities:
               1          2
     1  C    0.749704  -1.200092
     2  C   -1.514422   2.425679
     3  C    0.133842  -0.600240
     4  C   -0.288518   0.021667
     5  C   -0.326929  -0.123012
     6  N    0.075856  -0.059951
     7  C   -1.354846   0.983157
     8  C    1.384117  -1.998889
     9  C    0.165718  -0.178261
    10  O   -0.351761   0.001974
    11  N    0.042242   0.010056
    12  C   -0.284500  -0.215260
    13  C    0.401626  -0.079718
    14  C    0.094850  -0.425393
    15  C    0.542714  -0.852279
    16  O   -0.270545   0.006933
    17  O   -0.166300   0.039119
    18  C    0.524682  -1.219908
    19  H   -0.049701   0.194513
    20  H   -0.044142   0.182193
    21  H   -0.170355   0.309364
    22  H    0.009487   0.144239
    23  H   -0.055546   0.201170
    24  H   -0.014651   0.176222
    25  H    0.040210   0.121629
    26  H    0.015955   0.113062
    27  H    0.202537   0.022309
    28  H   -0.011820   0.243645
    29  H    0.431172  -0.310697
    30  H    0.168022   0.003833
    31  H   -0.254448   0.442021
    32  H    0.197942  -0.023908
    33  H    0.137668   0.078016
    34  H   -0.409216   0.692070
    35  H   -0.341995   0.574622
    36  H   -0.064545   0.229523
    37  H   -0.343526   0.634537
    38  H   -0.203624   0.369131
    39  H   -0.159775   0.316307
    40  H    0.362820  -0.249383
 Sum of Mulliken charges =  -1.00000   1.00000

 Dipole moment (field-independent basis, Debye):
    X=              3.3283    Y=              3.9853    Z=             -0.2742  Tot=              5.1996
 Quadrupole moment (field-independent basis, Debye-Ang):
   XX=           -206.8541   YY=           -166.3492   ZZ=           -143.8302
   XY=             -5.0241   XZ=             -1.4989   YZ=              1.1334

 Summary of Natural Population Analysis:

                                       Natural Population
                Natural  -----------------------------------------------
    Atom  No    Charge         Core      Valence    Rydberg      Total
 -----------------------------------------------------------------------
      C    1   -0.27935      0.99963     2.27337    0.00635     3.27935
      C    2   -0.04768      0.99957     2.03528    0.01283     3.04768
      C    3   -0.18685      0.99958     2.17698    0.01029     3.18685
      C    4   -0.19282      0.99961     2.18559    0.00761     3.19282
      C    5   -0.08954      0.99960     2.08060    0.00934     3.08954
      N    6   -0.26862      0.99964     2.75984    0.00915     3.76862
      C    7   -0.08301      0.99959     2.07265    0.01077     3.08301
      C    8   -0.19339      0.99958     2.18359    0.01022     3.19339
      C    9    0.41824      0.99964     1.55987    0.02225     2.58176
      O   10   -0.34044      0.99988     3.33590    0.00466     4.34044
      N   11   -0.27647      0.99966     2.76761    0.00919     3.77647
      C   12   -0.07233      0.99964     2.06162    0.01107     3.07233
      C   13   -0.16560      0.99954     2.15485    0.01121     3.16560
      C   14   -0.06963      0.99963     2.05972    0.01028     3.06963
      C   15    0.41046      0.99969     1.56430    0.02555     2.58954
      O   16   -0.30310      0.99987     3.29708    0.00615     4.30310
      O   17   -0.34335      0.99988     3.33684    0.00663     4.34335
      C   18   -0.29096      0.99962     2.28341    0.00793     3.29096
      H   19    0.10051      0.00000     0.39845    0.00105     0.39949
      H   20    0.09927      0.00000     0.39971    0.00102     0.40073
      H   21    0.09899      0.00000     0.39992    0.00109     0.40101
      H   22    0.09986      0.00000     0.39914    0.00101     0.40014
      H   23    0.09497      0.00000     0.40383    0.00120     0.40503
      H   24    0.09779      0.00000     0.40127    0.00094     0.40221
      H   25    0.09947      0.00000     0.39909    0.00143     0.40053
      H   26    0.08858      0.00000     0.41037    0.00105     0.41142
      H   27    0.11894      0.00000     0.37986    0.00120     0.38106
      H   28    0.09511      0.00000     0.40377    0.00111     0.40489
      H   29    0.09947      0.00000     0.39817    0.00236     0.40053
      H   30    0.09846      0.00000     0.40022    0.00132     0.40154
      H   31    0.10698      0.00000     0.39195    0.00107     0.39302
      H   32    0.10411      0.00000     0.39487    0.00103     0.39589
      H   33    0.10422      0.00000     0.39468    0.00110     0.39578
      H   34    0.11882      0.00000     0.37964    0.00154     0.38118
      H   35    0.09992      0.00000     0.39809    0.00198     0.40008
      H   36    0.09952      0.00000     0.39864    0.00184     0.40048
      H   37    0.24377      0.00000     0.24146    0.01477     0.25623
      H   38    0.10246      0.00000     0.39632    0.00123     0.39754
      H   39    0.10136      0.00000     0.39767    0.00097     0.39864
      H   40    0.10186      0.00000     0.39643    0.00170     0.39814
 =======================================================================
   * Total *    0.00000     17.99384    50.77266    0.23350    69.00000

 Normal termination of Gaussian 16 at Fri Dec 11 22:24:45 2020.
