 Gaussian 16, Revision A.03,

 -----------------------------------------------------------
 # opt freq B3LYP/6-31G(d) empiricaldispersion=gd3bj scf=xqc
 -----------------------------------------------------------

 -------------------------------
 CID_113822004_JID_7807_neutraal
 -------------------------------
 Symbolic Z-matrix:
 Charge =  0 Multiplicity = 1

 SCF Done:  E(RB3LYP) =  -855.182566662     A.U. after   15 cycles
 SCF Done:  E(RB3LYP) =  -855.189248392     A.U. after   14 cycles
 SCF Done:  E(RB3LYP) =  -855.182648227     A.U. after   16 cycles
 SCF Done:  E(RB3LYP) =  -855.193578445     A.U. after   14 cycles
 SCF Done:  E(RB3LYP) =  -855.195389873     A.U. after   14 cycles
 SCF Done:  E(RB3LYP) =  -855.196430571     A.U. after   14 cycles
 SCF Done:  E(RB3LYP) =  -855.196586894     A.U. after   14 cycles
 SCF Done:  E(RB3LYP) =  -855.196837548     A.U. after   14 cycles
 SCF Done:  E(RB3LYP) =  -855.196948350     A.U. after   12 cycles
 SCF Done:  E(RB3LYP) =  -855.196980087     A.U. after   12 cycles
 SCF Done:  E(RB3LYP) =  -855.197009624     A.U. after   11 cycles
 SCF Done:  E(RB3LYP) =  -855.197009828     A.U. after    9 cycles
 SCF Done:  E(RB3LYP) =  -855.197009892     A.U. after    9 cycles
 SCF Done:  E(RB3LYP) =  -855.197009905     A.U. after    7 cycles
 SCF Done:  E(RB3LYP) =  -855.197009914     A.U. after    8 cycles
 SCF Done:  E(RB3LYP) =  -855.197009918     A.U. after    7 cycles
 Optimization completed.
    -- Stationary point found.
 Normal termination of Gaussian 16 at Fri Dec 11 13:06:40 2020.

 --------------------------------------------------------------------
 #N Geom=AllCheck Guess=TCheck SCRF=Check GenChk RB3LYP/6-31G(d) Freq
 --------------------------------------------------------------------

 Structure from the checkpoint file:  "JID_7807.chk"
 -------------------------------
 CID_113822004_JID_7807_neutraal
 -------------------------------
 Charge =  0 Multiplicity = 1

 SCF Done:  E(RB3LYP) =  -855.197009918     A.U. after    1 cycles

  Exact polarizability: 174.896   6.375 170.113  17.234  -0.771  91.578
 Approx polarizability: 253.479   9.899 293.434  38.347  -3.106 129.981

                      1                      2                      3
                      A                      A                      A
 Frequencies --     14.3616                23.4431                35.8569
 Red. masses --     12.7165                 3.9966                 3.9315
 Frc consts  --      0.0015                 0.0013                 0.0030
 IR Inten    --      0.0132                 0.4678                 0.1772

                      4                      5                      6
                      A                      A                      A
 Frequencies --     66.0345                68.1883                88.8959
 Red. masses --      2.6022                 3.6087                 4.8104
 Frc consts  --      0.0067                 0.0099                 0.0224
 IR Inten    --      0.1003                 1.1221                 0.3602

                      7                      8                      9
                      A                      A                      A
 Frequencies --    112.1616               132.6778               170.1508
 Red. masses --      3.2519                 4.1239                 2.6588
 Frc consts  --      0.0241                 0.0428                 0.0454
 IR Inten    --      0.4877                 1.9241                 5.1217

                     10                     11                     12
                      A                      A                      A
 Frequencies --    202.8227               220.2373               241.4296
 Red. masses --      3.2121                 1.8205                 1.6513
 Frc consts  --      0.0779                 0.0520                 0.0567
 IR Inten    --      0.5325                 0.6442                 1.9020

                     13                     14                     15
                      A                      A                      A
 Frequencies --    255.7723               282.0042               291.6502
 Red. masses --      1.5338                 5.9300                 5.4257
 Frc consts  --      0.0591                 0.2779                 0.2719
 IR Inten    --      0.4483                11.7240                 0.5661

                     16                     17                     18
                      A                      A                      A
 Frequencies --    332.4287               362.8815               384.6494
 Red. masses --      2.3600                 6.2905                 1.3438
 Frc consts  --      0.1537                 0.4880                 0.1171
 IR Inten    --      4.4641                32.4612               282.7134

                     19                     20                     21
                      A                      A                      A
 Frequencies --    403.6293               410.2777               420.4246
 Red. masses --      2.8426                 3.3586                 3.0912
 Frc consts  --      0.2729                 0.3331                 0.3219
 IR Inten    --      5.3102                 0.1105                 7.1220

                     22                     23                     24
                      A                      A                      A
 Frequencies --    449.1401               487.7704               501.4609
 Red. masses --      2.0854                 1.6165                 2.8012
 Frc consts  --      0.2479                 0.2266                 0.4150
 IR Inten    --      9.8817                51.8235                14.8759

                     25                     26                     27
                      A                      A                      A
 Frequencies --    523.0435               586.0768               639.0247
 Red. masses --      4.4333                 6.7357                 5.5030
 Frc consts  --      0.7146                 1.3631                 1.3240
 IR Inten    --      4.8642                 7.8162                 4.4746

                     28                     29                     30
                      A                      A                      A
 Frequencies --    695.3656               708.0179               733.2746
 Red. masses --      5.3190                 5.3281                 4.9891
 Frc consts  --      1.5153                 1.5737                 1.5805
 IR Inten    --      1.7991                 3.3395                 1.3784

                     31                     32                     33
                      A                      A                      A
 Frequencies --    746.1528               763.0965               812.8102
 Red. masses --      6.0920                 9.6425                 1.6480
 Frc consts  --      1.9983                 3.3083                 0.6415
 IR Inten    --      0.9789                39.6540                17.3324

                     34                     35                     36
                      A                      A                      A
 Frequencies --    813.2309               855.3978               859.8437
 Red. masses --      1.1290                 5.6034                 3.9581
 Frc consts  --      0.4399                 2.4157                 1.7242
 IR Inten    --      2.9025                21.5875                25.9747

                     37                     38                     39
                      A                      A                      A
 Frequencies --    897.8864               952.1298               964.2019
 Red. masses --      2.4571                 1.3912                 2.2345
 Frc consts  --      1.1671                 0.7431                 1.2239
 IR Inten    --      6.3426                 2.3926                 9.0700

                     40                     41                     42
                      A                      A                      A
 Frequencies --    995.6502              1009.8411              1016.1732
 Red. masses --      1.2978                 2.3174                 3.2060
 Frc consts  --      0.7580                 1.3924                 1.9505
 IR Inten    --      2.2635                 1.7810                40.0582

                     43                     44                     45
                      A                      A                      A
 Frequencies --   1095.0782              1099.5299              1109.9438
 Red. masses --      2.9906                 2.3058                 2.2106
 Frc consts  --      2.1130                 1.6424                 1.6046
 IR Inten    --     18.0613                16.7602               103.7616

                     46                     47                     48
                      A                      A                      A
 Frequencies --   1146.5594              1163.1927              1175.0251
 Red. masses --      1.5615                 2.5278                 1.9798
 Frc consts  --      1.2094                 2.0151                 1.6105
 IR Inten    --     88.1471               179.6465                62.8730

                     49                     50                     51
                      A                      A                      A
 Frequencies --   1193.1019              1204.6101              1222.1423
 Red. masses --      2.3819                 2.2812                 1.9442
 Frc consts  --      1.9977                 1.9503                 1.7109
 IR Inten    --     48.7532                 5.2488                28.3323

                     52                     53                     54
                      A                      A                      A
 Frequencies --   1272.8640              1280.6550              1339.4055
 Red. masses --      1.2047                 2.0534                 1.1184
 Frc consts  --      1.1500                 1.9842                 1.1821
 IR Inten    --      8.2514               149.1792                10.4166

                     55                     56                     57
                      A                      A                      A
 Frequencies --   1358.5488              1375.1420              1383.6081
 Red. masses --      5.4483                 1.3796                 9.0894
 Frc consts  --      5.9247                 1.5370                10.2521
 IR Inten    --    374.2921                24.5529               231.7357

                     58                     59                     60
                      A                      A                      A
 Frequencies --   1399.2608              1415.7253              1420.2229
 Red. masses --      1.4549                 1.2566                 2.7513
 Frc consts  --      1.6784                 1.4839                 3.2697
 IR Inten    --     58.9130                 7.5266                22.4795

                     61                     62                     63
                      A                      A                      A
 Frequencies --   1427.3405              1440.8059              1446.1359
 Red. masses --      1.4342                 1.2883                 1.3859
 Frc consts  --      1.7216                 1.5757                 1.7077
 IR Inten    --     12.4902                31.6796                23.6186

                     64                     65                     66
                      A                      A                      A
 Frequencies --   1497.7972              1512.3308              1518.6348
 Red. masses --      3.5292                 2.2428                 1.0580
 Frc consts  --      4.6648                 3.0223                 1.4377
 IR Inten    --    216.7200                34.8013                 2.1578

                     67                     68                     69
                      A                      A                      A
 Frequencies --   1519.5093              1522.3533              1535.4258
 Red. masses --      1.0560                 1.2635                 1.0807
 Frc consts  --      1.4365                 1.7252                 1.5011
 IR Inten    --      2.9048                 6.0545                 2.8226

                     70                     71                     72
                      A                      A                      A
 Frequencies --   1539.6723              1557.1601              1596.3534
 Red. masses --      1.0870                 1.0883                 7.6936
 Frc consts  --      1.5182                 1.5547                11.5515
 IR Inten    --      1.5675                 4.4212                53.4764

                     73                     74                     75
                      A                      A                      A
 Frequencies --   1644.5105              1657.8255              1679.8990
 Red. masses --      3.2761                 7.7094                 1.7110
 Frc consts  --      5.2201                12.4838                 2.8449
 IR Inten    --    169.3534               426.4051               425.6666

                     76                     77                     78
                      A                      A                      A
 Frequencies --   2988.2654              3021.5504              3055.7042
 Red. masses --      1.0712                 1.0616                 1.0357
 Frc consts  --      5.6358                 5.7102                 5.6979
 IR Inten    --     60.6224                29.9477                16.3429

                     79                     80                     81
                      A                      A                      A
 Frequencies --   3072.2891              3078.8904              3094.2810
 Red. masses --      1.0368                 1.0977                 1.0932
 Frc consts  --      5.7662                 6.1308                 6.1670
 IR Inten    --     10.1461                22.8549                20.2121

                     82                     83                     84
                      A                      A                      A
 Frequencies --   3110.5603              3123.7300              3133.8856
 Red. masses --      1.0877                 1.1010                 1.1037
 Frc consts  --      6.2009                 6.3296                 6.3865
 IR Inten    --     21.5905                45.5209                36.2229

                     85                     86                     87
                      A                      A                      A
 Frequencies --   3142.0984              3163.7416              3214.3765
 Red. masses --      1.1029                 1.1017                 1.0913
 Frc consts  --      6.4155                 6.4973                 6.6436
 IR Inten    --     15.9578                20.2001                 7.8511

                     88                     89                     90
                      A                      A                      A
 Frequencies --   3256.9904              3594.3104              3711.0691
 Red. masses --      1.0925                 1.0462                 1.1027
 Frc consts  --      6.8284                 7.9634                 8.9473
 IR Inten    --      2.5647                72.1466                33.5881

 - Thermochemistry -
 -------------------
 Temperature   298.150 Kelvin.  Pressure   1.00000 Atm.
 Atom     1 has atomic number  6 and mass  12.00000

 Molecular mass:   241.10626 amu.
 Principal axes and moments of inertia in atomic units:
                           1         2         3
     Eigenvalues --  2732.089076627.051448060.67296
           X            0.99982  -0.01592  -0.01077
           Y            0.01587   0.99986  -0.00550
           Z            0.01086   0.00533   0.99993
 This molecule is an asymmetric top.
 Rotational symmetry number  1.
 Warning -- assumption of classical behavior for rotation
           may cause significant error
 Rotational temperatures (Kelvin)      0.03170     0.01307     0.01075
 Rotational constants (GHZ):           0.66057     0.27233     0.22389
 Zero-point vibrational energy     682120.7 (Joules/Mol)
                                  163.03077 (Kcal/Mol)
 Warning -- explicit consideration of  26 degrees of freedom as
           vibrations may cause significant error
 Vibrational temperatures:     20.66    33.73    51.59    95.01    98.11
          (Kelvin)            127.90   161.38   190.89   244.81   291.82
                              316.87   347.36   368.00   405.74   419.62
                              478.29   522.11   553.42   580.73   590.30
                              604.90   646.21   701.79   721.49   752.54
                              843.23   919.41  1000.48  1018.68  1055.02
                             1073.55  1097.93  1169.45  1170.06  1230.73
                             1237.12  1291.86  1369.90  1387.27  1432.52
                             1452.94  1462.05  1575.57  1581.98  1596.96
                             1649.64  1673.57  1690.60  1716.61  1733.17
                             1758.39  1831.37  1842.58  1927.11  1954.65
                             1978.52  1990.70  2013.22  2036.91  2043.38
                             2053.62  2073.00  2080.67  2155.00  2175.91
                             2184.98  2186.24  2190.33  2209.14  2215.25
                             2240.41  2296.80  2366.08  2385.24  2417.00
                             4299.45  4347.34  4396.48  4420.34  4429.84
                             4451.98  4475.40  4494.35  4508.96  4520.78
                             4551.92  4624.77  4686.08  5171.41  5339.40

 Zero-point correction=                           0.259806 (Hartree/Particle)
 Thermal correction to Energy=                    0.277140
 Thermal correction to Enthalpy=                  0.278084
 Thermal correction to Gibbs Free Energy=         0.211887
 Sum of electronic and zero-point Energies=           -854.937204
 Sum of electronic and thermal Energies=              -854.919870
 Sum of electronic and thermal Enthalpies=            -854.918926
 Sum of electronic and thermal Free Energies=         -854.985122

                     E (Thermal)             CV                S
                      KCal/Mol        Cal/Mol-Kelvin    Cal/Mol-Kelvin
 Total                  173.908             63.184            139.322
 Electronic               0.000              0.000              0.000
 Translational            0.889              2.981             42.341
 Rotational               0.889              2.981             33.345
 Vibrational            172.130             57.222             63.636
 Vibration     1          0.593              1.986              7.292
 Vibration     2          0.593              1.985              6.319
 Vibration     3          0.594              1.982              5.476
 Vibration     4          0.597              1.970              4.268
 Vibration     5          0.598              1.969              4.205
 Vibration     6          0.602              1.957              3.684
 Vibration     7          0.607              1.939              3.231
 Vibration     8          0.613              1.921              2.907
 Vibration     9          0.625              1.879              2.434
 Vibration    10          0.639              1.836              2.107
 Vibration    11          0.647              1.810              1.957
 Vibration    12          0.658              1.777              1.792
 Vibration    13          0.666              1.753              1.690
 Vibration    14          0.681              1.707              1.521
 Vibration    15          0.687              1.689              1.464
 Vibration    16          0.714              1.611              1.248
 Vibration    17          0.737              1.549              1.110
 Vibration    18          0.754              1.503              1.021
 Vibration    19          0.769              1.462              0.949
 Vibration    20          0.774              1.448              0.926
 Vibration    21          0.783              1.426              0.891
 Vibration    22          0.808              1.363              0.798
 Vibration    23          0.844              1.277              0.689
 Vibration    24          0.857              1.247              0.654
 Vibration    25          0.878              1.199              0.603
 Vibration    26          0.943              1.061              0.474

 Optimization completed.
    -- Stationary point found.
 Normal termination of Gaussian 16 at Fri Dec 11 13:16:33 2020.

 ----------------------------------------------------------------------
 # B3LYP/6-311++G(d,p) empiricaldispersion=gd3bj scf=xqc pop=npa geom=c
 heck
 ----------------------------------------------------------------------

 ---------------------------------------
 CID_113822004_JID_7807_Energie_neutraal
 ---------------------------------------
 Structure from the checkpoint file:  "JID_7807.chk"
 Charge =  0 Multiplicity = 1

 SCF Done:  E(RB3LYP) =  -855.448297711     A.U. after   16 cycles
 Normal termination of Gaussian 16 at Fri Dec 11 13:21:00 2020.

 ----------------------------------------------------------------------
 # B3LYP/6-311++G(d,p) empiricaldispersion=gd3bj scf=xqc pop=npa geom=c
 heck
 ----------------------------------------------------------------------

 -------------------------------------
 CID_113822004_JID_7807_Energie_kation
 -------------------------------------
 Structure from the checkpoint file:  "JID_7807.chk"
 Charge =  1 Multiplicity = 2

 SCF Done:  E(UB3LYP) =  -855.140324221     A.U. after   28 cycles
 Normal termination of Gaussian 16 at Fri Dec 11 13:31:16 2020.
 Gaussian 16:  ES64L-G16RevA.03 25-Dec-2016

 ----------------------------------------------------------------------
 # B3LYP/6-311++G(d,p) empiricaldispersion=gd3bj scf=xqc pop=npa geom=c
 heck
 ----------------------------------------------------------------------

 ------------------------------------
 CID_113822004_JID_7807_Energie_anion
 ------------------------------------
 Structure from the checkpoint file:  "JID_7807.chk"
 Charge = -1 Multiplicity = 2

                         Standard orientation:
 ---------------------------------------------------------------------
 Center     Atomic      Atomic             Coordinates (Angstroms)
 Number     Number       Type             X           Y           Z
 ---------------------------------------------------------------------
      1          6           0        4.609973   -0.115250   -1.879206
      2          6           0        4.504239    0.045759   -0.365072
      3          8           0        3.470259   -0.733658    0.217392
      4          6           0        2.160373   -0.276954   -0.078163
      5          6           0        1.241348   -1.008939    0.903201
      6          6           0        1.299575   -0.474775    2.327125
      7          8           0       -0.119236   -1.134000    0.409320
      8          6           0       -0.890008   -0.075979    0.176547
      9          6           0       -2.238202   -0.270284   -0.225737
     10          6           0       -3.016574    0.863579   -0.484799
     11          6           0       -2.485549    2.127234   -0.346697
     12          6           0       -1.139384    2.224078    0.065317
     13          7           0       -0.381552    1.147254    0.315487
     14          7           0       -0.518893    3.436320    0.195683
     15          7           0       -2.865912   -1.570363   -0.383043
     16          8           0       -4.047708   -1.580934   -0.755460
     17          8           0       -2.214382   -2.585567   -0.143623
     18          1           0        4.722211   -1.172455   -2.141178
     19          1           0        5.481699    0.430785   -2.257670
     20          1           0        3.724147    0.273523   -2.392505
     21          1           0        5.426106   -0.296762    0.116022
     22          1           0        4.363907    1.107972   -0.102943
     23          1           0        2.091818    0.810495    0.043088
     24          1           0        1.863204   -0.528341   -1.106728
     25          1           0        1.565307   -2.052571    0.900199
     26          1           0        0.970529    0.565206    2.374363
     27          1           0        0.672601   -1.079617    2.989157
     28          1           0        2.335937   -0.536551    2.672826
     29          1           0       -4.042638    0.710202   -0.793849
     30          1           0       -3.074183    3.015159   -0.549842
     31          1           0        0.363621    3.437227    0.687348
     32          1           0       -1.085970    4.265716    0.288706
 ---------------------------------------------------------------------

 SCF Done:  E(UB3LYP) =  -855.469199619     A.U. after   31 cycles

 The electronic state is 2-A.
 Alpha  occ. eigenvalues --  -19.03879 -19.02867 -18.93817 -18.93716 -14.32160
 Alpha  occ. eigenvalues --  -14.20753 -14.17237 -10.14147 -10.14139 -10.12574
 Alpha  occ. eigenvalues --  -10.11580 -10.10823 -10.09041 -10.06025 -10.05756
 Alpha  occ. eigenvalues --  -10.04032 -10.03961  -1.01929  -0.96026  -0.95014
 Alpha  occ. eigenvalues --   -0.84545  -0.84133  -0.77081  -0.70013  -0.68020
 Alpha  occ. eigenvalues --   -0.66507  -0.62393  -0.59642  -0.55420  -0.53451
 Alpha  occ. eigenvalues --   -0.51607  -0.48018  -0.46797  -0.42557  -0.41352
 Alpha  occ. eigenvalues --   -0.40780  -0.38842  -0.38105  -0.36799  -0.36096
 Alpha  occ. eigenvalues --   -0.35271  -0.34590  -0.34026  -0.32891  -0.32225
 Alpha  occ. eigenvalues --   -0.31037  -0.30819  -0.29477  -0.28802  -0.28193
 Alpha  occ. eigenvalues --   -0.27246  -0.26921  -0.25822  -0.24356  -0.23137
 Alpha  occ. eigenvalues --   -0.20992  -0.18048  -0.17707  -0.15419  -0.14428
 Alpha  occ. eigenvalues --   -0.12678  -0.11573  -0.09160  -0.08942   0.03834
 Alpha virt. eigenvalues --    0.05593   0.06386   0.07777   0.08473   0.09073
 Alpha virt. eigenvalues --    0.09872   0.10359   0.11237   0.11603   0.11923
 Alpha virt. eigenvalues --    0.12450   0.12691   0.13322   0.13799   0.14376

  Beta  occ. eigenvalues --  -19.03879 -19.02840 -18.93493 -18.93196 -14.31579
  Beta  occ. eigenvalues --  -14.20662 -14.17287 -10.14144 -10.14061 -10.12575
  Beta  occ. eigenvalues --  -10.11580 -10.10485 -10.09039 -10.06037 -10.05752
  Beta  occ. eigenvalues --  -10.04125 -10.03704  -1.00988  -0.95967  -0.94999
  Beta  occ. eigenvalues --   -0.83929  -0.83693  -0.76957  -0.69996  -0.67741
  Beta  occ. eigenvalues --   -0.66454  -0.62082  -0.59635  -0.55095  -0.53076
  Beta  occ. eigenvalues --   -0.51433  -0.47826  -0.46394  -0.42509  -0.41202
  Beta  occ. eigenvalues --   -0.40719  -0.38796  -0.38053  -0.36619  -0.35741
  Beta  occ. eigenvalues --   -0.34862  -0.34281  -0.32815  -0.32652  -0.31555
  Beta  occ. eigenvalues --   -0.30654  -0.30503  -0.28943  -0.28702  -0.27989
  Beta  occ. eigenvalues --   -0.27083  -0.26763  -0.25700  -0.24152  -0.22853
  Beta  occ. eigenvalues --   -0.20946  -0.17768  -0.17171  -0.15404  -0.14061
  Beta  occ. eigenvalues --   -0.11223  -0.09798  -0.08720  -0.08227
  Beta virt. eigenvalues --    0.05550   0.06621   0.07712   0.08434   0.09015
  Beta virt. eigenvalues --    0.09828   0.10181   0.10577   0.11478   0.11842
  Beta virt. eigenvalues --    0.12001   0.12373   0.12679   0.13374   0.13882

 Mulliken charges and spin densities:
               1          2
     1  C   -0.431622  -0.015969
     2  C   -0.022045  -0.064530
     3  O   -0.086108  -0.000894
     4  C   -0.561050   0.080914
     5  C   -0.095052  -0.035278
     6  C   -0.292174  -0.039284
     7  O    0.138244   0.003654
     8  C   -1.161149   0.007233
     9  C    0.213782  -0.100856
    10  C    0.426768   0.291022
    11  C   -0.039275  -0.135382
    12  C   -0.141484   0.120372
    13  N    0.004672  -0.048046
    14  N   -0.330371   0.042267
    15  N   -0.541412   0.195318
    16  O   -0.181396   0.129595
    17  O   -0.072506   0.195398
    18  H    0.138937   0.002227
    19  H    0.104093   0.018799
    20  H    0.135498   0.014408
    21  H    0.114996   0.026092
    22  H    0.041307   0.059622
    23  H    0.291528  -0.079938
    24  H    0.198680  -0.007222
    25  H    0.190071  -0.000946
    26  H    0.132229   0.044107
    27  H    0.134512   0.006429
    28  H    0.135622   0.011079
    29  H    0.244813  -0.016405
    30  H    0.102518   0.023293
    31  H    0.132140   0.111650
    32  H    0.075234   0.161271
 Sum of Mulliken charges =  -1.00000   1.00000

 Dipole moment (field-independent basis, Debye):
    X=             10.5327    Y=              5.8079    Z=              0.9354  Tot=             12.0642
 Quadrupole moment (field-independent basis, Debye-Ang):
   XX=           -151.2500   YY=           -133.9846   ZZ=           -110.4548
   XY=            -19.7565   XZ=             -8.1815   YZ=             -2.6644

 Summary of Natural Population Analysis:

                                       Natural Population
                Natural  -----------------------------------------------
    Atom  No    Charge         Core      Valence    Rydberg      Total
 -----------------------------------------------------------------------
      C    1   -0.30228      0.99967     2.29866    0.00394     3.30228
      C    2   -0.00731      0.99961     1.99569    0.01201     3.00731
      O    3   -0.30479      0.99988     3.29519    0.00972     4.30479
      C    4   -0.02584      0.99956     2.01444    0.01185     3.02584
      C    5    0.06146      0.99953     1.92659    0.01242     2.93854
      C    6   -0.30162      0.99964     2.29704    0.00495     3.30162
      O    7   -0.25706      0.99984     3.24733    0.00989     4.25706
      C    8    0.29650      0.99946     1.68658    0.01747     2.70350
      C    9   -0.02642      0.99939     2.01102    0.01601     3.02642
      C   10   -0.01380      0.99955     2.00561    0.00863     3.01380
      C   11   -0.19417      0.99952     2.18469    0.00995     3.19417
      C   12    0.25635      0.99957     1.72954    0.01453     2.74365
      N   13   -0.31976      0.99963     2.81012    0.01001     3.81976
      N   14   -0.38977      0.99970     2.88108    0.00899     3.88977
      N   15    0.30119      0.99971     2.17292    0.02617     3.19881
      O   16   -0.22517      0.99990     3.21772    0.00755     4.22517
      O   17   -0.17204      0.99990     3.16448    0.00766     4.17204
      H   18    0.09996      0.00000     0.39892    0.00112     0.40004
      H   19    0.09676      0.00000     0.40204    0.00120     0.40324
      H   20    0.10101      0.00000     0.39792    0.00107     0.39899
      H   21    0.08453      0.00000     0.41399    0.00148     0.41547
      H   22    0.07548      0.00000     0.42243    0.00209     0.42452
      H   23    0.09080      0.00000     0.40724    0.00196     0.40920
      H   24    0.08634      0.00000     0.41232    0.00134     0.41366
      H   25    0.09595      0.00000     0.40285    0.00121     0.40405
      H   26    0.10865      0.00000     0.39009    0.00126     0.39135
      H   27    0.10230      0.00000     0.39676    0.00094     0.39770
      H   28    0.09994      0.00000     0.39883    0.00123     0.40006
      H   29    0.11413      0.00000     0.38480    0.00108     0.38587
      H   30    0.09514      0.00000     0.40393    0.00093     0.40486
      H   31    0.18835      0.00000     0.30958    0.00207     0.31165
      H   32    0.18518      0.00000     0.31338    0.00144     0.31482
 =======================================================================
   * Total *    0.00000     16.99407    46.79379    0.21214    64.00000

 Normal termination of Gaussian 16 at Fri Dec 11 13:42:40 2020.
