 Gaussian 16, Revision A.03,

 -----------------------------------------------------------
 # opt freq B3LYP/6-31G(d) empiricaldispersion=gd3bj scf=xqc
 -----------------------------------------------------------

 -------------------------------
 CID_137709279_JID_4868_neutraal
 -------------------------------
 Symbolic Z-matrix:
 Charge =  0 Multiplicity = 1

 SCF Done:  E(RB3LYP) =  -1040.36906709     A.U. after   15 cycles
 SCF Done:  E(RB3LYP) =  -1040.37420063     A.U. after   13 cycles
 SCF Done:  E(RB3LYP) =  -1040.37816136     A.U. after   13 cycles
 SCF Done:  E(RB3LYP) =  -1040.38126417     A.U. after   13 cycles
 SCF Done:  E(RB3LYP) =  -1040.38263586     A.U. after   14 cycles
 SCF Done:  E(RB3LYP) =  -1040.38372380     A.U. after   13 cycles
 SCF Done:  E(RB3LYP) =  -1040.38405089     A.U. after   12 cycles
 SCF Done:  E(RB3LYP) =  -1040.38418479     A.U. after   12 cycles
 SCF Done:  E(RB3LYP) =  -1040.38423825     A.U. after   11 cycles
 SCF Done:  E(RB3LYP) =  -1040.38427138     A.U. after   10 cycles
 SCF Done:  E(RB3LYP) =  -1040.38433051     A.U. after   10 cycles
 SCF Done:  E(RB3LYP) =  -1040.38433664     A.U. after   10 cycles
 SCF Done:  E(RB3LYP) =  -1040.38433839     A.U. after    8 cycles
 SCF Done:  E(RB3LYP) =  -1040.38433894     A.U. after    8 cycles
 SCF Done:  E(RB3LYP) =  -1040.38433909     A.U. after    7 cycles
 SCF Done:  E(RB3LYP) =  -1040.38433917     A.U. after    8 cycles
 Optimization completed.
    -- Stationary point found.
 Normal termination of Gaussian 16 at Thu Dec 10 10:48:44 2020.

 --------------------------------------------------------------------
 #N Geom=AllCheck Guess=TCheck SCRF=Check GenChk RB3LYP/6-31G(d) Freq
 --------------------------------------------------------------------

 Structure from the checkpoint file:  "JID_4868.chk"
 -------------------------------
 CID_137709279_JID_4868_neutraal
 -------------------------------
 Charge =  0 Multiplicity = 1

 SCF Done:  E(RB3LYP) =  -1040.38433917     A.U. after    1 cycles

  Exact polarizability: 176.849  -9.719 119.833 -15.219   5.258  85.392
 Approx polarizability: 235.480 -30.758 212.919 -28.211  15.264 135.448

                      1                      2                      3
                      A                      A                      A
 Frequencies --     32.5819                37.1284                59.0715
 Red. masses --      6.5766                 4.9765                 6.2242
 Frc consts  --      0.0041                 0.0040                 0.0128
 IR Inten    --      1.1722                 1.4310                 1.7727

                      4                      5                      6
                      A                      A                      A
 Frequencies --     86.2292               114.2796               144.9927
 Red. masses --      4.8953                 1.1335                 3.8695
 Frc consts  --      0.0214                 0.0087                 0.0479
 IR Inten    --      1.2858                 0.0556                 3.2765

                      7                      8                      9
                      A                      A                      A
 Frequencies --    155.2246               174.1216               209.3358
 Red. masses --      5.4825                 4.5996                 6.0749
 Frc consts  --      0.0778                 0.0822                 0.1568
 IR Inten    --      3.6391                 5.2230                 8.7854

                     10                     11                     12
                      A                      A                      A
 Frequencies --    272.2785               283.0942               300.8972
 Red. masses --      4.2320                 4.2558                 1.2536
 Frc consts  --      0.1849                 0.2010                 0.0669
 IR Inten    --      2.3791                 1.3945                20.9143

                     13                     14                     15
                      A                      A                      A
 Frequencies --    327.4993               343.2004               370.3937
 Red. masses --      4.4614                 4.1098                 3.7801
 Frc consts  --      0.2819                 0.2852                 0.3055
 IR Inten    --      7.3350                10.2046                 4.3543

                     16                     17                     18
                      A                      A                      A
 Frequencies --    443.2239               499.3118               538.9371
 Red. masses --      4.8821                 3.8289                 2.3535
 Frc consts  --      0.5651                 0.5624                 0.4028
 IR Inten    --     12.4162                19.4509                51.6729

                     19                     20                     21
                      A                      A                      A
 Frequencies --    598.0051               621.8796               635.0055
 Red. masses --      4.3229                 5.0482                 1.4750
 Frc consts  --      0.9108                 1.1503                 0.3504
 IR Inten    --     53.8836                 9.8140               175.6066

                     22                     23                     24
                      A                      A                      A
 Frequencies --    642.9018               653.6673               682.9826
 Red. masses --      3.8662                 2.6000                 2.3104
 Frc consts  --      0.9415                 0.6545                 0.6350
 IR Inten    --      9.4237                80.2436                37.1580

                     25                     26                     27
                      A                      A                      A
 Frequencies --    701.2445               745.0746               761.6865
 Red. masses --      2.6156                 4.5606                 4.1292
 Frc consts  --      0.7578                 1.4917                 1.4115
 IR Inten    --     19.9386                22.9832                87.2773

                     28                     29                     30
                      A                      A                      A
 Frequencies --    813.4482               898.0236               907.9910
 Red. masses --      1.1971                 1.3165                 2.2057
 Frc consts  --      0.4667                 0.6255                 1.0714
 IR Inten    --     35.3617                 2.9714                68.8260

                     31                     32                     33
                      A                      A                      A
 Frequencies --    961.7467               990.4723              1003.8318
 Red. masses --      4.3957                 3.5100                 5.2003
 Frc consts  --      2.3955                 2.0288                 3.0874
 IR Inten    --      4.6999                37.4931                13.4573

                     34                     35                     36
                      A                      A                      A
 Frequencies --   1019.9574              1061.8208              1079.8091
 Red. masses --      1.6920                 1.3236                 1.4957
 Frc consts  --      1.0371                 0.8792                 1.0275
 IR Inten    --      3.3905                28.6970                 3.6797

                     37                     38                     39
                      A                      A                      A
 Frequencies --   1114.8299              1162.4859              1210.8982
 Red. masses --      3.1286                 3.6665                 3.0919
 Frc consts  --      2.2910                 2.9193                 2.6711
 IR Inten    --    193.0066               120.0787                39.1739

                     40                     41                     42
                      A                      A                      A
 Frequencies --   1246.8753              1263.4522              1273.3911
 Red. masses --      1.7353                 3.6908                 3.7226
 Frc consts  --      1.5895                 3.4713                 3.5565
 IR Inten    --     42.8051               113.9436                11.5645

                     43                     44                     45
                      A                      A                      A
 Frequencies --   1354.6677              1371.1300              1414.0084
 Red. masses --      1.1371                 4.7211                 3.0444
 Frc consts  --      1.2295                 5.2294                 3.5864
 IR Inten    --      7.7820               185.1316                16.9324

                     46                     47                     48
                      A                      A                      A
 Frequencies --   1434.4291              1443.7414              1476.5413
 Red. masses --      1.9705                 1.3348                 1.4186
 Frc consts  --      2.3888                 1.6393                 1.8223
 IR Inten    --    117.6274                 9.9448                10.2244

                     49                     50                     51
                      A                      A                      A
 Frequencies --   1486.3475              1501.6810              1516.7146
 Red. masses --      2.1679                 1.0423                 1.1429
 Frc consts  --      2.8219                 1.3849                 1.5491
 IR Inten    --     97.0315                 7.6358                 9.9646

                     52                     53                     54
                      A                      A                      A
 Frequencies --   1558.2790              1576.4613              1639.3947
 Red. masses --      6.0718                 1.6061                 5.6176
 Frc consts  --      8.6868                 2.3518                 8.8955
 IR Inten    --    164.1729               214.3172                 4.8612

                     55                     56                     57
                      A                      A                      A
 Frequencies --   1734.5399              1780.9195              3055.8544
 Red. masses --      1.0629                 8.8566                 1.0375
 Frc consts  --      1.8842                16.5503                 5.7084
 IR Inten    --     48.5360               298.7692                18.4666

                     58                     59                     60
                      A                      A                      A
 Frequencies --   3110.3316              3152.1024              3273.9984
 Red. masses --      1.1014                 1.1008                 1.0962
 Frc consts  --      6.2780                 6.4439                 6.9231
 IR Inten    --      8.8059                 8.2224                 3.1060

                     61                     62                     63
                      A                      A                      A
 Frequencies --   3308.7076              3459.3391              3521.9882
 Red. masses --      1.0980                 1.0499                 1.0765
 Frc consts  --      7.0822                 7.4027                 7.8678
 IR Inten    --      0.0282                 9.5477                30.4255

                     64                     65                     66
                      A                      A                      A
 Frequencies --   3534.8535              3555.5043              3611.4043
 Red. masses --      1.0770                 1.0927                 1.0781
 Frc consts  --      7.9287                 8.1390                 8.2847
 IR Inten    --     27.0870                 5.9616                56.1844

 - Thermochemistry -
 -------------------
 Temperature   298.150 Kelvin.  Pressure   1.00000 Atm.
 Atom     1 has atomic number  6 and mass  12.00000

 Molecular mass:   214.05245 amu.
 Principal axes and moments of inertia in atomic units:
                           1         2         3
     Eigenvalues --  1533.599115608.320646155.79117
           X            0.99981   0.01947   0.00162
           Y           -0.01947   0.99981  -0.00190
           Z           -0.00165   0.00187   1.00000
 This molecule is an asymmetric top.
 Rotational symmetry number  1.
 Warning -- assumption of classical behavior for rotation
           may cause significant error
 Rotational temperatures (Kelvin)      0.05648     0.01544     0.01407
 Rotational constants (GHZ):           1.17680     0.32180     0.29318
 Zero-point vibrational energy     486379.0 (Joules/Mol)
                                  116.24737 (Kcal/Mol)
 Warning -- explicit consideration of  19 degrees of freedom as
           vibrations may cause significant error
 Vibrational temperatures:     46.88    53.42    84.99   124.06   164.42
          (Kelvin)            208.61   223.33   250.52   301.19   391.75
                              407.31   432.92   471.20   493.79   532.91
                              637.70   718.40   775.41   860.40   894.75
                              913.63   924.99   940.48   982.66  1008.93
                             1072.00  1095.90  1170.37  1292.06  1306.40
                             1383.74  1425.07  1444.29  1467.49  1527.72
                             1553.60  1603.99  1672.56  1742.21  1793.98
                             1817.83  1832.13  1949.06  1972.75  2034.44
                             2063.82  2077.22  2124.41  2138.52  2160.58
                             2182.21  2242.02  2268.18  2358.72  2495.62
                             2562.35  4396.69  4475.07  4535.17  4710.55
                             4760.49  4977.22  5067.36  5085.87  5115.58
                             5196.01

 Zero-point correction=                           0.185252 (Hartree/Particle)
 Thermal correction to Energy=                    0.199339
 Thermal correction to Enthalpy=                  0.200283
 Thermal correction to Gibbs Free Energy=         0.142671
 Sum of electronic and zero-point Energies=          -1040.199087
 Sum of electronic and thermal Energies=             -1040.185001
 Sum of electronic and thermal Enthalpies=           -1040.184056
 Sum of electronic and thermal Free Energies=        -1040.241668

                     E (Thermal)             CV                S
                      KCal/Mol        Cal/Mol-Kelvin    Cal/Mol-Kelvin
 Total                  125.087             50.958            121.254
 Electronic               0.000              0.000              0.000
 Translational            0.889              2.981             41.987
 Rotational               0.889              2.981             32.337
 Vibrational            123.309             44.996             46.930
 Vibration     1          0.594              1.983              5.666
 Vibration     2          0.594              1.982              5.407
 Vibration     3          0.596              1.974              4.488
 Vibration     4          0.601              1.959              3.744
 Vibration     5          0.607              1.938              3.195
 Vibration     6          0.616              1.908              2.737
 Vibration     7          0.620              1.897              2.607
 Vibration     8          0.627              1.874              2.391
 Vibration     9          0.642              1.826              2.049
 Vibration    10          0.675              1.724              1.582
 Vibration    11          0.682              1.705              1.515
 Vibration    12          0.693              1.672              1.412
 Vibration    13          0.711              1.621              1.272
 Vibration    14          0.722              1.589              1.197
 Vibration    15          0.742              1.533              1.078
 Vibration    16          0.803              1.376              0.817
 Vibration    17          0.855              1.252              0.660
 Vibration    18          0.894              1.164              0.568
 Vibration    19          0.956              1.036              0.453

                           ! Non-Optimized Parameters !
 Normal termination of Gaussian 16 at Thu Dec 10 10:54:52 2020.

 ----------------------------------------------------------------------
 # B3LYP/6-311++G(d,p) empiricaldispersion=gd3bj scf=xqc pop=npa geom=c
 heck
 ----------------------------------------------------------------------

 ---------------------------------------
 CID_137709279_JID_4868_Energie_neutraal
 ---------------------------------------
 Structure from the checkpoint file:  "JID_4868.chk"
 Charge =  0 Multiplicity = 1

 SCF Done:  E(RB3LYP) =  -1040.60670233     A.U. after   15 cycles
 Normal termination of Gaussian 16 at Thu Dec 10 10:57:44 2020.

 ----------------------------------------------------------------------
 # B3LYP/6-311++G(d,p) empiricaldispersion=gd3bj scf=xqc pop=npa geom=c
 heck
 ----------------------------------------------------------------------

 -------------------------------------
 CID_137709279_JID_4868_Energie_kation
 -------------------------------------
 Structure from the checkpoint file:  "JID_4868.chk"
 Charge =  1 Multiplicity = 2

 SCF Done:  E(UB3LYP) =  -1040.30489606     A.U. after   28 cycles
 Normal termination of Gaussian 16 at Thu Dec 10 11:04:28 2020.
 Gaussian 16:  ES64L-G16RevA.03 25-Dec-2016

 ----------------------------------------------------------------------
 # B3LYP/6-311++G(d,p) empiricaldispersion=gd3bj scf=xqc pop=npa geom=c
 heck
 ----------------------------------------------------------------------

 ------------------------------------
 CID_137709279_JID_4868_Energie_anion
 ------------------------------------
 Structure from the checkpoint file:  "JID_4868.chk"
 Charge = -1 Multiplicity = 2

                         Standard orientation:
 ---------------------------------------------------------------------
 Center     Atomic      Atomic             Coordinates (Angstroms)
 Number     Number       Type             X           Y           Z
 ---------------------------------------------------------------------
      1          6           0       -4.730431   -0.802032    0.181228
      2          6           0       -3.256906   -0.781503   -0.011513
      3          6           0       -2.309263   -1.763848   -0.132872
      4          6           0       -1.058097   -1.103700   -0.296157
      5          6           0       -1.318719    0.248677   -0.262527
      6          8           0       -2.668184    0.438127   -0.088983
      7          6           0       -0.561187    1.506059   -0.361633
      8          8           0       -1.094845    2.604229   -0.334565
      9          7           0        0.829269    1.431002   -0.420969
     10          7           0        1.517505    0.274101   -0.759455
     11          6           0        2.557501   -0.202325    0.023779
     12         16           0        3.829234   -1.019629   -0.694759
     13          7           0        2.480432   -0.012559    1.364387
     14          7           0        1.318211    0.211794    2.134950
     15          1           0       -5.013508   -0.295483    1.111206
     16          1           0       -5.242236   -0.289821   -0.641636
     17          1           0       -5.086892   -1.834012    0.224691
     18          1           0       -2.486468   -2.829734   -0.112006
     19          1           0       -0.096157   -1.567496   -0.444066
     20          1           0        1.276584    2.320157   -0.631239
     21          1           0        1.693245    0.137009   -1.750817
     22          1           0        3.237755   -0.436911    1.883766
     23          1           0        1.044605    1.185760    2.028883
     24          1           0        0.554245   -0.352588    1.761536
 ---------------------------------------------------------------------

 SCF Done:  E(UB3LYP) =  -1040.61488242     A.U. after   32 cycles

 The electronic state is 2-A.
 Alpha  occ. eigenvalues --  -88.68869 -19.02667 -18.92747 -14.26813 -14.26575
 Alpha  occ. eigenvalues --  -14.23288 -14.23184 -10.17980 -10.10646 -10.07963
 Alpha  occ. eigenvalues --  -10.06901 -10.06190 -10.03156 -10.01963  -7.77659
 Alpha  occ. eigenvalues --   -5.74071  -5.73478  -5.73202  -0.96352  -0.92924
 Alpha  occ. eigenvalues --   -0.89178  -0.86221  -0.75154  -0.69079  -0.66118
 Alpha  occ. eigenvalues --   -0.65035  -0.60187  -0.57293  -0.52370  -0.48643
 Alpha  occ. eigenvalues --   -0.46480  -0.45485  -0.42591  -0.41282  -0.40453
 Alpha  occ. eigenvalues --   -0.38825  -0.37787  -0.33398  -0.32698  -0.29610
 Alpha  occ. eigenvalues --   -0.29299  -0.28640  -0.28006  -0.27918  -0.26314
 Alpha  occ. eigenvalues --   -0.25442  -0.25265  -0.22429  -0.18900  -0.16850
 Alpha  occ. eigenvalues --   -0.14777  -0.14156  -0.12539  -0.11901  -0.10870
 Alpha  occ. eigenvalues --   -0.09392   0.05036
 Alpha virt. eigenvalues --    0.07817   0.08003   0.08516   0.10004   0.10263
 Alpha virt. eigenvalues --    0.10845   0.11646   0.11910   0.12774   0.13262
 Alpha virt. eigenvalues --    0.14026   0.14323   0.15694   0.16054   0.16404

  Beta  occ. eigenvalues --  -88.68868 -19.02389 -18.92348 -14.26777 -14.26576
  Beta  occ. eigenvalues --  -14.23249 -14.23181 -10.17911 -10.10295 -10.07638
  Beta  occ. eigenvalues --  -10.06825 -10.06219 -10.03284 -10.01661  -7.77658
  Beta  occ. eigenvalues --   -5.74072  -5.73474  -5.73202  -0.95880  -0.92797
  Beta  occ. eigenvalues --   -0.88848  -0.85805  -0.75014  -0.68967  -0.65756
  Beta  occ. eigenvalues --   -0.64647  -0.60095  -0.56947  -0.52293  -0.48035
  Beta  occ. eigenvalues --   -0.46267  -0.45408  -0.42540  -0.41028  -0.40358
  Beta  occ. eigenvalues --   -0.38761  -0.37473  -0.32510  -0.32378  -0.29351
  Beta  occ. eigenvalues --   -0.28599  -0.28411  -0.27773  -0.27657  -0.25915
  Beta  occ. eigenvalues --   -0.25074  -0.24141  -0.22150  -0.18619  -0.16759
  Beta  occ. eigenvalues --   -0.13590  -0.13157  -0.12433  -0.11679  -0.10652
  Beta  occ. eigenvalues --   -0.07740
  Beta virt. eigenvalues --    0.07823   0.08253   0.08404   0.09953   0.10196
  Beta virt. eigenvalues --    0.10769   0.11225   0.11736   0.12290   0.12787
  Beta virt. eigenvalues --    0.13212   0.14012   0.14248   0.15649   0.16007

 Mulliken charges and spin densities:
               1          2
     1  C   -0.572534  -0.050009
     2  C    0.092242   0.192765
     3  C   -0.207167  -0.111877
     4  C   -0.280146   0.216505
     5  C    0.018086   0.160756
     6  O   -0.031504   0.062674
     7  C   -0.020419   0.130322
     8  O   -0.416794   0.148474
     9  N   -0.305616  -0.014088
    10  N   -0.077076   0.031058
    11  C    0.175285   0.002465
    12  S   -0.721182  -0.062090
    13  N   -0.203581   0.083486
    14  N   -0.264999  -0.086986
    15  H    0.099255   0.048407
    16  H    0.134211   0.013132
    17  H    0.138931  -0.000522
    18  H    0.104752   0.023552
    19  H    0.122575   0.038528
    20  H    0.300096   0.018892
    21  H    0.217422   0.028733
    22  H    0.235194   0.075794
    23  H    0.212313   0.051134
    24  H    0.250657  -0.001104
 Sum of Mulliken charges =  -1.00000   1.00000

 Dipole moment (field-independent basis, Debye):
    X=              0.2167    Y=             -1.8091    Z=              0.6489  Tot=              1.9341
 Quadrupole moment (field-independent basis, Debye-Ang):
   XX=           -136.9989   YY=           -114.4161   ZZ=           -101.3051
   XY=             16.2453   XZ=              1.9969   YZ=             -0.6268

 Summary of Natural Population Analysis:

                                       Natural Population
                Natural  -----------------------------------------------
    Atom  No    Charge         Core      Valence    Rydberg      Total
 -----------------------------------------------------------------------
      C    1   -0.30595      0.99964     2.30223    0.00408     3.30595
      C    2    0.21132      0.99951     1.77598    0.01319     2.78868
      C    3   -0.19590      0.99951     2.18727    0.00912     3.19590
      C    4   -0.08991      0.99954     2.08178    0.00858     3.08991
      C    5    0.09918      0.99945     1.88764    0.01373     2.90082
      O    6   -0.20615      0.99985     3.19793    0.00837     4.20615
      C    7    0.35298      0.99962     1.62503    0.02237     2.64702
      O    8   -0.28373      0.99988     3.27805    0.00581     4.28373
      N    9   -0.24561      0.99967     2.73203    0.01390     3.74561
      N   10   -0.22674      0.99963     2.71251    0.01459     3.72674
      C   11    0.15203      0.99966     1.82672    0.02159     2.84797
      S   12   -0.15672      4.99958     3.14283    0.01432     8.15672
      N   13   -0.22144      0.99961     2.70784    0.01400     3.72144
      N   14   -0.32193      0.99977     2.81098    0.01118     3.82193
      H   15    0.10420      0.00000     0.39455    0.00125     0.39580
      H   16    0.10379      0.00000     0.39496    0.00124     0.39621
      H   17    0.09863      0.00000     0.40065    0.00071     0.40137
      H   18    0.09824      0.00000     0.40078    0.00098     0.40176
      H   19    0.10365      0.00000     0.39510    0.00125     0.39635
      H   20    0.18112      0.00000     0.31553    0.00335     0.31888
      H   21    0.19025      0.00000     0.30746    0.00229     0.30975
      H   22    0.19173      0.00000     0.30579    0.00248     0.30827
      H   23    0.18279      0.00000     0.31483    0.00237     0.31721
      H   24    0.18416      0.00000     0.31292    0.00293     0.31584
 =======================================================================
   * Total *   -0.00000     17.99491    37.81139    0.19370    56.00000

 Normal termination of Gaussian 16 at Thu Dec 10 11:11:05 2020.
