 Gaussian 16, Revision A.03,

 -----------------------------------------------------------
 # opt freq B3LYP/6-31G(d) empiricaldispersion=gd3bj scf=xqc
 -----------------------------------------------------------

 -------------------------------
 CID_141921020_JID_3352_neutraal
 -------------------------------
 Symbolic Z-matrix:
 Charge =  0 Multiplicity = 1

 SCF Done:  E(RB3LYP) =  -523.499261415     A.U. after   14 cycles
 SCF Done:  E(RB3LYP) =  -523.502094718     A.U. after   12 cycles
 SCF Done:  E(RB3LYP) =  -523.498132518     A.U. after   14 cycles
 SCF Done:  E(RB3LYP) =  -523.501993809     A.U. after   12 cycles
 SCF Done:  E(RB3LYP) =  -523.503412459     A.U. after    9 cycles
 SCF Done:  E(RB3LYP) =  -523.503709568     A.U. after   13 cycles
 SCF Done:  E(RB3LYP) =  -523.503873465     A.U. after   13 cycles
 SCF Done:  E(RB3LYP) =  -523.503950811     A.U. after   11 cycles
 SCF Done:  E(RB3LYP) =  -523.503989686     A.U. after   11 cycles
 SCF Done:  E(RB3LYP) =  -523.504016481     A.U. after   11 cycles
 SCF Done:  E(RB3LYP) =  -523.507135321     A.U. after    9 cycles
 SCF Done:  E(RB3LYP) =  -523.507135744     A.U. after    9 cycles
 SCF Done:  E(RB3LYP) =  -523.507135950     A.U. after    7 cycles
 SCF Done:  E(RB3LYP) =  -523.507136082     A.U. after    7 cycles
 SCF Done:  E(RB3LYP) =  -523.507136075     A.U. after    6 cycles
 Optimization completed.
    -- Stationary point found.
 Normal termination of Gaussian 16 at Sun Dec 13 12:59:51 2020.

 --------------------------------------------------------------------
 #N Geom=AllCheck Guess=TCheck SCRF=Check GenChk RB3LYP/6-31G(d) Freq
 --------------------------------------------------------------------

 Structure from the checkpoint file:  "JID_3352.chk"
 -------------------------------
 CID_141921020_JID_3352_neutraal
 -------------------------------
 Charge =  0 Multiplicity = 1

 SCF Done:  E(RB3LYP) =  -523.507136075     A.U. after    1 cycles

  Exact polarizability: 140.519 -20.027 140.424  17.195  27.623 122.891
 Approx polarizability: 197.993 -35.080 215.405  35.037  53.340 195.620

                      1                      2                      3
                      A                      A                      A
 Frequencies --     19.7996                39.9005                42.7632
 Red. masses --      3.7951                 3.1699                 2.4013
 Frc consts  --      0.0009                 0.0030                 0.0026
 IR Inten    --      0.0459                 0.0120                 0.0382

                      4                      5                      6
                      A                      A                      A
 Frequencies --     53.8151                82.7153                93.2760
 Red. masses --      2.9085                 3.0731                 2.6259
 Frc consts  --      0.0050                 0.0124                 0.0135
 IR Inten    --      0.0172                 0.4508                 0.7095

                      7                      8                      9
                      A                      A                      A
 Frequencies --    107.0591               113.7406               120.7040
 Red. masses --      2.0825                 1.1433                 2.3568
 Frc consts  --      0.0141                 0.0087                 0.0202
 IR Inten    --      0.2282                 0.0275                 0.1936

                     10                     11                     12
                      A                      A                      A
 Frequencies --    133.2198               203.0648               252.5723
 Red. masses --      2.9271                 2.5304                 1.6671
 Frc consts  --      0.0306                 0.0615                 0.0627
 IR Inten    --      0.9554                 1.3125                 0.5152

                     13                     14                     15
                      A                      A                      A
 Frequencies --    274.9742               299.7860               333.6629
 Red. masses --      1.6396                 2.8791                 2.0292
 Frc consts  --      0.0730                 0.1524                 0.1331
 IR Inten    --      1.1651                 0.6498                 1.3164

                     16                     17                     18
                      A                      A                      A
 Frequencies --    337.4162               358.5999               443.0218
 Red. masses --      1.2721                 3.2968                 2.4514
 Frc consts  --      0.0853                 0.2498                 0.2835
 IR Inten    --      0.4271                 2.2124                 3.9659

                     19                     20                     21
                      A                      A                      A
 Frequencies --    515.8364               534.7698               579.5493
 Red. masses --      3.1690                 4.2900                 3.4737
 Frc consts  --      0.4968                 0.7228                 0.6874
 IR Inten    --      1.0301                 4.8614                 1.3551

                     22                     23                     24
                      A                      A                      A
 Frequencies --    619.6337               673.0926               755.6713
 Red. masses --      4.9807                 1.8418                 2.0938
 Frc consts  --      1.1267                 0.4916                 0.7044
 IR Inten    --      2.4813                 0.5809                 7.9937

                     25                     26                     27
                      A                      A                      A
 Frequencies --    774.0946               781.3465               786.7144
 Red. masses --      2.0819                 1.6061                 2.0468
 Frc consts  --      0.7350                 0.5777                 0.7464
 IR Inten    --      5.8305                62.5563                43.7020

                     28                     29                     30
                      A                      A                      A
 Frequencies --    817.5155               837.1071               841.2937
 Red. masses --      1.2398                 1.0574                 1.0559
 Frc consts  --      0.4882                 0.4366                 0.4403
 IR Inten    --      6.5465                 3.7977                 9.2390

                     31                     32                     33
                      A                      A                      A
 Frequencies --    873.1848               884.9580               925.4285
 Red. masses --      1.5073                 2.4492                 1.3714
 Frc consts  --      0.6771                 1.1301                 0.6920
 IR Inten    --      6.4638                 6.9075                38.5558

                     34                     35                     36
                      A                      A                      A
 Frequencies --    939.1783               943.0714               970.5867
 Red. masses --      1.3650                 1.9734                 1.2488
 Frc consts  --      0.7094                 1.0341                 0.6931
 IR Inten    --      1.9728                 4.2404                 0.0281

                     37                     38                     39
                      A                      A                      A
 Frequencies --   1012.9906              1052.3213              1059.2961
 Red. masses --      3.2711                 1.6460                 1.1863
 Frc consts  --      1.9777                 1.0739                 0.7843
 IR Inten    --      0.1669                 5.0787                17.2639

                     40                     41                     42
                      A                      A                      A
 Frequencies --   1075.3489              1089.3513              1125.1299
 Red. masses --      2.7586                 1.7910                 2.2796
 Frc consts  --      1.8795                 1.2522                 1.7003
 IR Inten    --      8.7255                 1.4580                27.1247

                     43                     44                     45
                      A                      A                      A
 Frequencies --   1142.8047              1184.5828              1195.1352
 Red. masses --      1.8312                 1.6895                 1.1001
 Frc consts  --      1.4091                 1.3968                 0.9258
 IR Inten    --      7.8907                35.8559                 2.4802

                     46                     47                     48
                      A                      A                      A
 Frequencies --   1228.1941              1237.6263              1240.4672
 Red. masses --      1.9075                 1.4630                 1.4558
 Frc consts  --      1.6953                 1.3203                 1.3199
 IR Inten    --      2.5191                 0.6685                 0.4917

                     49                     50                     51
                      A                      A                      A
 Frequencies --   1284.1577              1304.5824              1324.6624
 Red. masses --      2.6071                 1.4109                 1.5005
 Frc consts  --      2.5331                 1.4148                 1.5513
 IR Inten    --     70.4216                10.0441                24.5169

                     52                     53                     54
                      A                      A                      A
 Frequencies --   1341.4881              1358.1536              1403.2463
 Red. masses --      1.3655                 3.6762                 1.3076
 Frc consts  --      1.4478                 3.9952                 1.5170
 IR Inten    --      0.8363                 7.9739                13.7533

                     55                     56                     57
                      A                      A                      A
 Frequencies --   1434.3970              1442.8763              1456.4713
 Red. masses --      1.1982                 1.2945                 1.2530
 Frc consts  --      1.4526                 1.5878                 1.5660
 IR Inten    --      0.6436                13.0215                 1.0559

                     58                     59                     60
                      A                      A                      A
 Frequencies --   1471.5061              1482.7637              1514.6890
 Red. masses --      1.2956                 1.6128                 1.4691
 Frc consts  --      1.6529                 2.0892                 1.9859
 IR Inten    --     13.1301                 4.7058                49.3255

                     61                     62                     63
                      A                      A                      A
 Frequencies --   1525.2698              1528.8652              1532.7101
 Red. masses --      1.3617                 1.0868                 1.0266
 Frc consts  --      1.8665                 1.4967                 1.4210
 IR Inten    --     46.0731                 4.7039                 2.1884

                     64                     65                     66
                      A                      A                      A
 Frequencies --   1535.1649              1539.6242              1540.2440
 Red. masses --      1.0227                 1.0601                 1.0594
 Frc consts  --      1.4200                 1.4806                 1.4808
 IR Inten    --      1.7417                12.7670                 5.1661

                     67                     68                     69
                      A                      A                      A
 Frequencies --   1548.9819              1555.8615              1637.5595
 Red. masses --      1.3060                 1.4544                 4.8514
 Frc consts  --      1.8463                 2.0744                 7.6650
 IR Inten    --      1.3284                 0.8565                 2.1711

                     70                     71                     72
                      A                      A                      A
 Frequencies --   1663.2487              1710.3719              2980.4515
 Red. masses --      5.4939                 4.3787                 1.0749
 Frc consts  --      8.9545                 7.5471                 5.6255
 IR Inten    --     25.1815                11.1148                74.2535

                     73                     74                     75
                      A                      A                      A
 Frequencies --   3046.8434              3047.2605              3048.5294
 Red. masses --      1.0371                 1.0384                 1.0375
 Frc consts  --      5.6723                 5.6811                 5.6809
 IR Inten    --     30.0673                24.5859                28.3163

                     76                     77                     78
                      A                      A                      A
 Frequencies --   3097.5525              3104.1013              3104.1716
 Red. masses --      1.1018                 1.0986                 1.0940
 Frc consts  --      6.2289                 6.2368                 6.2111
 IR Inten    --     12.8559                16.3736                 6.0296

                     79                     80                     81
                      A                      A                      A
 Frequencies --   3124.8545              3128.5870              3132.2797
 Red. masses --      1.0932                 1.1021                 1.1020
 Frc consts  --      6.2895                 6.3556                 6.3703
 IR Inten    --     27.6443                50.8160                49.1364

                     82                     83                     84
                      A                      A                      A
 Frequencies --   3133.2249              3161.1311              3167.4177
 Red. masses --      1.1034                 1.0706                 1.0774
 Frc consts  --      6.3822                 6.3029                 6.3685
 IR Inten    --     31.9438                 6.3656                 7.9357

                     85                     86                     87
                      A                      A                      A
 Frequencies --   3169.5394              3188.8723              3198.8241
 Red. masses --      1.0876                 1.0868                 1.0917
 Frc consts  --      6.4375                 6.5115                 6.5814
 IR Inten    --     14.2667                 2.7250                24.3649

                     88                     89                     90
                      A                      A                      A
 Frequencies --   3212.3272              3245.5888              3511.3450
 Red. masses --      1.0970                 1.1159                 1.0740
 Frc consts  --      6.6697                 6.9258                 7.8017
 IR Inten    --     23.2376                15.2725                 1.0206

 - Thermochemistry -
 -------------------
 Temperature   298.150 Kelvin.  Pressure   1.00000 Atm.
 Atom     1 has atomic number  6 and mass  12.00000

 Molecular mass:   177.15175 amu.
 Principal axes and moments of inertia in atomic units:
                           1         2         3
     Eigenvalues --  2305.072403238.768573639.27597
           X            0.99963   0.02628  -0.00752
           Y           -0.02631   0.99965  -0.00379
           Z            0.00742   0.00398   0.99996
 This molecule is an asymmetric top.
 Rotational symmetry number  1.
 Warning -- assumption of classical behavior for rotation
           may cause significant error
 Rotational temperatures (Kelvin)      0.03758     0.02674     0.02380
 Rotational constants (GHZ):           0.78294     0.55723     0.49591
 Zero-point vibrational energy     747344.1 (Joules/Mol)
                                  178.61952 (Kcal/Mol)
 Warning -- explicit consideration of  22 degrees of freedom as
           vibrations may cause significant error
 Vibrational temperatures:     28.49    57.41    61.53    77.43   119.01
          (Kelvin)            134.20   154.03   163.65   173.67   191.67
                              292.16   363.40   395.63   431.33   480.07
                              485.47   515.95   637.41   742.17   769.41
                              833.84   891.51   968.43  1087.24  1113.75
                             1124.18  1131.91  1176.22  1204.41  1210.43
                             1256.32  1273.26  1331.49  1351.27  1356.87
                             1396.46  1457.47  1514.06  1524.09  1547.19
                             1567.33  1618.81  1644.24  1704.35  1719.53
                             1767.10  1780.67  1784.76  1847.62  1877.00
                             1905.89  1930.10  1954.08  2018.96  2063.78
                             2075.98  2095.54  2117.17  2133.37  2179.30
                             2194.52  2199.70  2205.23  2208.76  2215.18
                             2216.07  2228.64  2238.54  2356.08  2393.04
                             2460.84  4288.20  4383.73  4384.33  4386.15
                             4456.69  4466.11  4466.21  4495.97  4501.34
                             4506.65  4508.01  4548.16  4557.21  4560.26
                             4588.08  4602.39  4621.82  4669.68  5052.04

 Zero-point correction=                           0.284648 (Hartree/Particle)
 Thermal correction to Energy=                    0.300631
 Thermal correction to Enthalpy=                  0.301575
 Thermal correction to Gibbs Free Energy=         0.239034
 Sum of electronic and zero-point Energies=           -523.222488
 Sum of electronic and thermal Energies=              -523.206505
 Sum of electronic and thermal Enthalpies=            -523.205561
 Sum of electronic and thermal Free Energies=         -523.268102

                     E (Thermal)             CV                S
                      KCal/Mol        Cal/Mol-Kelvin    Cal/Mol-Kelvin
 Total                  188.649             56.422            131.629
 Electronic               0.000              0.000              0.000
 Translational            0.889              2.981             41.423
 Rotational               0.889              2.981             31.675
 Vibrational            186.871             50.460             58.532
 Vibration     1          0.593              1.986              6.654
 Vibration     2          0.594              1.981              5.264
 Vibration     3          0.595              1.980              5.127
 Vibration     4          0.596              1.976              4.672
 Vibration     5          0.600              1.961              3.825
 Vibration     6          0.602              1.954              3.590
 Vibration     7          0.606              1.944              3.322
 Vibration     8          0.607              1.938              3.204
 Vibration     9          0.609              1.932              3.089
 Vibration    10          0.613              1.920              2.899
 Vibration    11          0.639              1.836              2.105
 Vibration    12          0.664              1.758              1.713
 Vibration    13          0.677              1.720              1.565
 Vibration    14          0.692              1.674              1.418
 Vibration    15          0.715              1.608              1.242
 Vibration    16          0.718              1.601              1.224
 Vibration    17          0.733              1.558              1.128
 Vibration    18          0.803              1.376              0.817
 Vibration    19          0.871              1.215              0.620
 Vibration    20          0.890              1.173              0.577
 Vibration    21          0.936              1.076              0.486
 Vibration    22          0.980              0.990              0.417

 Optimization completed.
    -- Stationary point found.
 Normal termination of Gaussian 16 at Sun Dec 13 13:08:37 2020.

 ----------------------------------------------------------------------
 # B3LYP/6-311++G(d,p) empiricaldispersion=gd3bj scf=xqc pop=npa geom=c
 heck
 ----------------------------------------------------------------------

 ---------------------------------------
 CID_141921020_JID_3352_Energie_neutraal
 ---------------------------------------
 Structure from the checkpoint file:  "JID_3352.chk"
 Charge =  0 Multiplicity = 1

 SCF Done:  E(RB3LYP) =  -523.653831727     A.U. after   15 cycles
 Normal termination of Gaussian 16 at Sun Dec 13 13:13:00 2020.

 ----------------------------------------------------------------------
 # B3LYP/6-311++G(d,p) empiricaldispersion=gd3bj scf=xqc pop=npa geom=c
 heck
 ----------------------------------------------------------------------

 -------------------------------------
 CID_141921020_JID_3352_Energie_kation
 -------------------------------------
 Structure from the checkpoint file:  "JID_3352.chk"
 Charge =  1 Multiplicity = 2

 SCF Done:  E(UB3LYP) =  -523.374600374     A.U. after   24 cycles
 Normal termination of Gaussian 16 at Sun Dec 13 13:22:49 2020.
 Gaussian 16:  ES64L-G16RevA.03 25-Dec-2016

 ----------------------------------------------------------------------
 # B3LYP/6-311++G(d,p) empiricaldispersion=gd3bj scf=xqc pop=npa geom=c
 heck
 ----------------------------------------------------------------------

 ------------------------------------
 CID_141921020_JID_3352_Energie_anion
 ------------------------------------
 Structure from the checkpoint file:  "JID_3352.chk"
 Charge = -1 Multiplicity = 2

                         Standard orientation:
 ---------------------------------------------------------------------
 Center     Atomic      Atomic             Coordinates (Angstroms)
 Number     Number       Type             X           Y           Z
 ---------------------------------------------------------------------
      1          6           0        1.792612    1.157370   -2.086928
      2          6           0        2.378987    2.278595   -1.227498
      3          6           0       -3.910997    0.420956   -0.657132
      4          6           0       -2.771075   -0.281008    0.070854
      5          7           0       -1.570765   -0.325713   -0.780782
      6          6           0       -0.378098   -0.813807   -0.198563
      7          6           0        0.190550   -2.015684   -0.638683
      8          6           0        1.389857   -2.480211   -0.104678
      9          6           0        2.030535   -1.753691    0.900685
     10          6           0        1.474188   -0.555500    1.339610
     11          6           0        0.279086   -0.057912    0.800968
     12          6           0       -0.240392    1.263748    1.181584
     13          6           0       -0.092319    1.856178    2.372900
     14          1           0        0.697530    1.190586   -2.089614
     15          1           0        2.086174    0.173997   -1.705969
     16          1           0        2.133933    1.233195   -3.126478
     17          1           0        2.094318    3.266345   -1.609419
     18          1           0        2.025445    2.207991   -0.193729
     19          1           0        3.474433    2.235144   -1.209149
     20          1           0       -3.622825    1.442160   -0.926533
     21          1           0       -4.805592    0.462057   -0.026752
     22          1           0       -4.178506   -0.108657   -1.580294
     23          1           0       -2.517582    0.263900    0.983620
     24          1           0       -3.080062   -1.293700    0.381269
     25          1           0       -1.780475   -0.846601   -1.628715
     26          1           0       -0.321169   -2.589797   -1.408289
     27          1           0        1.817696   -3.410465   -0.467835
     28          1           0        2.967037   -2.106044    1.322524
     29          1           0        1.997322    0.042379    2.079989
     30          1           0       -0.781985    1.782165    0.391441
     31          1           0       -0.470112    2.857767    2.554423
     32          1           0        0.402170    1.363361    3.206264
 ---------------------------------------------------------------------

 SCF Done:  E(UB3LYP) =  -523.642941985     A.U. after   33 cycles
 SCF Done:  E(UB3LYP) =  -523.642941985     a.u. after    1 cycles

 The electronic state is 2-A.
 Alpha  occ. eigenvalues --  -14.19383 -10.07964 -10.07960 -10.05082 -10.04951
 Alpha  occ. eigenvalues --  -10.04773 -10.04523 -10.04467 -10.04436 -10.04403
 Alpha  occ. eigenvalues --  -10.04348 -10.03892 -10.02922  -0.80769  -0.72337
 Alpha  occ. eigenvalues --   -0.66105  -0.64374  -0.64269  -0.60330  -0.58793
 Alpha  occ. eigenvalues --   -0.51124  -0.50621  -0.49390  -0.47141  -0.43213
 Alpha  occ. eigenvalues --   -0.39758  -0.37468  -0.35111  -0.33510  -0.32973
 Alpha  occ. eigenvalues --   -0.32607  -0.32292  -0.31737  -0.30583  -0.28785
 Alpha  occ. eigenvalues --   -0.27707  -0.26420  -0.25982  -0.25340  -0.24386
 Alpha  occ. eigenvalues --   -0.24225  -0.23481  -0.23325  -0.22276  -0.21617
 Alpha  occ. eigenvalues --   -0.17078  -0.15827  -0.11613  -0.09129   0.05046
 Alpha virt. eigenvalues --    0.07046   0.07834   0.08222   0.08719   0.09705
 Alpha virt. eigenvalues --    0.10001   0.10021   0.10722   0.11156   0.11535
 Alpha virt. eigenvalues --    0.12132   0.12219   0.12909   0.13240   0.13976

  Beta  occ. eigenvalues --  -14.19380 -10.07941 -10.07922 -10.05082 -10.04915
  Beta  occ. eigenvalues --  -10.04808 -10.04511 -10.04462 -10.04350 -10.04232
  Beta  occ. eigenvalues --  -10.04229 -10.03802 -10.02741  -0.80702  -0.72155
  Beta  occ. eigenvalues --   -0.65764  -0.64302  -0.64248  -0.60124  -0.58597
  Beta  occ. eigenvalues --   -0.50896  -0.50612  -0.49237  -0.46952  -0.42954
  Beta  occ. eigenvalues --   -0.39650  -0.37376  -0.35033  -0.33415  -0.32914
  Beta  occ. eigenvalues --   -0.32602  -0.32232  -0.31615  -0.30503  -0.28635
  Beta  occ. eigenvalues --   -0.27625  -0.26319  -0.25965  -0.25237  -0.24255
  Beta  occ. eigenvalues --   -0.24013  -0.23470  -0.23214  -0.22174  -0.21471
  Beta  occ. eigenvalues --   -0.16326  -0.15420  -0.10963  -0.08608
  Beta virt. eigenvalues --    0.07458   0.08063   0.08320   0.08728   0.08991
  Beta virt. eigenvalues --    0.09870   0.10216   0.10422   0.10719   0.11238
  Beta virt. eigenvalues --    0.11548   0.12115   0.12596   0.13047   0.13619

 Mulliken charges and spin densities:
               1          2
     1  C   -0.326207  -0.075547
     2  C   -0.497948   0.001689
     3  C    1.415752  -1.894459
     4  C   -0.878032   0.549601
     5  N   -0.009392   0.072495
     6  C    0.568788  -0.439725
     7  C   -0.636973   0.368957
     8  C   -0.127326  -0.074050
     9  C   -0.614833   0.055565
    10  C   -0.772850   0.310404
    11  C    0.888206   0.005348
    12  C    0.557857  -0.533931
    13  C   -0.820173   0.199632
    14  H    0.129073   0.049708
    15  H    0.181702  -0.020182
    16  H    0.031696   0.090097
    17  H    0.095687   0.003669
    18  H    0.230459  -0.000434
    19  H    0.097836   0.001075
    20  H   -0.109214   0.242798
    21  H   -0.222545   0.345898
    22  H   -0.516750   0.651464
    23  H    0.169390   0.029231
    24  H   -0.337478   0.483748
    25  H    0.252258  -0.036401
    26  H   -0.462214   0.604692
    27  H    0.079127   0.039572
    28  H    0.112193   0.013833
    29  H    0.137388  -0.006020
    30  H    0.182500  -0.027764
    31  H    0.102088  -0.006504
    32  H    0.099934  -0.004457
 Sum of Mulliken charges =  -1.00000   1.00000

 Dipole moment (field-independent basis, Debye):
    X=              5.5072    Y=              1.4290    Z=              0.6486  Tot=              5.7264
 Quadrupole moment (field-independent basis, Debye-Ang):
   XX=           -137.2117   YY=           -112.6984   ZZ=           -113.2139
   XY=             -5.2675   XZ=             -4.9150   YZ=             -4.3163

 Summary of Natural Population Analysis:

                                       Natural Population
                Natural  -----------------------------------------------
    Atom  No    Charge         Core      Valence    Rydberg      Total
 -----------------------------------------------------------------------
      C    1   -0.29231      0.99968     2.28658    0.00605     3.29231
      C    2   -0.28761      0.99968     2.28379    0.00414     3.28761
      C    3   -0.28751      0.99967     2.28238    0.00546     3.28751
      C    4   -0.08557      0.99962     2.07590    0.01005     3.08557
      N    5   -0.33057      0.99970     2.81888    0.01199     3.83057
      C    6    0.10056      0.99944     1.88762    0.01238     2.89944
      C    7   -0.12471      0.99951     2.11482    0.01037     3.12471
      C    8   -0.07479      0.99957     2.06421    0.01101     3.07479
      C    9   -0.12816      0.99957     2.11931    0.00927     3.12816
      C   10   -0.07289      0.99949     2.06409    0.00931     3.07289
      C   11   -0.03620      0.99945     2.02512    0.01163     3.03620
      C   12   -0.09226      0.99955     2.08184    0.01086     3.09226
      C   13   -0.16318      0.99958     2.15569    0.00791     3.16318
      H   14    0.10293      0.00000     0.39587    0.00120     0.39707
      H   15    0.10517      0.00000     0.39374    0.00109     0.39483
      H   16    0.08678      0.00000     0.41243    0.00079     0.41322
      H   17    0.08844      0.00000     0.41083    0.00074     0.41156
      H   18    0.10792      0.00000     0.39133    0.00074     0.39208
      H   19    0.08832      0.00000     0.41093    0.00075     0.41168
      H   20    0.09762      0.00000     0.40112    0.00126     0.40238
      H   21    0.09836      0.00000     0.40061    0.00103     0.40164
      H   22    0.09675      0.00000     0.40089    0.00236     0.40325
      H   23    0.10088      0.00000     0.39755    0.00158     0.39912
      H   24    0.08036      0.00000     0.41795    0.00168     0.41964
      H   25    0.17531      0.00000     0.32134    0.00336     0.32469
      H   26    0.09630      0.00000     0.40248    0.00122     0.40370
      H   27    0.09252      0.00000     0.40671    0.00078     0.40748
      H   28    0.09346      0.00000     0.40567    0.00087     0.40654
      H   29    0.09600      0.00000     0.40302    0.00098     0.40400
      H   30    0.09748      0.00000     0.40065    0.00187     0.40252
      H   31    0.08602      0.00000     0.41318    0.00079     0.41398
      H   32    0.08462      0.00000     0.41449    0.00089     0.41538
 =======================================================================
   * Total *    0.00001     12.99450    35.86104    0.14445    48.99999

 Normal termination of Gaussian 16 at Sun Dec 13 13:36:29 2020.
