 Gaussian 16, Revision A.03,

 -----------------------------------------------------------
 # opt freq B3LYP/6-31G(d) empiricaldispersion=gd3bj scf=xqc
 -----------------------------------------------------------

 ------------------------------
 CID_82768264_JID_7485_neutraal
 ------------------------------
 Symbolic Z-matrix:
 Charge =  0 Multiplicity = 1

 SCF Done:  E(RB3LYP) =  -733.946462255     A.U. after   15 cycles
 SCF Done:  E(RB3LYP) =  -733.949230921     A.U. after   12 cycles
 SCF Done:  E(RB3LYP) =  -733.948110231     A.U. after   12 cycles
 SCF Done:  E(RB3LYP) =  -733.951795062     A.U. after   12 cycles
 SCF Done:  E(RB3LYP) =  -733.954361658     A.U. after   11 cycles
 SCF Done:  E(RB3LYP) =  -733.952869947     A.U. after   12 cycles
 SCF Done:  E(RB3LYP) =  -733.953940226     A.U. after   12 cycles
 SCF Done:  E(RB3LYP) =  -733.955283053     A.U. after   10 cycles
 SCF Done:  E(RB3LYP) =  -733.955711019     A.U. after   12 cycles
 SCF Done:  E(RB3LYP) =  -733.956121957     A.U. after   12 cycles
 SCF Done:  E(RB3LYP) =  -733.968174377     A.U. after    8 cycles
 SCF Done:  E(RB3LYP) =  -733.968174453     A.U. after    7 cycles
 SCF Done:  E(RB3LYP) =  -733.968174488     A.U. after    7 cycles
 SCF Done:  E(RB3LYP) =  -733.968174487     A.U. after    7 cycles
 SCF Done:  E(RB3LYP) =  -733.968174515     A.U. after    6 cycles
 Optimization completed.
    -- Stationary point found.
 Normal termination of Gaussian 16 at Sun Dec 13 20:53:59 2020.

 --------------------------------------------------------------------
 #N Geom=AllCheck Guess=TCheck SCRF=Check GenChk RB3LYP/6-31G(d) Freq
 --------------------------------------------------------------------

 Structure from the checkpoint file:  "JID_7485.chk"
 ------------------------------
 CID_82768264_JID_7485_neutraal
 ------------------------------
 Charge =  0 Multiplicity = 1

 SCF Done:  E(RB3LYP) =  -733.968174515     A.U. after    1 cycles

  Exact polarizability: 175.886   0.821 151.168   1.460  -1.215 140.132
 Approx polarizability: 226.547  -4.137 215.785   5.609  -9.183 216.298

                      1                      2                      3
                      A                      A                      A
 Frequencies --     32.0359                44.3347                62.1945
 Red. masses --      2.4962                 3.7659                 3.4528
 Frc consts  --      0.0015                 0.0044                 0.0079
 IR Inten    --      0.4719                 0.5695                 2.6697

                      4                      5                      6
                      A                      A                      A
 Frequencies --     86.3343                98.7162               106.2450
 Red. masses --      2.6528                 3.6985                 2.3746
 Frc consts  --      0.0116                 0.0212                 0.0158
 IR Inten    --      0.1696                 0.8025                 0.5902

                      7                      8                      9
                      A                      A                      A
 Frequencies --    156.8948               174.5605               190.2060
 Red. masses --      2.8288                 3.0529                 3.2264
 Frc consts  --      0.0410                 0.0548                 0.0688
 IR Inten    --      0.6061                 0.1694                 0.8068

                     10                     11                     12
                      A                      A                      A
 Frequencies --    223.2120               232.4178               236.4290
 Red. masses --      1.4192                 1.1535                 1.8928
 Frc consts  --      0.0417                 0.0367                 0.0623
 IR Inten    --      0.5073                 0.0230                 0.1087

                     13                     14                     15
                      A                      A                      A
 Frequencies --    261.1471               268.6823               292.8614
 Red. masses --      1.1921                 2.5662                 2.4458
 Frc consts  --      0.0479                 0.1091                 0.1236
 IR Inten    --      0.0621                 2.3552                 2.9617

                     16                     17                     18
                      A                      A                      A
 Frequencies --    300.0249               308.9149               334.0319
 Red. masses --      2.0067                 2.7185                 3.0716
 Frc consts  --      0.1064                 0.1528                 0.2019
 IR Inten    --      1.4309                 4.8442                 0.5078

                     19                     20                     21
                      A                      A                      A
 Frequencies --    350.1363               367.1227               373.3076
 Red. masses --      2.4495                 1.1304                 2.3423
 Frc consts  --      0.1769                 0.0898                 0.1923
 IR Inten    --      0.4928                55.4518                 3.8779

                     22                     23                     24
                      A                      A                      A
 Frequencies --    409.0624               430.8482               477.4233
 Red. masses --      4.4955                 2.6781                 3.6044
 Frc consts  --      0.4432                 0.2929                 0.4841
 IR Inten    --     20.4866                 0.2345                 2.2352

                     25                     26                     27
                      A                      A                      A
 Frequencies --    510.9025               545.6341               588.7058
 Red. masses --      3.3769                 2.9367                 3.4925
 Frc consts  --      0.5193                 0.5151                 0.7132
 IR Inten    --     11.5608                 3.0092                 3.1193

                     28                     29                     30
                      A                      A                      A
 Frequencies --    602.9771               647.4924               726.5155
 Red. masses --      2.0122                 2.1334                 3.3453
 Frc consts  --      0.4310                 0.5270                 1.0403
 IR Inten    --      0.7394                 3.9963                 4.8346

                     31                     32                     33
                      A                      A                      A
 Frequencies --    752.6626               772.6512               802.0705
 Red. masses --      2.6445                 6.3204                 1.7945
 Frc consts  --      0.8827                 2.2231                 0.6802
 IR Inten    --      3.7674                 4.5932                 1.0837

                     34                     35                     36
                      A                      A                      A
 Frequencies --    821.3000               857.2886               874.0255
 Red. masses --      2.9601                 2.3238                 1.7775
 Frc consts  --      1.1764                 1.0063                 0.8000
 IR Inten    --     16.1448                 3.9913                 8.5306

                     37                     38                     39
                      A                      A                      A
 Frequencies --    874.8454               899.7475               916.7803
 Red. masses --      1.7323                 2.3581                 1.9503
 Frc consts  --      0.7812                 1.1247                 0.9658
 IR Inten    --     23.3771                 1.8320                 7.7332

                     40                     41                     42
                      A                      A                      A
 Frequencies --    925.9254               942.9855               948.0144
 Red. masses --      2.1336                 2.5787                 1.2539
 Frc consts  --      1.0778                 1.3510                 0.6640
 IR Inten    --      1.3780                 1.2956                 3.3911

                     43                     44                     45
                      A                      A                      A
 Frequencies --    951.2502               963.6248               977.5817
 Red. masses --      2.1516                 1.7057                 2.0062
 Frc consts  --      1.1471                 0.9332                 1.1296
 IR Inten    --      2.2827                35.8672                 5.1980

                     46                     47                     48
                      A                      A                      A
 Frequencies --    985.1538               997.3047              1008.6237
 Red. masses --      1.5031                 1.5664                 2.1016
 Frc consts  --      0.8595                 0.9179                 1.2596
 IR Inten    --      2.4288                20.3394                 2.9131

                     49                     50                     51
                      A                      A                      A
 Frequencies --   1017.8022              1053.2158              1061.3326
 Red. masses --      1.8639                 2.1529                 1.8700
 Frc consts  --      1.1376                 1.4071                 1.2411
 IR Inten    --     17.9647                 5.1090                 7.0344

                     52                     53                     54
                      A                      A                      A
 Frequencies --   1076.5425              1084.1118              1134.7944
 Red. masses --      1.4614                 1.6143                 2.1302
 Frc consts  --      0.9979                 1.1179                 1.6163
 IR Inten    --      1.6766                 3.2225                 5.7580

                     55                     56                     57
                      A                      A                      A
 Frequencies --   1150.8323              1169.4145              1173.7117
 Red. masses --      2.0878                 1.7376                 1.9609
 Frc consts  --      1.6292                 1.4001                 1.5916
 IR Inten    --      8.0533                26.0469                 1.6295

                     58                     59                     60
                      A                      A                      A
 Frequencies --   1189.9926              1202.8948              1210.7976
 Red. masses --      2.1283                 2.6068                 1.5038
 Frc consts  --      1.7757                 2.2224                 1.2989
 IR Inten    --      6.3814                10.6440                23.8631

                     61                     62                     63
                      A                      A                      A
 Frequencies --   1225.1841              1234.3421              1236.7692
 Red. masses --      2.0013                 1.5317                 1.6303
 Frc consts  --      1.7699                 1.3750                 1.4693
 IR Inten    --     10.4414                 6.0725                 5.5966

                     64                     65                     66
                      A                      A                      A
 Frequencies --   1253.8136              1263.3613              1279.6209
 Red. masses --      1.6402                 1.5730                 1.3791
 Frc consts  --      1.5192                 1.4792                 1.3305
 IR Inten    --      1.7427                 1.1610                15.0903

                     67                     68                     69
                      A                      A                      A
 Frequencies --   1294.9284              1321.6182              1332.5578
 Red. masses --      1.2203                 1.4797                 1.3012
 Frc consts  --      1.2056                 1.5228                 1.3613
 IR Inten    --      0.9317                 5.2434                 9.9027

                     70                     71                     72
                      A                      A                      A
 Frequencies --   1345.4455              1347.9056              1353.0554
 Red. masses --      1.2515                 1.3331                 1.4308
 Frc consts  --      1.3348                 1.4270                 1.5433
 IR Inten    --      0.9516                 3.5090                 1.5728

                     73                     74                     75
                      A                      A                      A
 Frequencies --   1366.5172              1376.7007              1385.0272
 Red. masses --      1.2770                 1.2811                 1.5035
 Frc consts  --      1.4050                 1.4306                 1.6993
 IR Inten    --      4.5403                 4.5265                16.2188

                     76                     77                     78
                      A                      A                      A
 Frequencies --   1392.6749              1396.6104              1407.9483
 Red. masses --      1.5544                 1.5409                 1.3349
 Frc consts  --      1.7763                 1.7708                 1.5590
 IR Inten    --      1.1937                 5.4661                10.4921

                     79                     80                     81
                      A                      A                      A
 Frequencies --   1415.7136              1426.9305              1432.4649
 Red. masses --      1.6055                 1.2757                 1.3350
 Frc consts  --      1.8958                 1.5304                 1.6140
 IR Inten    --     87.1034                10.5107                27.7594

                     82                     83                     84
                      A                      A                      A
 Frequencies --   1445.1527              1452.8063              1511.6292
 Red. masses --      2.1131                 1.3155                 1.0742
 Frc consts  --      2.6001                 1.6358                 1.4462
 IR Inten    --    191.9185                13.1848                 2.2280

                     85                     86                     87
                      A                      A                      A
 Frequencies --   1516.6504              1518.2183              1518.4490
 Red. masses --      1.0749                 1.0641                 1.0625
 Frc consts  --      1.4568                 1.4452                 1.4433
 IR Inten    --      0.2879                 1.4162                 0.5473

                     88                     89                     90
                      A                      A                      A
 Frequencies --   1525.4511              1525.8023              1532.0231
 Red. masses --      1.0643                 1.0747                 1.0585
 Frc consts  --      1.4592                 1.4741                 1.4637
 IR Inten    --      4.6831                 2.0390                 3.2336

                     91                     92                     93
                      A                      A                      A
 Frequencies --   1537.4374              1539.8835              1547.2780
 Red. masses --      1.0625                 1.0735                 1.0631
 Frc consts  --      1.4797                 1.4997                 1.4995
 IR Inten    --      3.3821                 9.2230                10.6249

                     94                     95                     96
                      A                      A                      A
 Frequencies --   1548.9387              1553.1346              1678.4437
 Red. masses --      1.0871                 1.0882                 2.2246
 Frc consts  --      1.5368                 1.5466                 3.6924
 IR Inten    --      6.8957                 2.3976               227.3185

                     97                     98                     99
                      A                      A                      A
 Frequencies --   1707.9766              3021.4634              3039.5805
 Red. masses --      1.7840                 1.0848                 1.0366
 Frc consts  --      3.0663                 5.8350                 5.6426
 IR Inten    --     51.5497                43.1391                22.8623

                    100                    101                    102
                      A                      A                      A
 Frequencies --   3042.0205              3049.5833              3057.9146
 Red. masses --      1.0699                 1.0408                 1.0390
 Frc consts  --      5.8336                 5.7029                 5.7242
 IR Inten    --     25.7911                31.3078                16.0497

                    103                    104                    105
                      A                      A                      A
 Frequencies --   3063.5999              3067.2964              3068.2925
 Red. masses --      1.0610                 1.0629                 1.0788
 Frc consts  --      5.8673                 5.8921                 5.9839
 IR Inten    --     26.9524                33.1674                13.6765

                    106                    107                    108
                      A                      A                      A
 Frequencies --   3069.9013              3080.3997              3084.0557
 Red. masses --      1.0702                 1.0693                 1.0623
 Frc consts  --      5.9425                 5.9783                 5.9533
 IR Inten    --     46.4691                26.5648                19.2951

                    109                    110                    111
                      A                      A                      A
 Frequencies --   3096.3786              3101.8008              3106.1716
 Red. masses --      1.1015                 1.0999                 1.0945
 Frc consts  --      6.2222                 6.2347                 6.2216
 IR Inten    --     14.5436                19.6019                32.6301

                    112                    113                    114
                      A                      A                      A
 Frequencies --   3108.8234              3114.0983              3115.6341
 Red. masses --      1.1004                 1.1049                 1.1004
 Frc consts  --      6.2662                 6.3132                 6.2937
 IR Inten    --      7.1006                36.1720                55.8293

                    115                    116                    117
                      A                      A                      A
 Frequencies --   3116.8826              3124.7103              3127.7991
 Red. masses --      1.0954                 1.0995                 1.1010
 Frc consts  --      6.2702                 6.3250                 6.3463
 IR Inten    --     20.5429                36.3580                32.1306

                    118                    119                    120
                      A                      A                      A
 Frequencies --   3131.1355              3148.2390              3157.5223
 Red. masses --      1.1022                 1.0940                 1.1013
 Frc consts  --      6.3666                 6.3887                 6.4690
 IR Inten    --     54.5581                15.1440                10.8975

                    121                    122                    123
                      A                      A                      A
 Frequencies --   3171.8782              3463.1186              3545.2688
 Red. masses --      1.0926                 1.0501                 1.0920
 Frc consts  --      6.4768                 7.4199                 8.0866
 IR Inten    --     19.2099                 2.5583                 0.4050

 - Thermochemistry -
 -------------------
 Temperature   298.150 Kelvin.  Pressure   1.00000 Atm.
 Atom     1 has atomic number  6 and mass  12.00000

 Molecular mass:   238.20451 amu.
 Principal axes and moments of inertia in atomic units:
                           1         2         3
     Eigenvalues --  2582.449894890.115365658.87441
           X            0.99994  -0.00864  -0.00705
           Y            0.00884   0.99957   0.02794
           Z            0.00680  -0.02800   0.99958
 This molecule is an asymmetric top.
 Rotational symmetry number  1.
 Warning -- assumption of classical behavior for rotation
           may cause significant error
 Rotational temperatures (Kelvin)      0.03354     0.01771     0.01531
 Rotational constants (GHZ):           0.69885     0.36906     0.31892
 Zero-point vibrational energy    1036317.1 (Joules/Mol)
                                  247.68572 (Kcal/Mol)
 Warning -- explicit consideration of  28 degrees of freedom as
           vibrations may cause significant error
 Vibrational temperatures:     46.09    63.79    89.48   124.22   142.03
          (Kelvin)            152.86   225.74   251.15   273.66   321.15
                              334.40   340.17   375.73   386.57   421.36
                              431.67   444.46   480.60   503.77   528.21
                              537.11   588.55   619.89   686.91   735.07
                              785.05   847.02   867.55   931.60  1045.29
                             1082.91  1111.67  1154.00  1181.67  1233.45
                             1257.53  1258.71  1294.54  1319.04  1332.20
                             1356.75  1363.98  1368.64  1386.44  1406.52
                             1417.42  1434.90  1451.18  1464.39  1515.34
                             1527.02  1548.90  1559.80  1632.72  1655.79
                             1682.53  1688.71  1712.13  1730.70  1742.07
                             1762.77  1775.94  1779.43  1803.96  1817.70
                             1841.09  1863.11  1901.51  1917.25  1935.80
                             1939.34  1946.74  1966.11  1980.77  1992.75
                             2003.75  2009.41  2025.72  2036.90  2053.03
                             2061.00  2079.25  2090.26  2174.90  2182.12
                             2184.38  2184.71  2194.78  2195.29  2204.24
                             2212.03  2215.55  2226.19  2228.58  2234.61
                             2414.91  2457.40  4347.21  4373.28  4376.79
                             4387.67  4399.66  4407.84  4413.16  4414.59
                             4416.90  4432.01  4437.27  4455.00  4462.80
                             4469.09  4472.90  4480.49  4482.70  4484.50
                             4495.76  4500.21  4505.01  4529.61  4542.97
                             4563.63  4982.66  5100.85

 Zero-point correction=                           0.394712 (Hartree/Particle)
 Thermal correction to Energy=                    0.412601
 Thermal correction to Enthalpy=                  0.413545
 Thermal correction to Gibbs Free Energy=         0.349530
 Sum of electronic and zero-point Energies=           -733.573462
 Sum of electronic and thermal Energies=              -733.555573
 Sum of electronic and thermal Enthalpies=            -733.554629
 Sum of electronic and thermal Free Energies=         -733.618644

                     E (Thermal)             CV                S
                      KCal/Mol        Cal/Mol-Kelvin    Cal/Mol-Kelvin
 Total                  258.911             69.875            134.731
 Electronic               0.000              0.000              0.000
 Translational            0.889              2.981             42.305
 Rotational               0.889              2.981             32.635
 Vibrational            257.134             63.914             59.790
 Vibration     1          0.594              1.983              5.699
 Vibration     2          0.595              1.980              5.055
 Vibration     3          0.597              1.972              4.386
 Vibration     4          0.601              1.959              3.741
 Vibration     5          0.604              1.950              3.480
 Vibration     6          0.605              1.944              3.336
 Vibration     7          0.621              1.895              2.587
 Vibration     8          0.627              1.874              2.386
 Vibration     9          0.634              1.853              2.226
 Vibration    10          0.649              1.806              1.933
 Vibration    11          0.653              1.791              1.860
 Vibration    12          0.655              1.785              1.830
 Vibration    13          0.669              1.744              1.654
 Vibration    14          0.673              1.731              1.605
 Vibration    15          0.688              1.687              1.457
 Vibration    16          0.693              1.674              1.417
 Vibration    17          0.698              1.657              1.368
 Vibration    18          0.716              1.608              1.241
 Vibration    19          0.727              1.575              1.166
 Vibration    20          0.740              1.540              1.092
 Vibration    21          0.745              1.527              1.066
 Vibration    22          0.773              1.451              0.930
 Vibration    23          0.792              1.403              0.856
 Vibration    24          0.834              1.300              0.717
 Vibration    25          0.866              1.226              0.631
 Vibration    26          0.901              1.149              0.553
 Vibration    27          0.946              1.056              0.469
 Vibration    28          0.961              1.025              0.445

 Optimization completed.
    -- Stationary point found.
 Normal termination of Gaussian 16 at Sun Dec 13 21:17:18 2020.

 ----------------------------------------------------------------------
 # B3LYP/6-311++G(d,p) empiricaldispersion=gd3bj scf=xqc pop=npa geom=c
 heck
 ----------------------------------------------------------------------

 --------------------------------------
 CID_82768264_JID_7485_Energie_neutraal
 --------------------------------------
 Structure from the checkpoint file:  "JID_7485.chk"
 Charge =  0 Multiplicity = 1

 SCF Done:  E(RB3LYP) =  -734.176485678     A.U. after   15 cycles
 Normal termination of Gaussian 16 at Sun Dec 13 21:28:26 2020.

 ----------------------------------------------------------------------
 # B3LYP/6-311++G(d,p) empiricaldispersion=gd3bj scf=xqc pop=npa geom=c
 heck
 ----------------------------------------------------------------------

 ------------------------------------
 CID_82768264_JID_7485_Energie_kation
 ------------------------------------
 Structure from the checkpoint file:  "JID_7485.chk"
 Charge =  1 Multiplicity = 2

 SCF Done:  E(UB3LYP) =  -733.878159333     A.U. after   27 cycles
 Normal termination of Gaussian 16 at Sun Dec 13 21:56:24 2020.
 Gaussian 16:  ES64L-G16RevA.03 25-Dec-2016

 ----------------------------------------------------------------------
 # B3LYP/6-311++G(d,p) empiricaldispersion=gd3bj scf=xqc pop=npa geom=c
 heck
 ----------------------------------------------------------------------

 -----------------------------------
 CID_82768264_JID_7485_Energie_anion
 -----------------------------------
 Structure from the checkpoint file:  "JID_7485.chk"
 Charge = -1 Multiplicity = 2

                         Standard orientation:
 ---------------------------------------------------------------------
 Center     Atomic      Atomic             Coordinates (Angstroms)
 Number     Number       Type             X           Y           Z
 ---------------------------------------------------------------------
      1          6           0       -1.986293    2.792273   -0.482280
      2          6           0       -1.461098    1.549862    0.245737
      3          6           0       -2.137237    1.358640    1.608412
      4          6           0       -1.557767    0.308429   -0.677479
      5          6           0       -3.015792   -0.099046   -1.030436
      6          6           0       -3.122002   -1.599163   -0.703881
      7          6           0       -2.080126   -1.797146    0.396646
      8          7           0       -1.000711   -0.905531   -0.042895
      9          6           0        0.263120   -1.146743    0.420127
     10          8           0        0.429066   -1.956996    1.339536
     11          6           0        1.534365   -0.596607   -0.261305
     12          6           0        1.481383    0.552692   -1.291843
     13          6           0        2.935475    1.053197   -1.373050
     14          6           0        3.517600    0.829129    0.047521
     15          6           0        2.491849   -0.030039    0.826860
     16          7           0        1.717661    0.824153    1.744071
     17          6           0        2.178016   -1.841013   -0.919526
     18          1           0       -3.060009    2.715477   -0.693053
     19          1           0       -1.468951    2.943346   -1.437896
     20          1           0       -1.833587    3.690491    0.125984
     21          1           0       -0.398636    1.702843    0.465198
     22          1           0       -3.218364    1.195526    1.526067
     23          1           0       -1.702959    0.511094    2.147628
     24          1           0       -1.988747    2.252949    2.223679
     25          1           0       -1.007973    0.523104   -1.595537
     26          1           0       -3.724841    0.468970   -0.421516
     27          1           0       -3.249224    0.118509   -2.076206
     28          1           0       -4.128048   -1.895685   -0.392385
     29          1           0       -2.847114   -2.201422   -1.576960
     30          1           0       -2.469495   -1.506510    1.381574
     31          1           0       -1.696793   -2.814666    0.481749
     32          1           0        1.092709    0.230231   -2.263675
     33          1           0        0.860425    1.369543   -0.928191
     34          1           0        2.982898    2.101926   -1.682007
     35          1           0        3.502004    0.481926   -2.115635
     36          1           0        3.670634    1.781451    0.566246
     37          1           0        4.490725    0.330424    0.004071
     38          1           0        2.984713   -0.860136    1.351228
     39          1           0        1.151636    0.218465    2.337671
     40          1           0        2.357689    1.314141    2.367571
     41          1           0        2.291072   -2.637589   -0.181407
     42          1           0        1.547792   -2.210595   -1.736639
     43          1           0        3.162310   -1.604985   -1.335104
 ---------------------------------------------------------------------

 SCF Done:  E(UB3LYP) =  -734.163298474     A.U. after   33 cycles
 SCF Done:  E(UB3LYP) =  -734.163298474     a.u. after    1 cycles

 The electronic state is 2-A.
 Alpha  occ. eigenvalues --  -18.98485 -14.23843 -14.19776 -10.16986 -10.11133
 Alpha  occ. eigenvalues --  -10.10215 -10.10068 -10.09193 -10.07590 -10.07427
 Alpha  occ. eigenvalues --  -10.07286 -10.06974 -10.06803 -10.06526 -10.06442
 Alpha  occ. eigenvalues --  -10.06201 -10.06150  -0.93818  -0.84262  -0.79994
 Alpha  occ. eigenvalues --   -0.72843  -0.70930  -0.68871  -0.65258  -0.62624
 Alpha  occ. eigenvalues --   -0.60201  -0.58996  -0.56863  -0.55117  -0.50965
 Alpha  occ. eigenvalues --   -0.48252  -0.48120  -0.46369  -0.43005  -0.40462
 Alpha  occ. eigenvalues --   -0.40374  -0.39321  -0.38877  -0.37006  -0.35302
 Alpha  occ. eigenvalues --   -0.34866  -0.33949  -0.32936  -0.32027  -0.31467
 Alpha  occ. eigenvalues --   -0.31098  -0.30530  -0.29702  -0.29195  -0.28871
 Alpha  occ. eigenvalues --   -0.28042  -0.26747  -0.26500  -0.25371  -0.25188
 Alpha  occ. eigenvalues --   -0.25073  -0.24374  -0.24164  -0.23684  -0.22808
 Alpha  occ. eigenvalues --   -0.22463  -0.22182  -0.21462  -0.15585  -0.15154
 Alpha  occ. eigenvalues --   -0.14130   0.04201
 Alpha virt. eigenvalues --    0.06115   0.06684   0.07136   0.08035   0.08246
 Alpha virt. eigenvalues --    0.08481   0.09205   0.09589   0.10142   0.10332
 Alpha virt. eigenvalues --    0.10454   0.11125   0.11176   0.11368   0.12361

  Beta  occ. eigenvalues --  -18.98483 -14.23840 -14.19762 -10.16984 -10.11128
  Beta  occ. eigenvalues --  -10.10208 -10.10063 -10.09192 -10.07569 -10.07424
  Beta  occ. eigenvalues --  -10.07257 -10.06957 -10.06785 -10.06512 -10.06425
  Beta  occ. eigenvalues --  -10.06182 -10.06124  -0.93813  -0.84249  -0.79975
  Beta  occ. eigenvalues --   -0.72820  -0.70910  -0.68845  -0.65232  -0.62593
  Beta  occ. eigenvalues --   -0.60165  -0.58951  -0.56828  -0.55083  -0.50911
  Beta  occ. eigenvalues --   -0.48210  -0.48075  -0.46335  -0.42974  -0.40436
  Beta  occ. eigenvalues --   -0.40352  -0.39288  -0.38852  -0.36980  -0.35280
  Beta  occ. eigenvalues --   -0.34846  -0.33922  -0.32911  -0.32001  -0.31439
  Beta  occ. eigenvalues --   -0.31070  -0.30507  -0.29677  -0.29171  -0.28846
  Beta  occ. eigenvalues --   -0.28015  -0.26723  -0.26471  -0.25345  -0.25155
  Beta  occ. eigenvalues --   -0.25049  -0.24339  -0.24138  -0.23659  -0.22782
  Beta  occ. eigenvalues --   -0.22438  -0.22160  -0.21440  -0.15578  -0.15136
  Beta  occ. eigenvalues --   -0.14115
  Beta virt. eigenvalues --    0.06187   0.06831   0.07213   0.07685   0.08449
  Beta virt. eigenvalues --    0.08650   0.08939   0.09503   0.09844   0.10246
  Beta virt. eigenvalues --    0.10609   0.10702   0.11365   0.11513   0.11637

 Mulliken charges and spin densities:
               1          2
     1  C   -0.114521  -0.566085
     2  C   -0.600249   0.838239
     3  C    0.223988  -0.925623
     4  C   -0.069648   0.071758
     5  C   -0.350166  -0.156258
     6  C    1.095108  -1.592931
     7  C   -0.554231   0.457904
     8  N    0.094592   0.110904
     9  C   -1.052551  -0.251890
    10  O   -0.241135   0.012725
    11  C    1.063722   0.719232
    12  C   -0.645003   0.354364
    13  C   -0.077952  -0.655793
    14  C    0.688557  -1.198538
    15  C   -1.293157   0.954040
    16  N   -0.461996  -0.005559
    17  C    1.010325  -1.489334
    18  H   -0.239734   0.386897
    19  H   -0.405678   0.548237
    20  H   -0.063323   0.214374
    21  H    0.175705   0.113217
    22  H   -0.039511   0.196720
    23  H    0.064774   0.113034
    24  H    0.038998   0.111041
    25  H    0.729150  -0.440025
    26  H    0.271273  -0.147477
    27  H   -0.654591   0.842302
    28  H   -0.260469   0.433855
    29  H    0.003833   0.140624
    30  H    0.122588   0.019365
    31  H    0.083598   0.115193
    32  H   -0.695779   0.895260
    33  H    1.026604  -0.936516
    34  H   -0.342993   0.521609
    35  H    0.069046   0.085229
    36  H    0.014843   0.093054
    37  H   -0.193443   0.347734
    38  H    0.103103   0.145118
    39  H    0.239222   0.009025
    40  H    0.046280   0.213965
    41  H    0.155556   0.009465
    42  H    0.008994   0.149770
    43  H    0.026271   0.141778
 Sum of Mulliken charges =  -1.00000   1.00000

 Dipole moment (field-independent basis, Debye):
    X=              1.1450    Y=             -1.5248    Z=              3.2157  Tot=              3.7385
 Quadrupole moment (field-independent basis, Debye-Ang):
   XX=           -176.4586   YY=           -156.1096   ZZ=           -154.8398
   XY=              1.2861   XZ=             -5.0360   YZ=              5.1186

 Summary of Natural Population Analysis:

                                       Natural Population
                Natural  -----------------------------------------------
    Atom  No    Charge         Core      Valence    Rydberg      Total
 -----------------------------------------------------------------------
      C    1   -0.28480      0.99964     2.27943    0.00573     3.28480
      C    2   -0.12892      0.99958     2.11983    0.00951     3.12892
      C    3   -0.28562      0.99964     2.28027    0.00571     3.28562
      C    4   -0.00013      0.99956     1.98603    0.01454     3.00013
      C    5   -0.19325      0.99962     2.18512    0.00851     3.19325
      C    6   -0.19239      0.99963     2.18486    0.00791     3.19239
      C    7   -0.08148      0.99962     2.07156    0.01031     3.08148
      N    8   -0.26042      0.99963     2.74892    0.01188     3.76042
      C    9    0.36253      0.99956     1.61398    0.02393     2.63747
      O   10   -0.34129      0.99988     3.33661    0.00479     4.34129
      C   11   -0.07215      0.99950     2.05816    0.01448     3.07215
      C   12   -0.19546      0.99960     2.18596    0.00991     3.19546
      C   13   -0.18920      0.99964     2.18149    0.00807     3.18920
      C   14   -0.19540      0.99962     2.18738    0.00839     3.19540
      C   15   -0.00521      0.99956     1.99258    0.01307     3.00521
      N   16   -0.42770      0.99976     2.91809    0.00986     3.92770
      C   17   -0.28229      0.99962     2.27534    0.00733     3.28229
      H   18    0.09738      0.00000     0.40154    0.00108     0.40262
      H   19    0.10143      0.00000     0.39731    0.00125     0.39857
      H   20    0.10002      0.00000     0.39917    0.00081     0.39998
      H   21    0.11083      0.00000     0.38606    0.00311     0.38917
      H   22    0.09484      0.00000     0.40418    0.00098     0.40516
      H   23    0.10141      0.00000     0.39743    0.00117     0.39859
      H   24    0.10076      0.00000     0.39853    0.00070     0.39924
      H   25    0.10601      0.00000     0.39128    0.00271     0.39399
      H   26    0.09848      0.00000     0.39991    0.00160     0.40152
      H   27    0.10707      0.00000     0.39123    0.00170     0.39293
      H   28    0.10049      0.00000     0.39862    0.00088     0.39951
      H   29    0.09842      0.00000     0.40023    0.00135     0.40158
      H   30    0.09105      0.00000     0.40775    0.00120     0.40895
      H   31    0.10710      0.00000     0.39193    0.00097     0.39290
      H   32    0.10310      0.00000     0.39540    0.00150     0.39690
      H   33    0.10421      0.00000     0.39276    0.00303     0.39579
      H   34    0.10071      0.00000     0.39827    0.00102     0.39929
      H   35    0.09516      0.00000     0.40356    0.00128     0.40484
      H   36    0.10008      0.00000     0.39878    0.00114     0.39992
      H   37    0.10024      0.00000     0.39872    0.00104     0.39976
      H   38    0.08876      0.00000     0.40983    0.00141     0.41124
      H   39    0.18130      0.00000     0.31704    0.00166     0.31870
      H   40    0.17381      0.00000     0.32467    0.00152     0.32619
      H   41    0.10914      0.00000     0.38988    0.00098     0.39086
      H   42    0.10147      0.00000     0.39760    0.00093     0.39853
      H   43    0.09990      0.00000     0.39917    0.00092     0.40010
 =======================================================================
   * Total *    0.00000     16.99366    48.79648    0.20987    66.00000

 Normal termination of Gaussian 16 at Sun Dec 13 22:29:09 2020.
