 Gaussian 16, Revision A.03,

 -----------------------------------------------------------
 # opt freq B3LYP/6-31G(d) empiricaldispersion=gd3bj scf=xqc
 -----------------------------------------------------------

 -------------------------------
 CID_146389140_JID_3724_neutraal
 -------------------------------
 Symbolic Z-matrix:
 Charge =  0 Multiplicity = 1

 SCF Done:  E(RB3LYP) =  -631.171981814     A.U. after   14 cycles
 SCF Done:  E(RB3LYP) =  -631.178690685     A.U. after   13 cycles
 SCF Done:  E(RB3LYP) =  -631.180320970     A.U. after   12 cycles
 SCF Done:  E(RB3LYP) =  -631.181471251     A.U. after   12 cycles
 SCF Done:  E(RB3LYP) =  -631.182165799     A.U. after   12 cycles
 SCF Done:  E(RB3LYP) =  -631.182329212     A.U. after   11 cycles
 SCF Done:  E(RB3LYP) =  -631.182379595     A.U. after   11 cycles
 SCF Done:  E(RB3LYP) =  -631.182392967     A.U. after   10 cycles
 SCF Done:  E(RB3LYP) =  -631.182394803     A.U. after    8 cycles
 SCF Done:  E(RB3LYP) =  -631.182395206     A.U. after    7 cycles
 SCF Done:  E(RB3LYP) =  -631.182395486     A.U. after    7 cycles
 SCF Done:  E(RB3LYP) =  -631.182395701     A.U. after    8 cycles
 SCF Done:  E(RB3LYP) =  -631.182395791     A.U. after    7 cycles
 SCF Done:  E(RB3LYP) =  -631.182395814     A.U. after    6 cycles
 Optimization completed.
    -- Stationary point found.
 Normal termination of Gaussian 16 at Mon Dec 14 13:12:12 2020.

 --------------------------------------------------------------------
 #N Geom=AllCheck Guess=TCheck SCRF=Check GenChk RB3LYP/6-31G(d) Freq
 --------------------------------------------------------------------

 Structure from the checkpoint file:  "JID_3724.chk"
 -------------------------------
 CID_146389140_JID_3724_neutraal
 -------------------------------
 Charge =  0 Multiplicity = 1

 SCF Done:  E(RB3LYP) =  -631.182395814     A.U. after    1 cycles

  Exact polarizability: 107.181   5.381 111.320   0.871   6.766  84.655
 Approx polarizability: 137.599   7.087 166.151  -1.583  16.553 134.565

                      1                      2                      3
                      A                      A                      A
 Frequencies --     58.6971                61.2974                83.0857
 Red. masses --      4.2373                 3.7135                 3.3218
 Frc consts  --      0.0086                 0.0082                 0.0135
 IR Inten    --      1.2283                 1.9185                 1.5221

                      4                      5                      6
                      A                      A                      A
 Frequencies --     94.4604               156.0732               194.4970
 Red. masses --      4.0325                 6.6811                 3.1079
 Frc consts  --      0.0212                 0.0959                 0.0693
 IR Inten    --      4.1622                 2.5758                 3.6953

                      7                      8                      9
                      A                      A                      A
 Frequencies --    220.9394               231.8621               275.1370
 Red. masses --      2.6620                 5.3719                 2.0170
 Frc consts  --      0.0766                 0.1702                 0.0900
 IR Inten    --      2.2938                 4.5903                 0.2819

                     10                     11                     12
                      A                      A                      A
 Frequencies --    364.1212               387.6933               442.0402
 Red. masses --      6.5017                 3.1575                 5.2560
 Frc consts  --      0.5079                 0.2796                 0.6051
 IR Inten    --      3.9207                 7.4525                 4.3680

                     13                     14                     15
                      A                      A                      A
 Frequencies --    536.5531               629.0067               673.0094
 Red. masses --      2.5542                 2.2375                 3.2528
 Frc consts  --      0.4332                 0.5216                 0.8681
 IR Inten    --      2.0901                 3.2022                 5.4044

                     16                     17                     18
                      A                      A                      A
 Frequencies --    712.7073               753.0630               769.4085
 Red. masses --      6.4664                 5.1214                 3.4586
 Frc consts  --      1.9352                 1.7112                 1.2063
 IR Inten    --     12.8934                18.8436                 5.2390

                     19                     20                     21
                      A                      A                      A
 Frequencies --    810.0933               857.0753               891.2334
 Red. masses --      3.8507                 8.1756                 2.1401
 Frc consts  --      1.4889                 3.5384                 1.0015
 IR Inten    --     12.8520                12.8313                 3.4499

                     22                     23                     24
                      A                      A                      A
 Frequencies --    896.2909               898.9797               931.8136
 Red. masses --      2.1658                 2.1613                 3.8748
 Frc consts  --      1.0251                 1.0291                 1.9822
 IR Inten    --     14.2550                37.4703                 9.5431

                     25                     26                     27
                      A                      A                      A
 Frequencies --    945.2508               951.1777               964.0816
 Red. masses --      2.9192                 1.9511                 3.8008
 Frc consts  --      1.5368                 1.0401                 2.0814
 IR Inten    --     18.6714                 4.2239                19.0011

                     28                     29                     30
                      A                      A                      A
 Frequencies --    991.2901              1011.4125              1024.0309
 Red. masses --      1.9739                 3.0265                 2.3955
 Frc consts  --      1.1428                 1.8241                 1.4800
 IR Inten    --      3.0719               104.2422                 2.5774

                     31                     32                     33
                      A                      A                      A
 Frequencies --   1037.8572              1053.3908              1101.1723
 Red. masses --      2.5758                 2.3519                 1.1996
 Frc consts  --      1.6347                 1.5376                 0.8570
 IR Inten    --     10.4509                 8.0344                10.5999

                     34                     35                     36
                      A                      A                      A
 Frequencies --   1121.5119              1125.0356              1141.0564
 Red. masses --      2.5059                 3.0479                 1.7150
 Frc consts  --      1.8571                 2.2729                 1.3156
 IR Inten    --     74.9353                67.0104                 7.0345

                     37                     38                     39
                      A                      A                      A
 Frequencies --   1161.0492              1177.7137              1204.5473
 Red. masses --      1.3413                 1.3545                 1.2424
 Frc consts  --      1.0653                 1.1069                 1.0621
 IR Inten    --      0.9219                 0.0927                 0.1322

                     40                     41                     42
                      A                      A                      A
 Frequencies --   1217.8349              1229.5721              1269.3358
 Red. masses --      1.1909                 1.4417                 2.0915
 Frc consts  --      1.0407                 1.2842                 1.9854
 IR Inten    --      8.6246                 9.0345                15.0188

                     43                     44                     45
                      A                      A                      A
 Frequencies --   1272.3391              1294.5825              1317.9174
 Red. masses --      1.2073                 1.4318                 1.3505
 Frc consts  --      1.1515                 1.4138                 1.3821
 IR Inten    --      3.2051                21.8448                16.7492

                     46                     47                     48
                      A                      A                      A
 Frequencies --   1334.9286              1339.9527              1362.2416
 Red. masses --      1.4272                 1.3601                 1.6365
 Frc consts  --      1.4985                 1.4388                 1.7893
 IR Inten    --     13.9994                 4.1167                34.6659

                     49                     50                     51
                      A                      A                      A
 Frequencies --   1380.6577              1389.4256              1414.5854
 Red. masses --      1.3334                 1.5127                 1.5137
 Frc consts  --      1.4975                 1.7206                 1.7847
 IR Inten    --      6.8101                 6.1165                20.6447

                     52                     53                     54
                      A                      A                      A
 Frequencies --   1416.9011              1445.6862              1522.5336
 Red. masses --      1.4042                 2.6016                 1.0896
 Frc consts  --      1.6610                 3.2036                 1.4881
 IR Inten    --      3.4163                23.3499                 5.3238

                     55                     56                     57
                      A                      A                      A
 Frequencies --   1528.6949              1534.3038              1541.8206
 Red. masses --      1.0952                 1.1025                 1.2604
 Frc consts  --      1.5079                 1.5292                 1.7654
 IR Inten    --      1.2291                 6.3138                 3.2996

                     58                     59                     60
                      A                      A                      A
 Frequencies --   1557.8547              1743.9405              3002.3839
 Red. masses --      1.1003                 9.2516                 1.0737
 Frc consts  --      1.5733                16.5779                 5.7024
 IR Inten    --      0.8732               102.3654                87.9059

                     61                     62                     63
                      A                      A                      A
 Frequencies --   3008.9561              3058.1936              3073.9572
 Red. masses --      1.0832                 1.0590                 1.0670
 Frc consts  --      5.7780                 5.8357                 5.9405
 IR Inten    --     52.5829                40.2401                31.7762

                     64                     65                     66
                      A                      A                      A
 Frequencies --   3088.7549              3090.0659              3100.8008
 Red. masses --      1.1070                 1.0648                 1.0915
 Frc consts  --      6.2223                 5.9906                 6.1833
 IR Inten    --     20.2551                26.3310                36.7667

                     67                     68                     69
                      A                      A                      A
 Frequencies --   3116.8456              3120.9778              3129.6177
 Red. masses --      1.0885                 1.0508                 1.0996
 Frc consts  --      6.2304                 6.0307                 6.3452
 IR Inten    --     30.0079                26.5182                10.0838

                     70                     71                     72
                      A                      A                      A
 Frequencies --   3148.8953              3183.6691              3216.5605
 Red. masses --      1.1049                 1.0911                 1.1204
 Frc consts  --      6.4549                 6.5155                 6.8300
 IR Inten    --     17.0802                 8.1971                18.7811

 - Thermochemistry -
 -------------------
 Temperature   298.150 Kelvin.  Pressure   1.00000 Atm.
 Atom     1 has atomic number  6 and mass  12.00000

 Molecular mass:   183.08954 amu.
 Principal axes and moments of inertia in atomic units:
                           1         2         3
     Eigenvalues --  1467.647942632.283513415.94943
           X            0.99983  -0.00222   0.01817
           Y            0.00214   0.99999   0.00430
           Z           -0.01818  -0.00426   0.99983
 This molecule is an asymmetric top.
 Rotational symmetry number  1.
 Warning -- assumption of classical behavior for rotation
           may cause significant error
 Rotational temperatures (Kelvin)      0.05902     0.03290     0.02536
 Rotational constants (GHZ):           1.22968     0.68562     0.52833
 Zero-point vibrational energy     576567.2 (Joules/Mol)
                                  137.80286 (Kcal/Mol)
 Warning -- explicit consideration of  13 degrees of freedom as
           vibrations may cause significant error
 Vibrational temperatures:     84.45    88.19   119.54   135.91   224.55
          (Kelvin)            279.84   317.88   333.60   395.86   523.89
                              557.80   636.00   771.98   905.00   968.31
                             1025.43  1083.49  1107.01  1165.54  1233.14
                             1282.29  1289.56  1293.43  1340.67  1360.01
                             1368.53  1387.10  1426.25  1455.20  1473.35
                             1493.25  1515.59  1584.34  1613.61  1618.68
                             1641.73  1670.49  1694.47  1733.07  1752.19
                             1769.08  1826.29  1830.61  1862.62  1896.19
                             1920.66  1927.89  1959.96  1986.46  1999.07
                             2035.27  2038.60  2080.02  2190.59  2199.45
                             2207.52  2218.34  2241.41  2509.14  4319.76
                             4329.22  4400.06  4422.74  4444.03  4445.92
                             4461.36  4484.45  4490.39  4502.82  4530.56
                             4580.59  4627.91

 Zero-point correction=                           0.219603 (Hartree/Particle)
 Thermal correction to Energy=                    0.230928
 Thermal correction to Enthalpy=                  0.231872
 Thermal correction to Gibbs Free Energy=         0.181318
 Sum of electronic and zero-point Energies=           -630.962793
 Sum of electronic and thermal Energies=              -630.951468
 Sum of electronic and thermal Enthalpies=            -630.950523
 Sum of electronic and thermal Free Energies=         -631.001078

                     E (Thermal)             CV                S
                      KCal/Mol        Cal/Mol-Kelvin    Cal/Mol-Kelvin
 Total                  144.910             42.751            106.400
 Electronic               0.000              0.000              0.000
 Translational            0.889              2.981             41.521
 Rotational               0.889              2.981             30.957
 Vibrational            143.132             36.789             33.922
 Vibration     1          0.596              1.974              4.501
 Vibration     2          0.597              1.973              4.415
 Vibration     3          0.600              1.961              3.817
 Vibration     4          0.603              1.953              3.566
 Vibration     5          0.620              1.896              2.597
 Vibration     6          0.635              1.848              2.185
 Vibration     7          0.648              1.809              1.951
 Vibration     8          0.653              1.792              1.864
 Vibration     9          0.677              1.719              1.564
 Vibration    10          0.738              1.546              1.104
 Vibration    11          0.756              1.496              1.009
 Vibration    12          0.802              1.378              0.820
 Vibration    13          0.892              1.169              0.573

 Optimization completed.
    -- Stationary point found.
 Normal termination of Gaussian 16 at Mon Dec 14 13:19:05 2020.

 ----------------------------------------------------------------------
 # B3LYP/6-311++G(d,p) empiricaldispersion=gd3bj scf=xqc pop=npa geom=c
 heck
 ----------------------------------------------------------------------

 ---------------------------------------
 CID_146389140_JID_3724_Energie_neutraal
 ---------------------------------------
 Structure from the checkpoint file:  "JID_3724.chk"
 Charge =  0 Multiplicity = 1

 SCF Done:  E(RB3LYP) =  -631.358915680     A.U. after   14 cycles
 Normal termination of Gaussian 16 at Mon Dec 14 13:21:52 2020.

 ----------------------------------------------------------------------
 # B3LYP/6-311++G(d,p) empiricaldispersion=gd3bj scf=xqc pop=npa geom=c
 heck
 ----------------------------------------------------------------------

 -------------------------------------
 CID_146389140_JID_3724_Energie_kation
 -------------------------------------
 Structure from the checkpoint file:  "JID_3724.chk"
 Charge =  1 Multiplicity = 2

 SCF Done:  E(UB3LYP) =  -631.037839195     A.U. after   23 cycles
 Normal termination of Gaussian 16 at Mon Dec 14 13:28:16 2020.
 Gaussian 16:  ES64L-G16RevA.03 25-Dec-2016

 ----------------------------------------------------------------------
 # B3LYP/6-311++G(d,p) empiricaldispersion=gd3bj scf=xqc pop=npa geom=c
 heck
 ----------------------------------------------------------------------

 ------------------------------------
 CID_146389140_JID_3724_Energie_anion
 ------------------------------------
 Structure from the checkpoint file:  "JID_3724.chk"
 Charge = -1 Multiplicity = 2

                         Standard orientation:
 ---------------------------------------------------------------------
 Center     Atomic      Atomic             Coordinates (Angstroms)
 Number     Number       Type             X           Y           Z
 ---------------------------------------------------------------------
      1          6           0        1.506773   -1.516990    0.828737
      2          6           0        1.584663   -0.046213    1.265638
      3          6           0        1.830069    0.696220   -0.065633
      4          8           0        2.400106   -0.255397   -0.965809
      5          6           0        2.491473   -1.540396   -0.341004
      6          6           0        0.576343    1.286708   -0.707601
      7          6           0       -0.105385    2.403397    0.125978
      8          7           0       -1.358754    1.807169    0.617939
      9          6           0       -1.445823    0.667113    0.054454
     10          8           0       -0.460673    0.266301   -0.793615
     11          6           0       -2.554356   -0.291557    0.258583
     12          6           0       -2.858881   -1.324828   -0.747207
     13          8           0       -2.174900   -1.663410    0.460554
     14          1           0        1.787759   -2.211797    1.625979
     15          1           0        0.496064   -1.759974    0.492835
     16          1           0        2.437097    0.111410    1.935106
     17          1           0        0.685758    0.295052    1.785347
     18          1           0        2.539270    1.527780    0.066820
     19          1           0        3.521817   -1.706702    0.010435
     20          1           0        2.258849   -2.298156   -1.095656
     21          1           0        0.809845    1.584946   -1.732144
     22          1           0        0.513282    2.721693    0.973319
     23          1           0       -0.331054    3.296754   -0.467440
     24          1           0       -3.336772    0.078093    0.916954
     25          1           0       -3.880532   -1.695070   -0.826743
     26          1           0       -2.255630   -1.374893   -1.651099
 ---------------------------------------------------------------------

 SCF Done:  E(UB3LYP) =  -631.343851808     A.U. after   32 cycles

 The electronic state is 2-A.
 Alpha  occ. eigenvalues --  -19.06098 -19.05307 -19.02048 -14.20296 -10.16642
 Alpha  occ. eigenvalues --  -10.14755 -10.13449 -10.13156 -10.12391 -10.11464
 Alpha  occ. eigenvalues --  -10.10380 -10.07241 -10.06704  -1.00400  -0.98545
 Alpha  occ. eigenvalues --   -0.93741  -0.81164  -0.70326  -0.68155  -0.63901
 Alpha  occ. eigenvalues --   -0.59230  -0.56208  -0.54414  -0.49964  -0.49419
 Alpha  occ. eigenvalues --   -0.45460  -0.42469  -0.42005  -0.41090  -0.39570
 Alpha  occ. eigenvalues --   -0.37141  -0.34865  -0.34830  -0.33657  -0.31894
 Alpha  occ. eigenvalues --   -0.31726  -0.30370  -0.29617  -0.28867  -0.26005
 Alpha  occ. eigenvalues --   -0.25772  -0.24956  -0.24186  -0.22478  -0.21943
 Alpha  occ. eigenvalues --   -0.19541  -0.18853  -0.16430  -0.14838   0.04473
 Alpha virt. eigenvalues --    0.06134   0.07064   0.08093   0.08771   0.09048
 Alpha virt. eigenvalues --    0.09599   0.10032   0.10134   0.10638   0.11854
 Alpha virt. eigenvalues --    0.12334   0.12626   0.13945   0.14605   0.15092

  Beta  occ. eigenvalues --  -19.06090 -19.05291 -19.02046 -14.20266 -10.16622
  Beta  occ. eigenvalues --  -10.14752 -10.13400 -10.13145 -10.12378 -10.11450
  Beta  occ. eigenvalues --  -10.10357 -10.07219 -10.06698  -1.00367  -0.98513
  Beta  occ. eigenvalues --   -0.93731  -0.81109  -0.70282  -0.68128  -0.63857
  Beta  occ. eigenvalues --   -0.59173  -0.56139  -0.54360  -0.49925  -0.49381
  Beta  occ. eigenvalues --   -0.45418  -0.42434  -0.41954  -0.41036  -0.39532
  Beta  occ. eigenvalues --   -0.37098  -0.34825  -0.34791  -0.33618  -0.31840
  Beta  occ. eigenvalues --   -0.31686  -0.30333  -0.29579  -0.28810  -0.25978
  Beta  occ. eigenvalues --   -0.25747  -0.24918  -0.24146  -0.22447  -0.21903
  Beta  occ. eigenvalues --   -0.19512  -0.18812  -0.16359  -0.14781
  Beta virt. eigenvalues --    0.06849   0.07486   0.07998   0.08492   0.09116
  Beta virt. eigenvalues --    0.09711   0.09965   0.10414   0.10607   0.10924
  Beta virt. eigenvalues --    0.12326   0.12656   0.12926   0.14158   0.14806

 Mulliken charges and spin densities:
               1          2
     1  C   -0.161340  -0.303786
     2  C    0.393353  -0.421042
     3  C   -0.943399   0.178260
     4  O   -0.096880  -0.008143
     5  C    0.455282  -0.690429
     6  C    0.559988   0.104815
     7  C    1.210613  -1.797460
     8  N   -0.113744   0.131008
     9  C    1.675895  -1.684200
    10  O   -0.051807   0.001087
    11  C   -2.664704   2.287509
    12  C    1.339081  -1.700589
    13  O   -0.140036   0.012290
    14  H   -0.055957   0.202094
    15  H    0.416727  -0.221908
    16  H   -0.456962   0.655564
    17  H    0.074321   0.081915
    18  H   -0.655845   0.866754
    19  H   -0.101508   0.232841
    20  H   -0.043149   0.191014
    21  H   -0.123302   0.412777
    22  H   -0.044568   0.243537
    23  H   -0.362593   0.529747
    24  H   -0.225286   0.467346
    25  H   -0.722662   0.889974
    26  H   -0.161521   0.339025
 Sum of Mulliken charges =  -1.00000   1.00000

 Dipole moment (field-independent basis, Debye):
    X=              0.4457    Y=             -1.8695    Z=              0.4940  Tot=              1.9843
 Quadrupole moment (field-independent basis, Debye-Ang):
   XX=           -148.7820   YY=           -122.0515   ZZ=           -110.5773
   XY=            -10.5407   XZ=             -7.4802   YZ=             -1.0023

 Summary of Natural Population Analysis:

                                       Natural Population
                Natural  -----------------------------------------------
    Atom  No    Charge         Core      Valence    Rydberg      Total
 -----------------------------------------------------------------------
      C    1   -0.21029      0.99963     2.20295    0.00770     3.21029
      C    2   -0.20751      0.99962     2.19875    0.00914     3.20751
      C    3    0.05935      0.99953     1.92470    0.01642     2.94065
      O    4   -0.30491      0.99989     3.29624    0.00878     4.30491
      C    5   -0.00670      0.99959     1.99542    0.01168     3.00670
      C    6    0.04915      0.99952     1.93623    0.01510     2.95085
      C    7   -0.11388      0.99960     2.10267    0.01160     3.11388
      N    8   -0.25151      0.99968     2.74215    0.00969     3.75151
      C    9    0.27213      0.99954     1.70728    0.02105     2.72787
      O   10   -0.28134      0.99987     3.27223    0.00925     4.28134
      C   11    0.01460      0.99952     1.96965    0.01623     2.98540
      C   12   -0.02098      0.99960     2.01023    0.01116     3.02098
      O   13   -0.26993      0.99992     3.26263    0.00738     4.26993
      H   14    0.09993      0.00000     0.39914    0.00093     0.40007
      H   15    0.11112      0.00000     0.38697    0.00191     0.38888
      H   16    0.10323      0.00000     0.39481    0.00195     0.39677
      H   17    0.10771      0.00000     0.39100    0.00129     0.39229
      H   18    0.09326      0.00000     0.40354    0.00319     0.40674
      H   19    0.07717      0.00000     0.42140    0.00143     0.42283
      H   20    0.08765      0.00000     0.41133    0.00102     0.41235
      H   21    0.09974      0.00000     0.39851    0.00175     0.40026
      H   22    0.09947      0.00000     0.39910    0.00143     0.40053
      H   23    0.10224      0.00000     0.39561    0.00215     0.39776
      H   24    0.10319      0.00000     0.39551    0.00130     0.39681
      H   25    0.09147      0.00000     0.40506    0.00347     0.40853
      H   26    0.09563      0.00000     0.40292    0.00145     0.40437
 =======================================================================
   * Total *   -0.00000     12.99551    35.82604    0.17845    49.00000

 Normal termination of Gaussian 16 at Mon Dec 14 13:37:10 2020.
