 Gaussian 16, Revision A.03,

 -----------------------------------------------------------
 # opt freq B3LYP/6-31G(d) empiricaldispersion=gd3bj scf=xqc
 -----------------------------------------------------------

 -------------------------------
 CID_117156107_JID_6506_neutraal
 -------------------------------
 Symbolic Z-matrix:
 Charge =  0 Multiplicity = 1

 SCF Done:  E(RB3LYP) =  -724.275706003     A.U. after   14 cycles
 SCF Done:  E(RB3LYP) =  -724.280317419     A.U. after   11 cycles
 SCF Done:  E(RB3LYP) =  -724.280853918     A.U. after   11 cycles
 SCF Done:  E(RB3LYP) =  -724.280997271     A.U. after   10 cycles
 SCF Done:  E(RB3LYP) =  -724.281056749     A.U. after   10 cycles
 SCF Done:  E(RB3LYP) =  -724.281083372     A.U. after   10 cycles
 SCF Done:  E(RB3LYP) =  -724.281127179     A.U. after   10 cycles
 SCF Done:  E(RB3LYP) =  -724.281186231     A.U. after   11 cycles
 SCF Done:  E(RB3LYP) =  -724.281213573     A.U. after   10 cycles
 SCF Done:  E(RB3LYP) =  -724.281258933     A.U. after   10 cycles
 SCF Done:  E(RB3LYP) =  -724.281452910     A.U. after    9 cycles
 SCF Done:  E(RB3LYP) =  -724.281453962     A.U. after    9 cycles
 SCF Done:  E(RB3LYP) =  -724.281454388     A.U. after    9 cycles
 SCF Done:  E(RB3LYP) =  -724.281454602     A.U. after    7 cycles
 SCF Done:  E(RB3LYP) =  -724.281454656     A.U. after    7 cycles
 SCF Done:  E(RB3LYP) =  -724.281454661     A.U. after    6 cycles
 Optimization completed.
    -- Stationary point found.
 Normal termination of Gaussian 16 at Thu Dec 10 23:25:55 2020.

 --------------------------------------------------------------------
 #N Geom=AllCheck Guess=TCheck SCRF=Check GenChk RB3LYP/6-31G(d) Freq
 --------------------------------------------------------------------

 Structure from the checkpoint file:  "JID_6506.chk"
 -------------------------------
 CID_117156107_JID_6506_neutraal
 -------------------------------
 Charge =  0 Multiplicity = 1

 SCF Done:  E(RB3LYP) =  -724.281454661     A.U. after    1 cycles

  Exact polarizability: 180.560   3.093 130.231   0.013   1.793 102.090
 Approx polarizability: 213.077   5.689 208.117   5.250   7.136 160.939

                      1                      2                      3
                      A                      A                      A
 Frequencies --     17.2063                27.6787                45.8967
 Red. masses --      3.0651                 3.5015                 3.3654
 Frc consts  --      0.0005                 0.0016                 0.0042
 IR Inten    --      0.9214                 0.7790                 0.0948

                      4                      5                      6
                      A                      A                      A
 Frequencies --     95.1158               109.7154               136.3305
 Red. masses --      4.8267                 3.1574                 3.6685
 Frc consts  --      0.0257                 0.0224                 0.0402
 IR Inten    --      0.8049                 4.2724                 8.2421

                      7                      8                      9
                      A                      A                      A
 Frequencies --    162.4834               192.9782               244.7049
 Red. masses --      2.7250                 4.1765                 2.0398
 Frc consts  --      0.0424                 0.0916                 0.0720
 IR Inten    --      2.2059                 1.3624                 5.8686

                     10                     11                     12
                      A                      A                      A
 Frequencies --    246.9532               285.6302               293.7681
 Red. masses --      4.1322                 2.1924                 1.2019
 Frc consts  --      0.1485                 0.1054                 0.0611
 IR Inten    --      1.2373                11.8968               144.5279

                     13                     14                     15
                      A                      A                      A
 Frequencies --    296.6525               347.4705               380.5509
 Red. masses --      2.6617                 3.7680                 4.5945
 Frc consts  --      0.1380                 0.2680                 0.3920
 IR Inten    --      2.9184                 1.4207                 2.8900

                     16                     17                     18
                      A                      A                      A
 Frequencies --    416.0708               492.7460               499.9370
 Red. masses --      2.1284                 5.0393                 3.7234
 Frc consts  --      0.2171                 0.7209                 0.5483
 IR Inten    --      0.3512                 5.7252                 3.7698

                     19                     20                     21
                      A                      A                      A
 Frequencies --    543.7193               593.1710               615.2169
 Red. masses --      2.6504                 2.9465                 2.8845
 Frc consts  --      0.4616                 0.6108                 0.6432
 IR Inten    --      5.4627                21.4706                20.0365

                     22                     23                     24
                      A                      A                      A
 Frequencies --    668.9183               692.9204               723.2480
 Red. masses --      5.5904                 3.0726                 3.4724
 Frc consts  --      1.4738                 0.8692                 1.0702
 IR Inten    --      0.9875                13.4043                 9.3045

                     25                     26                     27
                      A                      A                      A
 Frequencies --    770.2539               786.5544               815.2420
 Red. masses --      4.6379                 2.5703                 1.9422
 Frc consts  --      1.6212                 0.9369                 0.7605
 IR Inten    --      3.4802                23.4325                 3.8889

                     28                     29                     30
                      A                      A                      A
 Frequencies --    875.9077               889.4705               894.4829
 Red. masses --      2.2390                 1.5853                 1.9394
 Frc consts  --      1.0121                 0.7389                 0.9142
 IR Inten    --     15.7282                22.2096                40.8242

                     31                     32                     33
                      A                      A                      A
 Frequencies --    934.1316               942.5734               947.3432
 Red. masses --      3.5610                 2.0150                 2.2508
 Frc consts  --      1.8308                 1.0548                 1.1901
 IR Inten    --      3.2191                 0.9041                 1.8908

                     34                     35                     36
                      A                      A                      A
 Frequencies --    971.0123              1004.6829              1016.8744
 Red. masses --      1.3960                 2.0448                 2.2076
 Frc consts  --      0.7755                 1.2161                 1.3450
 IR Inten    --      7.6806                 2.5850                 1.0591

                     37                     38                     39
                      A                      A                      A
 Frequencies --   1034.7466              1058.0455              1065.1367
 Red. masses --      1.5916                 4.3592                 4.3933
 Frc consts  --      1.0041                 2.8752                 2.9367
 IR Inten    --      7.0488                22.3057                34.0601

                     40                     41                     42
                      A                      A                      A
 Frequencies --   1090.2052              1098.5012              1110.9108
 Red. masses --      2.7065                 2.0065                 2.6262
 Frc consts  --      1.8953                 1.4266                 1.9096
 IR Inten    --    101.6262                 8.2042                 1.1258

                     43                     44                     45
                      A                      A                      A
 Frequencies --   1118.0892              1132.6415              1141.3537
 Red. masses --      1.9523                 2.7187                 2.5792
 Frc consts  --      1.4380                 2.0550                 1.9796
 IR Inten    --      0.4710                 4.9270                10.5617

                     46                     47                     48
                      A                      A                      A
 Frequencies --   1178.0904              1200.2714              1210.7143
 Red. masses --      2.3504                 1.4058                 1.1969
 Frc consts  --      1.9220                 1.1932                 1.0337
 IR Inten    --      9.2620                 1.6910                 0.3467

                     49                     50                     51
                      A                      A                      A
 Frequencies --   1217.8975              1222.6491              1254.1044
 Red. masses --      1.3763                 1.2369                 1.3718
 Frc consts  --      1.2028                 1.0894                 1.2712
 IR Inten    --     11.6952                 2.7121                 2.6452

                     52                     53                     54
                      A                      A                      A
 Frequencies --   1263.2934              1290.3661              1291.1353
 Red. masses --      2.1383                 1.4137                 1.2931
 Frc consts  --      2.0106                 1.3869                 1.2701
 IR Inten    --     19.9085                27.9991                13.6095

                     55                     56                     57
                      A                      A                      A
 Frequencies --   1300.1911              1307.5276              1322.9792
 Red. masses --      1.3022                 2.0387                 1.2356
 Frc consts  --      1.2970                 2.0536                 1.2741
 IR Inten    --      7.6061                 2.0544                 5.2646

                     58                     59                     60
                      A                      A                      A
 Frequencies --   1325.1096              1342.2433              1351.6133
 Red. masses --      1.5494                 1.3046                 1.3792
 Frc consts  --      1.6030                 1.3848                 1.4846
 IR Inten    --     40.7609                 5.3016                 5.7587

                     61                     62                     63
                      A                      A                      A
 Frequencies --   1384.1609              1390.2527              1407.8682
 Red. masses --      1.4138                 2.4858                 2.0286
 Frc consts  --      1.5959                 2.8308                 2.3690
 IR Inten    --      3.8579                30.5324                12.2732

                     64                     65                     66
                      A                      A                      A
 Frequencies --   1410.7068              1420.9074              1423.3980
 Red. masses --      1.2369                 1.5027                 1.5760
 Frc consts  --      1.4503                 1.7875                 1.8813
 IR Inten    --     15.2342                 3.4275                 9.6921

                     67                     68                     69
                      A                      A                      A
 Frequencies --   1438.0111              1455.4390              1487.2466
 Red. masses --      1.3167                 1.4022                 2.2670
 Frc consts  --      1.6042                 1.7500                 2.9544
 IR Inten    --     33.7503                 3.4081                15.8001

                     70                     71                     72
                      A                      A                      A
 Frequencies --   1510.8193              1519.8883              1526.7097
 Red. masses --      1.4010                 1.1165                 1.1108
 Frc consts  --      1.8842                 1.5195                 1.5255
 IR Inten    --      5.8287                 4.3584                 1.7126

                     73                     74                     75
                      A                      A                      A
 Frequencies --   1530.2092              1533.9706              1540.2862
 Red. masses --      1.0971                 1.9143                 1.0924
 Frc consts  --      1.5136                 2.6540                 1.5270
 IR Inten    --      3.9131                34.3443                 1.6108

                     76                     77                     78
                      A                      A                      A
 Frequencies --   1555.1911              1558.5207              1572.2245
 Red. masses --      1.2456                 1.6753                 6.5624
 Frc consts  --      1.7750                 2.3976                 9.5574
 IR Inten    --     21.0980                26.1333                61.6529

                     79                     80                     81
                      A                      A                      A
 Frequencies --   2939.2612              2986.4097              2991.5113
 Red. masses --      1.0743                 1.0718                 1.0707
 Frc consts  --      5.4681                 5.6318                 5.6456
 IR Inten    --     85.8110                51.4785                40.7340

                     82                     83                     84
                      A                      A                      A
 Frequencies --   3023.4412              3032.6922              3046.3197
 Red. masses --      1.0724                 1.0704                 1.0764
 Frc consts  --      5.7756                 5.8002                 5.8854
 IR Inten    --     11.5456                10.4537                36.1241

                     85                     86                     87
                      A                      A                      A
 Frequencies --   3054.9923              3058.1544              3083.5386
 Red. masses --      1.0662                 1.0837                 1.0835
 Frc consts  --      5.8629                 5.9716                 6.0696
 IR Inten    --     34.3512                10.2307                30.4741

                     88                     89                     90
                      A                      A                      A
 Frequencies --   3095.9246              3096.3272              3096.7032
 Red. masses --      1.0937                 1.0736                 1.0967
 Frc consts  --      6.1764                 6.0642                 6.1964
 IR Inten    --     13.6717                61.3936                40.8564

                     91                     92                     93
                      A                      A                      A
 Frequencies --   3101.4151              3102.1479              3120.6157
 Red. masses --      1.0853                 1.0933                 1.0993
 Frc consts  --      6.1504                 6.1990                 6.3073
 IR Inten    --     26.2539                32.9423                18.6073

                     94                     95                     96
                      A                      A                      A
 Frequencies --   3140.7210              3503.0145              3763.5976
 Red. masses --      1.1062                 1.0748                 1.0664
 Frc consts  --      6.4291                 7.7705                 8.8996
 IR Inten    --     28.7330                 3.5987                14.4146

 - Thermochemistry -
 -------------------
 Temperature   298.150 Kelvin.  Pressure   1.00000 Atm.
 Atom     1 has atomic number  6 and mass  12.00000

 Molecular mass:   222.14806 amu.
 Principal axes and moments of inertia in atomic units:
                           1         2         3
     Eigenvalues --   981.633188519.210069066.31810
           X            0.99998   0.00225  -0.00624
           Y           -0.00225   1.00000   0.00004
           Z            0.00624  -0.00003   0.99998
 This molecule is an asymmetric top.
 Rotational symmetry number  1.
 Warning -- assumption of classical behavior for rotation
           may cause significant error
 Rotational temperatures (Kelvin)      0.08823     0.01017     0.00955
 Rotational constants (GHZ):           1.83851     0.21184     0.19906
 Zero-point vibrational energy     782405.7 (Joules/Mol)
                                  186.99946 (Kcal/Mol)
 Warning -- explicit consideration of  21 degrees of freedom as
           vibrations may cause significant error
 Vibrational temperatures:     24.76    39.82    66.04   136.85   157.86
          (Kelvin)            196.15   233.78   277.65   352.08   355.31
                              410.96   422.67   426.82   499.93   547.53
                              598.63   708.95   719.30   782.29   853.44
                              885.16   962.42   996.96  1040.59  1108.22
                             1131.68  1172.95  1260.24  1279.75  1286.96
                             1344.01  1356.15  1363.02  1397.07  1445.51
                             1463.06  1488.77  1522.29  1532.49  1568.56
                             1580.50  1598.35  1608.68  1629.62  1642.15
                             1695.01  1726.92  1741.95  1752.28  1759.12
                             1804.38  1817.60  1856.55  1857.66  1870.68
                             1881.24  1903.47  1906.54  1931.19  1944.67
                             1991.50  2000.26  2025.61  2029.69  2044.37
                             2047.95  2068.98  2094.05  2139.82  2173.73
                             2186.78  2196.59  2201.63  2207.04  2216.13
                             2237.57  2242.36  2262.08  4228.94  4296.78
                             4304.12  4350.06  4363.37  4382.97  4395.45
                             4400.00  4436.52  4454.35  4454.92  4455.47
                             4462.24  4463.30  4489.87  4518.80  5040.06
                             5414.98

 Zero-point correction=                           0.298003 (Hartree/Particle)
 Thermal correction to Energy=                    0.312546
 Thermal correction to Enthalpy=                  0.313490
 Thermal correction to Gibbs Free Energy=         0.254163
 Sum of electronic and zero-point Energies=           -723.983452
 Sum of electronic and thermal Energies=              -723.968909
 Sum of electronic and thermal Enthalpies=            -723.967965
 Sum of electronic and thermal Free Energies=         -724.027291

                     E (Thermal)             CV                S
                      KCal/Mol        Cal/Mol-Kelvin    Cal/Mol-Kelvin
 Total                  196.125             55.380            124.863
 Electronic               0.000              0.000              0.000
 Translational            0.889              2.981             42.097
 Rotational               0.889              2.981             32.694
 Vibrational            194.348             49.418             50.072
 Vibration     1          0.593              1.986              6.933
 Vibration     2          0.593              1.984              5.989
 Vibration     3          0.595              1.979              4.987
 Vibration     4          0.603              1.953              3.552
 Vibration     5          0.606              1.941              3.274
 Vibration     6          0.614              1.917              2.855
 Vibration     7          0.623              1.888              2.521
 Vibration     8          0.635              1.850              2.199
 Vibration     9          0.660              1.772              1.768
 Vibration    10          0.661              1.768              1.752
 Vibration    11          0.683              1.700              1.500
 Vibration    12          0.689              1.685              1.452
 Vibration    13          0.690              1.680              1.436
 Vibration    14          0.725              1.580              1.178
 Vibration    15          0.750              1.512              1.037
 Vibration    16          0.779              1.435              0.905
 Vibration    17          0.848              1.266              0.677
 Vibration    18          0.855              1.250              0.658
 Vibration    19          0.899              1.153              0.557
 Vibration    20          0.951              1.046              0.462
 Vibration    21          0.975              1.000              0.424

 Optimization completed.
    -- Stationary point found.
 Normal termination of Gaussian 16 at Thu Dec 10 23:35:54 2020.

 ----------------------------------------------------------------------
 # B3LYP/6-311++G(d,p) empiricaldispersion=gd3bj scf=xqc pop=npa geom=c
 heck
 ----------------------------------------------------------------------

 ---------------------------------------
 CID_117156107_JID_6506_Energie_neutraal
 ---------------------------------------
 Structure from the checkpoint file:  "JID_6506.chk"
 Charge =  0 Multiplicity = 1

 SCF Done:  E(RB3LYP) =  -724.488825357     A.U. after   15 cycles
 Normal termination of Gaussian 16 at Thu Dec 10 23:40:16 2020.

 ----------------------------------------------------------------------
 # B3LYP/6-311++G(d,p) empiricaldispersion=gd3bj scf=xqc pop=npa geom=c
 heck
 ----------------------------------------------------------------------

 -------------------------------------
 CID_117156107_JID_6506_Energie_kation
 -------------------------------------
 Structure from the checkpoint file:  "JID_6506.chk"
 Charge =  1 Multiplicity = 2

 SCF Done:  E(UB3LYP) =  -724.191103539     A.U. after   26 cycles
 Normal termination of Gaussian 16 at Thu Dec 10 23:51:20 2020.
 Gaussian 16:  ES64L-G16RevA.03 25-Dec-2016

 ----------------------------------------------------------------------
 # B3LYP/6-311++G(d,p) empiricaldispersion=gd3bj scf=xqc pop=npa geom=c
 heck
 ----------------------------------------------------------------------

 ------------------------------------
 CID_117156107_JID_6506_Energie_anion
 ------------------------------------
 Structure from the checkpoint file:  "JID_6506.chk"
 Charge = -1 Multiplicity = 2

                         Standard orientation:
 ---------------------------------------------------------------------
 Center     Atomic      Atomic             Coordinates (Angstroms)
 Number     Number       Type             X           Y           Z
 ---------------------------------------------------------------------
      1          6           0       -3.446123   -1.353426    0.216764
      2          6           0       -4.573436   -0.677563    1.019142
      3          7           0       -4.929513    0.470452    0.179800
      4          6           0       -3.641564    1.050903   -0.211542
      5          6           0       -2.826814   -0.191657   -0.626422
      6          6           0       -1.348609   -0.041914   -0.450321
      7          7           0       -0.759955    1.119046   -0.175587
      8          7           0        0.558126    0.777872   -0.139691
      9          6           0        1.599446    1.726919    0.216180
     10          6           0        2.960761    1.145862   -0.172191
     11          6           0        3.108735   -0.312055    0.292672
     12          6           0        2.051512   -1.194918   -0.396965
     13          6           0        0.704199   -0.547496   -0.373343
     14          7           0       -0.483287   -1.097595   -0.582327
     15          6           0        4.514691   -0.862335    0.033153
     16          8           0        5.530908   -0.164451    0.740592
     17          1           0       -2.701976   -1.826332    0.861470
     18          1           0       -3.848026   -2.124359   -0.445236
     19          1           0       -5.439491   -1.329755    1.174652
     20          1           0       -4.192441   -0.378761    2.014110
     21          1           0       -5.501855    1.143162    0.685839
     22          1           0       -3.125460    1.567293    0.615234
     23          1           0       -3.764916    1.767463   -1.029489
     24          1           0       -3.016162   -0.400487   -1.685566
     25          1           0        1.553252    1.918912    1.295418
     26          1           0        1.394901    2.668278   -0.300660
     27          1           0        3.740912    1.769178    0.278304
     28          1           0        3.084245    1.194819   -1.263353
     29          1           0        2.941261   -0.340950    1.378375
     30          1           0        2.343472   -1.374060   -1.442537
     31          1           0        1.986157   -2.179522    0.077575
     32          1           0        4.568241   -1.900091    0.378730
     33          1           0        4.714957   -0.869082   -1.051219
     34          1           0        5.701287    0.667556    0.275483
 ---------------------------------------------------------------------

 SCF Done:  E(UB3LYP) =  -724.479763103     A.U. after   32 cycles

 The electronic state is 2-A.
 Alpha  occ. eigenvalues --  -19.02466 -14.29839 -14.23757 -14.21079 -14.20496
 Alpha  occ. eigenvalues --  -10.14794 -10.12821 -10.12541 -10.12332 -10.10515
 Alpha  occ. eigenvalues --  -10.10033 -10.09908 -10.09320 -10.09237 -10.08354
 Alpha  occ. eigenvalues --  -10.08017  -0.98230  -0.92665  -0.83416  -0.81186
 Alpha  occ. eigenvalues --   -0.77558  -0.71288  -0.68597  -0.66144  -0.63821
 Alpha  occ. eigenvalues --   -0.59813  -0.56936  -0.53756  -0.51515  -0.50042
 Alpha  occ. eigenvalues --   -0.47485  -0.45848  -0.42891  -0.41966  -0.41478
 Alpha  occ. eigenvalues --   -0.40632  -0.39108  -0.36777  -0.35914  -0.35233
 Alpha  occ. eigenvalues --   -0.34745  -0.34197  -0.32671  -0.31278  -0.29449
 Alpha  occ. eigenvalues --   -0.28811  -0.28389  -0.27539  -0.26413  -0.26159
 Alpha  occ. eigenvalues --   -0.25985  -0.25393  -0.23946  -0.23520  -0.22859
 Alpha  occ. eigenvalues --   -0.18918  -0.18729  -0.18158  -0.15965  -0.14393
 Alpha  occ. eigenvalues --    0.04076
 Alpha virt. eigenvalues --    0.05301   0.07185   0.07430   0.07664   0.07760
 Alpha virt. eigenvalues --    0.08497   0.08963   0.09319   0.10269   0.10419
 Alpha virt. eigenvalues --    0.10692   0.11127   0.11432   0.12318   0.12798

  Beta  occ. eigenvalues --  -19.02412 -14.29840 -14.23752 -14.21065 -14.20490
  Beta  occ. eigenvalues --  -10.14787 -10.12821 -10.12520 -10.12303 -10.10500
  Beta  occ. eigenvalues --  -10.10026 -10.09900 -10.09319 -10.09231 -10.08296
  Beta  occ. eigenvalues --  -10.08015  -0.98222  -0.92552  -0.83399  -0.81171
  Beta  occ. eigenvalues --   -0.77538  -0.71257  -0.68571  -0.66105  -0.63798
  Beta  occ. eigenvalues --   -0.59743  -0.56865  -0.53738  -0.51469  -0.49983
  Beta  occ. eigenvalues --   -0.47449  -0.45809  -0.42854  -0.41874  -0.41450
  Beta  occ. eigenvalues --   -0.40604  -0.39085  -0.36728  -0.35862  -0.35195
  Beta  occ. eigenvalues --   -0.34713  -0.34159  -0.32633  -0.31256  -0.29412
  Beta  occ. eigenvalues --   -0.28789  -0.28352  -0.27486  -0.26397  -0.26123
  Beta  occ. eigenvalues --   -0.25932  -0.25360  -0.23935  -0.23477  -0.22827
  Beta  occ. eigenvalues --   -0.18895  -0.18701  -0.18109  -0.15947  -0.14370
  Beta virt. eigenvalues --    0.05760   0.06919   0.07471   0.07674   0.08068
  Beta virt. eigenvalues --    0.08271   0.08942   0.09097   0.09743   0.10435
  Beta virt. eigenvalues --    0.10483   0.10745   0.11568   0.11732   0.12495

 Mulliken charges and spin densities:
               1          2
     1  C   -0.521758   0.127064
     2  C    0.228448  -0.595478
     3  N   -0.213060   0.094020
     4  C   -0.286084  -0.300347
     5  C    0.757705  -0.553508
     6  C   -0.240104  -0.224947
     7  N   -0.161190   0.326887
     8  N    0.182440  -0.176579
     9  C    0.211080  -0.688869
    10  C    1.293199  -1.670573
    11  C   -2.405688   2.804438
    12  C    0.683388  -1.247086
    13  C   -0.752463   0.860543
    14  N   -0.048608   0.022050
    15  C    1.478416  -2.035935
    16  O   -0.235600  -0.009332
    17  H    0.125119   0.032028
    18  H    0.126574   0.019440
    19  H   -0.029451   0.187729
    20  H   -0.067957   0.192886
    21  H   -0.013953   0.245455
    22  H    0.037092   0.144475
    23  H    0.130203   0.049556
    24  H    0.127796   0.078479
    25  H   -0.009004   0.206323
    26  H   -0.185479   0.398058
    27  H   -0.253620   0.387748
    28  H   -0.463720   0.667713
    29  H   -0.028048   0.227175
    30  H   -0.033603   0.243209
    31  H    0.190286  -0.021738
    32  H    0.005165   0.158309
    33  H   -0.303721   0.464007
    34  H   -0.323802   0.586800
 Sum of Mulliken charges =  -1.00000   1.00000

 Dipole moment (field-independent basis, Debye):
    X=             -6.8997    Y=             -3.4678    Z=              0.7653  Tot=              7.7599
 Quadrupole moment (field-independent basis, Debye-Ang):
   XX=           -229.2957   YY=           -130.7130   ZZ=           -126.7700
   XY=            -12.5126   XZ=              3.8397   YZ=             -0.2283

 Summary of Natural Population Analysis:

                                       Natural Population
                Natural  -----------------------------------------------
    Atom  No    Charge         Core      Valence    Rydberg      Total
 -----------------------------------------------------------------------
      C    1   -0.18610      0.99963     2.17934    0.00714     3.18610
      C    2   -0.09222      0.99964     2.08068    0.01189     3.09222
      N    3   -0.34401      0.99975     2.83247    0.01179     3.84401
      C    4   -0.08642      0.99962     2.07529    0.01150     3.08642
      C    5   -0.13177      0.99955     2.12164    0.01058     3.13177
      C    6    0.18125      0.99962     1.80027    0.01885     2.81875
      N    7   -0.16721      0.99969     2.65760    0.00992     3.66721
      N    8   -0.11597      0.99959     2.60466    0.01172     3.61597
      C    9   -0.07587      0.99961     2.06491    0.01135     3.07587
      C   10   -0.19978      0.99961     2.18908    0.01109     3.19978
      C   11   -0.11990      0.99959     2.10991    0.01039     3.11990
      C   12   -0.21000      0.99958     2.20240    0.00802     3.21000
      C   13    0.20872      0.99959     1.77611    0.01558     2.79128
      N   14   -0.27350      0.99968     2.76533    0.00849     3.77350
      C   15   -0.00353      0.99956     1.98994    0.01403     3.00353
      O   16   -0.36900      0.99990     3.36236    0.00674     4.36900
      H   17    0.10587      0.00000     0.39293    0.00120     0.39413
      H   18    0.09837      0.00000     0.40049    0.00114     0.40163
      H   19    0.09320      0.00000     0.40573    0.00106     0.40680
      H   20    0.07867      0.00000     0.41974    0.00159     0.42133
      H   21    0.17554      0.00000     0.32249    0.00198     0.32446
      H   22    0.08915      0.00000     0.40924    0.00161     0.41085
      H   23    0.09669      0.00000     0.40234    0.00096     0.40331
      H   24    0.10887      0.00000     0.38993    0.00121     0.39113
      H   25    0.09756      0.00000     0.40108    0.00136     0.40244
      H   26    0.10744      0.00000     0.39124    0.00132     0.39256
      H   27    0.11272      0.00000     0.38357    0.00371     0.38728
      H   28    0.10197      0.00000     0.39502    0.00301     0.39803
      H   29    0.09810      0.00000     0.40029    0.00161     0.40190
      H   30    0.11011      0.00000     0.38829    0.00160     0.38989
      H   31    0.11163      0.00000     0.38713    0.00124     0.38837
      H   32    0.08396      0.00000     0.41484    0.00119     0.41604
      H   33    0.07971      0.00000     0.41856    0.00173     0.42029
      H   34    0.23574      0.00000     0.25471    0.00955     0.26426
 =======================================================================
   * Total *   -0.00000     15.99422    43.78963    0.21616    60.00000

 Normal termination of Gaussian 16 at Fri Dec 11 00:05:22 2020.
