 Gaussian 16, Revision A.03,

 -----------------------------------------------------------
 # opt freq B3LYP/6-31G(d) empiricaldispersion=gd3bj scf=xqc
 -----------------------------------------------------------

 ------------------------------
 CID_64025216_JID_6704_neutraal
 ------------------------------
 Symbolic Z-matrix:
 Charge =  0 Multiplicity = 1

 SCF Done:  E(RB3LYP) =  -1091.77205924     A.U. after   14 cycles
 SCF Done:  E(RB3LYP) =  -1091.77693913     A.U. after   11 cycles
 SCF Done:  E(RB3LYP) =  -1091.77749327     A.U. after   12 cycles
 SCF Done:  E(RB3LYP) =  -1091.77824035     A.U. after   12 cycles
 SCF Done:  E(RB3LYP) =  -1091.77839439     A.U. after   11 cycles
 SCF Done:  E(RB3LYP) =  -1091.77844477     A.U. after   11 cycles
 SCF Done:  E(RB3LYP) =  -1091.77845390     A.U. after    9 cycles
 SCF Done:  E(RB3LYP) =  -1091.77845575     A.U. after    9 cycles
 SCF Done:  E(RB3LYP) =  -1091.77845624     A.U. after    8 cycles
 SCF Done:  E(RB3LYP) =  -1091.77845644     A.U. after    7 cycles
 Optimization completed.
    -- Stationary point found.
 Normal termination of Gaussian 16 at Fri Dec 11 00:13:09 2020.

 --------------------------------------------------------------------
 #N Geom=AllCheck Guess=TCheck SCRF=Check GenChk RB3LYP/6-31G(d) Freq
 --------------------------------------------------------------------

 Structure from the checkpoint file:  "JID_6704.chk"
 ------------------------------
 CID_64025216_JID_6704_neutraal
 ------------------------------
 Charge =  0 Multiplicity = 1

 SCF Done:  E(RB3LYP) =  -1091.77845644     A.U. after    1 cycles

  Exact polarizability: 173.648  -3.082 142.365  -0.353   2.794 132.920
 Approx polarizability: 215.405   3.436 213.089   0.897  -0.891 208.649

                      1                      2                      3
                      A                      A                      A
 Frequencies --     28.6859                32.3612                36.5314
 Red. masses --      5.1773                 4.5724                 3.3985
 Frc consts  --      0.0025                 0.0028                 0.0027
 IR Inten    --      2.0973                 2.0392                 0.8859

                      4                      5                      6
                      A                      A                      A
 Frequencies --     62.3112                75.7711                96.5040
 Red. masses --      3.6607                 3.1123                 2.9515
 Frc consts  --      0.0084                 0.0105                 0.0162
 IR Inten    --      1.1808                 1.0047                 1.0517

                      7                      8                      9
                      A                      A                      A
 Frequencies --    146.5452               152.5367               187.8419
 Red. masses --      2.6815                 2.4539                 2.6835
 Frc consts  --      0.0339                 0.0336                 0.0558
 IR Inten    --      3.1544                 4.2626                 1.5292

                     10                     11                     12
                      A                      A                      A
 Frequencies --    210.3765               214.3448               230.2160
 Red. masses --      2.1522                 2.2064                 2.6180
 Frc consts  --      0.0561                 0.0597                 0.0818
 IR Inten    --     10.8433                 1.0737                 1.6151

                     13                     14                     15
                      A                      A                      A
 Frequencies --    256.6802               257.7155               270.6963
 Red. masses --      2.0255                 2.1659                 1.3442
 Frc consts  --      0.0786                 0.0848                 0.0580
 IR Inten    --      6.2260                 9.0007                39.7690

                     16                     17                     18
                      A                      A                      A
 Frequencies --    293.0713               319.1768               351.0199
 Red. masses --      2.4167                 2.1134                 2.7884
 Frc consts  --      0.1223                 0.1269                 0.2024
 IR Inten    --      3.1831                 8.1937                 4.2493

                     19                     20                     21
                      A                      A                      A
 Frequencies --    385.0579               387.1576               407.0929
 Red. masses --      4.4462                 1.9215                 3.3393
 Frc consts  --      0.3884                 0.1697                 0.3261
 IR Inten    --      5.3938                 5.2426                 7.9068

                     22                     23                     24
                      A                      A                      A
 Frequencies --    432.3379               448.4009               482.7887
 Red. masses --      2.9880                 1.8846                 5.9097
 Frc consts  --      0.3291                 0.2233                 0.8116
 IR Inten    --     19.8959                 2.4691                23.2632

                     25                     26                     27
                      A                      A                      A
 Frequencies --    486.3330               519.4832               541.4283
 Red. masses --      2.7586                 2.6827                 3.1732
 Frc consts  --      0.3844                 0.4266                 0.5481
 IR Inten    --      1.5142                 5.3632                 0.8953

                     28                     29                     30
                      A                      A                      A
 Frequencies --    589.7197               622.9102               713.3720
 Red. masses --      2.3153                 3.7218                 2.5506
 Frc consts  --      0.4744                 0.8509                 0.7648
 IR Inten    --      1.0396                13.7725                28.4172

                     31                     32                     33
                      A                      A                      A
 Frequencies --    768.1451               788.6081               804.4363
 Red. masses --      2.7811                 1.7289                 1.3846
 Frc consts  --      0.9668                 0.6335                 0.5279
 IR Inten    --      7.6030                 7.8705                43.8490

                     34                     35                     36
                      A                      A                      A
 Frequencies --    829.5106               868.9808               884.0723
 Red. masses --      1.4977                 1.4690                 1.7046
 Frc consts  --      0.6072                 0.6536                 0.7850
 IR Inten    --      0.5315               108.5881                 5.0546

                     37                     38                     39
                      A                      A                      A
 Frequencies --    909.2452               926.9824               946.3939
 Red. masses --      2.2332                 2.1560                 1.8775
 Frc consts  --      1.0878                 1.0915                 0.9908
 IR Inten    --      9.9630                22.2352                10.4609

                     40                     41                     42
                      A                      A                      A
 Frequencies --    967.1472               998.4225              1001.5890
 Red. masses --      1.7629                 1.8014                 1.7946
 Frc consts  --      0.9715                 1.0580                 1.0607
 IR Inten    --      2.9562                17.5227                 0.9089

                     43                     44                     45
                      A                      A                      A
 Frequencies --   1008.2560              1032.5723              1043.9266
 Red. masses --      1.5466                 2.2083                 1.7468
 Frc consts  --      0.9263                 1.3872                 1.1216
 IR Inten    --      3.8406                15.1504                 2.0728

                     46                     47                     48
                      A                      A                      A
 Frequencies --   1067.8661              1074.4136              1091.1423
 Red. masses --      2.1810                 1.8169                 2.1130
 Frc consts  --      1.4654                 1.2357                 1.4822
 IR Inten    --      4.8429                29.2696                 2.5217

                     49                     50                     51
                      A                      A                      A
 Frequencies --   1091.8059              1113.5057              1116.0390
 Red. masses --      2.0336                 2.9349                 2.1627
 Frc consts  --      1.4282                 2.1440                 1.5871
 IR Inten    --     10.0376               102.3461                 6.8476

                     52                     53                     54
                      A                      A                      A
 Frequencies --   1133.0973              1147.9486              1156.9926
 Red. masses --      2.1400                 2.0831                 2.4196
 Frc consts  --      1.6188                 1.6173                 1.9083
 IR Inten    --      5.1616                17.9067                57.5050

                     55                     56                     57
                      A                      A                      A
 Frequencies --   1180.3280              1197.0085              1202.2299
 Red. masses --      2.1137                 1.1876                 1.3425
 Frc consts  --      1.7350                 1.0026                 1.1432
 IR Inten    --     28.1988                 0.2856                 2.5647

                     58                     59                     60
                      A                      A                      A
 Frequencies --   1244.4030              1251.2744              1269.9161
 Red. masses --      1.4640                 1.4996                 1.4712
 Frc consts  --      1.3357                 1.3834                 1.3979
 IR Inten    --      0.4032                 3.4739                11.1441

                     61                     62                     63
                      A                      A                      A
 Frequencies --   1286.3460              1294.4688              1311.2274
 Red. masses --      2.3422                 1.3748                 1.4106
 Frc consts  --      2.2834                 1.3573                 1.4289
 IR Inten    --    113.5345                47.5089                13.3393

                     64                     65                     66
                      A                      A                      A
 Frequencies --   1322.7306              1326.6908              1346.3072
 Red. masses --      1.4447                 1.3462                 1.5293
 Frc consts  --      1.4893                 1.3960                 1.6332
 IR Inten    --     13.4752                 5.6452                23.1032

                     67                     68                     69
                      A                      A                      A
 Frequencies --   1349.0961              1357.3083              1362.7250
 Red. masses --      1.2751                 1.2650                 1.3406
 Frc consts  --      1.3673                 1.3731                 1.4668
 IR Inten    --      3.4435                 2.2089                19.8193

                     70                     71                     72
                      A                      A                      A
 Frequencies --   1374.5371              1396.6680              1402.1835
 Red. masses --      1.1704                 1.3474                 1.3780
 Frc consts  --      1.3029                 1.5485                 1.5963
 IR Inten    --      2.8555                18.3278                 0.3886

                     73                     74                     75
                      A                      A                      A
 Frequencies --   1415.4646              1424.3441              1431.3255
 Red. masses --      1.4514                 1.6535                 1.4002
 Frc consts  --      1.7133                 1.9764                 1.6902
 IR Inten    --     16.5305                 2.2426                16.7699

                     76                     77                     78
                      A                      A                      A
 Frequencies --   1436.7935              1447.4033              1451.8700
 Red. masses --      1.2333                 1.4313                 1.4086
 Frc consts  --      1.5001                 1.7666                 1.7495
 IR Inten    --      6.1573                16.8960                 2.0634

                     79                     80                     81
                      A                      A                      A
 Frequencies --   1476.6472              1481.1215              1501.9550
 Red. masses --      1.1022                 1.0995                 1.0935
 Frc consts  --      1.4159                 1.4211                 1.4534
 IR Inten    --     11.8156                11.2704                 0.4234

                     82                     83                     84
                      A                      A                      A
 Frequencies --   1506.8488              1515.1128              1519.3490
 Red. masses --      1.0928                 1.0892                 1.0976
 Frc consts  --      1.4620                 1.4731                 1.4929
 IR Inten    --      2.7206                 3.9223                 6.4472

                     85                     86                     87
                      A                      A                      A
 Frequencies --   1523.7254              1527.3740              1532.5922
 Red. masses --      1.0630                 1.0552                 1.0520
 Frc consts  --      1.4542                 1.4503                 1.4558
 IR Inten    --      8.5566                 2.9994                 4.6182

                     88                     89                     90
                      A                      A                      A
 Frequencies --   1541.5395              1544.0246              1701.1456
 Red. masses --      1.1007                 1.0907                 1.0880
 Frc consts  --      1.5411                 1.5321                 1.8550
 IR Inten    --      9.3648                 4.8643                32.9907

                     91                     92                     93
                      A                      A                      A
 Frequencies --   2911.4648              2923.0361              2948.3751
 Red. masses --      1.0740                 1.0728                 1.0737
 Frc consts  --      5.3640                 5.4007                 5.4990
 IR Inten    --     37.4120                72.1681               100.8317

                     94                     95                     96
                      A                      A                      A
 Frequencies --   2958.8296              3007.8105              3027.9511
 Red. masses --      1.0739                 1.0811                 1.0632
 Frc consts  --      5.5393                 5.7624                 5.7433
 IR Inten    --     72.1607                 7.8746                11.7785

                     97                     98                     99
                      A                      A                      A
 Frequencies --   3034.6025              3041.3714              3063.7306
 Red. masses --      1.0619                 1.0624                 1.0361
 Frc consts  --      5.7613                 5.7899                 5.7299
 IR Inten    --     17.2041                50.3598                16.7995

                    100                    101                    102
                      A                      A                      A
 Frequencies --   3074.0094              3080.1783              3081.4297
 Red. masses --      1.0917                 1.0988                 1.0863
 Frc consts  --      6.0778                 6.1419                 6.0771
 IR Inten    --     33.3472                18.5609                32.8703

                    103                    104                    105
                      A                      A                      A
 Frequencies --   3081.7230              3087.1606              3087.9054
 Red. masses --      1.0977                 1.0838                 1.0789
 Frc consts  --      6.1423                 6.0860                 6.0613
 IR Inten    --     52.2569                68.2851                30.0516

                    106                    107                    108
                      A                      A                      A
 Frequencies --   3092.6472              3095.7782              3117.2355
 Red. masses --      1.0884                 1.0628                 1.0883
 Frc consts  --      6.1336                 6.0015                 6.2307
 IR Inten    --     24.7430                11.9194                 4.5729

                    109                    110                    111
                      A                      A                      A
 Frequencies --   3125.9257              3146.7382              3150.3096
 Red. masses --      1.1003                 1.1031                 1.1033
 Frc consts  --      6.3349                 6.4357                 6.4513
 IR Inten    --     24.8638                 9.1214                 8.8601

                    112                    113                    114
                      A                      A                      A
 Frequencies --   3166.1835              3469.5153              3551.8127
 Red. masses --      1.1041                 1.0499                 1.0921
 Frc consts  --      6.5215                 7.4462                 8.1171
 IR Inten    --      0.2762                 1.8865                 1.2351

 - Thermochemistry -
 -------------------
 Temperature   298.150 Kelvin.  Pressure   1.00000 Atm.
 Atom     1 has atomic number  6 and mass  12.00000

 Molecular mass:   248.15585 amu.
 Principal axes and moments of inertia in atomic units:
                           1         2         3
     Eigenvalues --  1785.354078671.876449169.60933
           X            0.99999  -0.00273  -0.00361
           Y            0.00279   0.99984   0.01740
           Z            0.00356  -0.01741   0.99984
 This molecule is an asymmetric top.
 Rotational symmetry number  1.
 Warning -- assumption of classical behavior for rotation
           may cause significant error
 Rotational temperatures (Kelvin)      0.04851     0.00999     0.00945
 Rotational constants (GHZ):           1.01086     0.20811     0.19682
 Zero-point vibrational energy     943790.1 (Joules/Mol)
                                  225.57124 (Kcal/Mol)
 Warning -- explicit consideration of  28 degrees of freedom as
           vibrations may cause significant error
 Vibrational temperatures:     41.27    46.56    52.56    89.65   109.02
          (Kelvin)            138.85   210.85   219.47   270.26   302.68
                              308.39   331.23   369.31   370.80   389.47
                              421.66   459.22   505.04   554.01   557.03
                              585.72   622.04   645.15   694.63   699.72
                              747.42   778.99   848.48   896.23  1026.38
                             1105.19  1134.63  1157.40  1193.48  1250.27
                             1271.98  1308.20  1333.72  1361.65  1391.51
                             1436.51  1441.06  1450.66  1485.64  1501.98
                             1536.42  1545.84  1569.91  1570.87  1602.09
                             1605.73  1630.27  1651.64  1664.65  1698.23
                             1722.23  1729.74  1790.42  1800.30  1827.13
                             1850.77  1862.45  1886.56  1903.11  1908.81
                             1937.04  1941.05  1952.86  1960.66  1977.65
                             2009.49  2017.43  2036.54  2049.31  2059.36
                             2067.23  2082.49  2088.92  2124.57  2131.00
                             2160.98  2168.02  2179.91  2186.00  2192.30
                             2197.55  2205.06  2217.93  2221.51  2447.57
                             4188.95  4205.60  4242.05  4257.10  4327.57
                             4356.55  4366.12  4375.86  4408.03  4422.81
                             4431.69  4433.49  4433.91  4441.74  4442.81
                             4449.63  4454.13  4485.01  4497.51  4527.45
                             4532.59  4555.43  4991.86  5110.27

 Zero-point correction=                           0.359471 (Hartree/Particle)
 Thermal correction to Energy=                    0.377416
 Thermal correction to Enthalpy=                  0.378361
 Thermal correction to Gibbs Free Energy=         0.312417
 Sum of electronic and zero-point Energies=          -1091.418986
 Sum of electronic and thermal Energies=             -1091.401040
 Sum of electronic and thermal Enthalpies=           -1091.400096
 Sum of electronic and thermal Free Energies=        -1091.466039

                     E (Thermal)             CV                S
                      KCal/Mol        Cal/Mol-Kelvin    Cal/Mol-Kelvin
 Total                  236.832             67.835            138.790
 Electronic               0.000              0.000              0.000
 Translational            0.889              2.981             42.427
 Rotational               0.889              2.981             33.317
 Vibrational            235.055             61.873             63.045
 Vibration     1          0.593              1.984              5.918
 Vibration     2          0.594              1.983              5.679
 Vibration     3          0.594              1.982              5.439
 Vibration     4          0.597              1.972              4.383
 Vibration     5          0.599              1.965              3.998
 Vibration     6          0.603              1.952              3.524
 Vibration     7          0.617              1.906              2.717
 Vibration     8          0.619              1.900              2.640
 Vibration     9          0.633              1.857              2.249
 Vibration    10          0.643              1.825              2.040
 Vibration    11          0.644              1.819              2.006
 Vibration    12          0.652              1.795              1.877
 Vibration    13          0.666              1.751              1.684
 Vibration    14          0.667              1.750              1.677
 Vibration    15          0.674              1.727              1.592
 Vibration    16          0.688              1.687              1.456
 Vibration    17          0.705              1.637              1.314
 Vibration    18          0.728              1.573              1.162
 Vibration    19          0.754              1.502              1.019
 Vibration    20          0.756              1.498              1.011
 Vibration    21          0.772              1.455              0.937
 Vibration    22          0.793              1.400              0.851
 Vibration    23          0.807              1.364              0.801
 Vibration    24          0.839              1.288              0.703
 Vibration    25          0.842              1.280              0.693
 Vibration    26          0.874              1.207              0.611
 Vibration    27          0.897              1.158              0.562
 Vibration    28          0.947              1.054              0.468

                           ! Non-Optimized Parameters !
 Normal termination of Gaussian 16 at Fri Dec 11 00:27:03 2020.

 ----------------------------------------------------------------------
 # B3LYP/6-311++G(d,p) empiricaldispersion=gd3bj scf=xqc pop=npa geom=c
 heck
 ----------------------------------------------------------------------

 --------------------------------------
 CID_64025216_JID_6704_Energie_neutraal
 --------------------------------------
 Structure from the checkpoint file:  "JID_6704.chk"
 Charge =  0 Multiplicity = 1

 SCF Done:  E(RB3LYP) =  -1092.01137848     A.U. after   15 cycles
 Normal termination of Gaussian 16 at Fri Dec 11 00:34:04 2020.

 ----------------------------------------------------------------------
 # B3LYP/6-311++G(d,p) empiricaldispersion=gd3bj scf=xqc pop=npa geom=c
 heck
 ----------------------------------------------------------------------

 ------------------------------------
 CID_64025216_JID_6704_Energie_kation
 ------------------------------------
 Structure from the checkpoint file:  "JID_6704.chk"
 Charge =  1 Multiplicity = 2

 SCF Done:  E(UB3LYP) =  -1091.70651587     A.U. after   23 cycles
 Normal termination of Gaussian 16 at Fri Dec 11 00:48:20 2020.
 Gaussian 16:  ES64L-G16RevA.03 25-Dec-2016

 ----------------------------------------------------------------------
 # B3LYP/6-311++G(d,p) empiricaldispersion=gd3bj scf=xqc pop=npa geom=c
 heck
 ----------------------------------------------------------------------

 -----------------------------------
 CID_64025216_JID_6704_Energie_anion
 -----------------------------------
 Structure from the checkpoint file:  "JID_6704.chk"
 Charge = -1 Multiplicity = 2

                         Standard orientation:
 ---------------------------------------------------------------------
 Center     Atomic      Atomic             Coordinates (Angstroms)
 Number     Number       Type             X           Y           Z
 ---------------------------------------------------------------------
      1          6           0        1.772465    2.511603   -0.092704
      2          6           0        2.047850    1.348140    0.850831
      3         16           0        3.224671    0.137834    0.181878
      4          8           0        4.383582    0.873050   -0.357950
      5          8           0        3.410722   -0.904492    1.208807
      6          6           0        2.401555   -0.644081   -1.245907
      7          6           0        1.300768   -1.622195   -0.848502
      8          7           0        0.134602   -0.956147   -0.277712
      9          6           0       -0.724725   -0.360578   -1.300044
     10          6           0       -1.840953    0.470732   -0.667915
     11          6           0       -2.681127   -0.369393    0.305088
     12          6           0       -1.745136   -1.058924    1.307616
     13          6           0       -0.631986   -1.836338    0.607216
     14          6           0       -3.763803    0.442836    1.029447
     15          6           0       -4.776103    1.136549    0.113633
     16          7           0       -5.488496    0.160384   -0.720162
     17          1           0        2.704551    2.989042   -0.405972
     18          1           0        1.151156    3.256756    0.415032
     19          1           0        1.230478    2.183867   -0.985747
     20          1           0        2.534263    1.674865    1.775889
     21          1           0        1.150033    0.773746    1.085961
     22          1           0        2.062572    0.157908   -1.906277
     23          1           0        3.225016   -1.161915   -1.747847
     24          1           0        1.036685   -2.234510   -1.731516
     25          1           0        1.714733   -2.300025   -0.097145
     26          1           0       -1.167949   -1.147454   -1.944828
     27          1           0       -0.114004    0.273132   -1.952010
     28          1           0       -2.465268    0.890875   -1.465808
     29          1           0       -1.395414    1.318186   -0.128881
     30          1           0       -3.178160   -1.162356   -0.274877
     31          1           0       -1.290301   -0.300906    1.960143
     32          1           0       -2.316150   -1.738834    1.951543
     33          1           0        0.058362   -2.256076    1.346027
     34          1           0       -1.070483   -2.685069    0.044379
     35          1           0       -4.311637   -0.228840    1.701947
     36          1           0       -3.278792    1.204811    1.656616
     37          1           0       -5.521409    1.640116    0.740132
     38          1           0       -4.269767    1.930999   -0.463472
     39          1           0       -6.248758    0.623269   -1.215025
     40          1           0       -4.864497   -0.195169   -1.442606
 ---------------------------------------------------------------------

 SCF Done:  E(UB3LYP) =  -1092.00433199     A.U. after   29 cycles

 The electronic state is 2-A.
 Alpha  occ. eigenvalues --  -88.95251 -19.02482 -19.02359 -14.22666 -14.19416
 Alpha  occ. eigenvalues --  -10.12625 -10.12592 -10.12019 -10.11174 -10.10428
 Alpha  occ. eigenvalues --  -10.09339 -10.08902 -10.08150 -10.08123 -10.07198
 Alpha  occ. eigenvalues --  -10.07069  -8.01793  -5.98055  -5.97939  -5.97883
 Alpha  occ. eigenvalues --   -1.01505  -0.91244  -0.85426  -0.78605  -0.73567
 Alpha  occ. eigenvalues --   -0.71803  -0.69412  -0.67051  -0.63744  -0.59871
 Alpha  occ. eigenvalues --   -0.57416  -0.54750  -0.53379  -0.49389  -0.48557
 Alpha  occ. eigenvalues --   -0.46734  -0.42791  -0.42351  -0.40268  -0.39372
 Alpha  occ. eigenvalues --   -0.38705  -0.38291  -0.37420  -0.37151  -0.36136
 Alpha  occ. eigenvalues --   -0.35201  -0.34684  -0.33623  -0.32698  -0.32282
 Alpha  occ. eigenvalues --   -0.31469  -0.30351  -0.30005  -0.29369  -0.28460
 Alpha  occ. eigenvalues --   -0.27762  -0.26759  -0.26511  -0.26128  -0.24213
 Alpha  occ. eigenvalues --   -0.23383  -0.23192  -0.22118  -0.22042  -0.21478
 Alpha  occ. eigenvalues --   -0.19874  -0.14769  -0.14526   0.03866
 Alpha virt. eigenvalues --    0.06107   0.06142   0.06951   0.07714   0.08333
 Alpha virt. eigenvalues --    0.08712   0.09100   0.09182   0.09980   0.10746
 Alpha virt. eigenvalues --    0.10940   0.11201   0.11701   0.12049   0.12715

  Beta  occ. eigenvalues --  -88.95251 -19.02479 -19.02356 -14.22655 -14.19373
  Beta  occ. eigenvalues --  -10.12615 -10.12573 -10.12012 -10.11171 -10.10398
  Beta  occ. eigenvalues --  -10.09315 -10.08865 -10.08145 -10.08119 -10.07168
  Beta  occ. eigenvalues --  -10.07062  -8.01792  -5.98055  -5.97939  -5.97882
  Beta  occ. eigenvalues --   -1.01500  -0.91239  -0.85403  -0.78535  -0.73543
  Beta  occ. eigenvalues --   -0.71779  -0.69382  -0.67018  -0.63699  -0.59827
  Beta  occ. eigenvalues --   -0.57362  -0.54701  -0.53332  -0.49348  -0.48510
  Beta  occ. eigenvalues --   -0.46689  -0.42763  -0.42331  -0.40243  -0.39328
  Beta  occ. eigenvalues --   -0.38684  -0.38260  -0.37376  -0.37122  -0.36112
  Beta  occ. eigenvalues --   -0.35169  -0.34645  -0.33590  -0.32658  -0.32244
  Beta  occ. eigenvalues --   -0.31438  -0.30310  -0.29969  -0.29340  -0.28428
  Beta  occ. eigenvalues --   -0.27725  -0.26735  -0.26480  -0.26086  -0.24206
  Beta  occ. eigenvalues --   -0.23361  -0.23174  -0.22089  -0.22020  -0.21470
  Beta  occ. eigenvalues --   -0.19860  -0.14722  -0.14459
  Beta virt. eigenvalues --    0.06136   0.06597   0.06930   0.07277   0.08072
  Beta virt. eigenvalues --    0.08760   0.09026   0.09362   0.09386   0.10271
  Beta virt. eigenvalues --    0.11085   0.11166   0.11391   0.11883   0.12408

 Mulliken charges and spin densities:
               1          2
     1  C    0.560046  -1.063738
     2  C   -1.095063   0.451369
     3  S    0.776308  -0.203037
     4  O   -0.186878   0.009469
     5  O   -0.207458   0.003572
     6  C   -0.229569  -0.349120
     7  C   -0.703584   0.206732
     8  N    0.159588   0.131963
     9  C    1.424525  -2.117667
    10  C   -1.333624   0.927107
    11  C    1.025927  -0.576933
    12  C   -0.187228  -0.213413
    13  C   -0.289810  -0.122818
    14  C   -1.001433   0.909957
    15  C    0.960095  -1.624044
    16  N   -0.440425   0.075636
    17  H    0.048092   0.132984
    18  H   -0.348746   0.503198
    19  H   -0.188695   0.357217
    20  H    0.132893   0.108909
    21  H    0.393868  -0.087740
    22  H    0.091774   0.148842
    23  H    0.087429   0.154808
    24  H   -0.057986   0.166905
    25  H    0.186232   0.019642
    26  H   -0.129111   0.284829
    27  H   -0.370237   0.525110
    28  H   -0.356045   0.539180
    29  H    0.492951  -0.327972
    30  H    0.241617  -0.102037
    31  H   -0.012638   0.164092
    32  H    0.165160  -0.007318
    33  H    0.175180   0.003247
    34  H    0.006923   0.138339
    35  H    0.054595   0.080494
    36  H    0.025656   0.084307
    37  H   -0.184414   0.353374
    38  H   -0.514925   0.661519
    39  H   -0.145059   0.391238
    40  H   -0.025930   0.261799
 Sum of Mulliken charges =  -1.00000   1.00000

 Dipole moment (field-independent basis, Debye):
    X=              4.4999    Y=             -4.1180    Z=              4.2056  Tot=              7.4091
 Quadrupole moment (field-independent basis, Debye-Ang):
   XX=           -229.0006   YY=           -148.0296   ZZ=           -148.8345
   XY=              6.3747   XZ=            -16.1821   YZ=              6.5345

 Summary of Natural Population Analysis:

                                       Natural Population
                Natural  -----------------------------------------------
    Atom  No    Charge         Core      Valence    Rydberg      Total
 -----------------------------------------------------------------------
      C    1   -0.29741      0.99965     2.29122    0.00654     3.29741
      C    2   -0.29163      0.99959     2.28040    0.01164     3.29163
      S    3    1.01746      4.99927     1.88999    0.09328     6.98254
      O    4   -0.47420      0.99991     3.46874    0.00556     4.47420
      O    5   -0.47576      0.99991     3.47037    0.00548     4.47576
      C    6   -0.29226      0.99957     2.28057    0.01212     3.29226
      C    7   -0.09303      0.99960     2.08192    0.01151     3.09303
      N    8   -0.29487      0.99970     2.78266    0.01250     3.79487
      C    9   -0.08261      0.99961     2.06986    0.01314     3.08261
      C   10   -0.19707      0.99960     2.18581    0.01166     3.19707
      C   11   -0.11336      0.99958     2.10378    0.01000     3.11336
      C   12   -0.18871      0.99961     2.18145    0.00765     3.18871
      C   13   -0.07820      0.99961     2.07000    0.00858     3.07820
      C   14   -0.18695      0.99961     2.17813    0.00922     3.18695
      C   15   -0.08891      0.99964     2.07767    0.01160     3.08891
      N   16   -0.42583      0.99977     2.91514    0.01091     3.92583
      H   17    0.10862      0.00000     0.39025    0.00112     0.39138
      H   18    0.10838      0.00000     0.39042    0.00120     0.39162
      H   19    0.10377      0.00000     0.39475    0.00148     0.39623
      H   20    0.11216      0.00000     0.38667    0.00118     0.38784
      H   21    0.12520      0.00000     0.37272    0.00208     0.37480
      H   22    0.11752      0.00000     0.38103    0.00144     0.38248
      H   23    0.11876      0.00000     0.38020    0.00104     0.38124
      H   24    0.09120      0.00000     0.40753    0.00128     0.40880
      H   25    0.10834      0.00000     0.39034    0.00132     0.39166
      H   26    0.08247      0.00000     0.41561    0.00193     0.41753
      H   27    0.09837      0.00000     0.39946    0.00217     0.40163
      H   28    0.10739      0.00000     0.39037    0.00224     0.39261
      H   29    0.09663      0.00000     0.40111    0.00227     0.40337
      H   30    0.09534      0.00000     0.40246    0.00219     0.40466
      H   31    0.09595      0.00000     0.40254    0.00151     0.40405
      H   32    0.09915      0.00000     0.39993    0.00093     0.40085
      H   33    0.09782      0.00000     0.40128    0.00090     0.40218
      H   34    0.08022      0.00000     0.41853    0.00124     0.41978
      H   35    0.09697      0.00000     0.40179    0.00124     0.40303
      H   36    0.09561      0.00000     0.40319    0.00119     0.40439
      H   37    0.08970      0.00000     0.40922    0.00108     0.41030
      H   38    0.08181      0.00000     0.41580    0.00240     0.41819
      H   39    0.17776      0.00000     0.31982    0.00242     0.32224
      H   40    0.17420      0.00000     0.32353    0.00227     0.32580
 =======================================================================
   * Total *    0.00000     19.99422    47.72627    0.27950    68.00000

 Normal termination of Gaussian 16 at Fri Dec 11 01:05:55 2020.
