 Gaussian 16, Revision A.03,

 -----------------------------------------------------------
 # opt freq B3LYP/6-31G(d) empiricaldispersion=gd3bj scf=xqc
 -----------------------------------------------------------

 ------------------------------
 CID_61884564_JID_7799_neutraal
 ------------------------------
 Symbolic Z-matrix:
 Charge =  0 Multiplicity = 1

 SCF Done:  E(RB3LYP) =  -787.123072879     A.U. after   14 cycles
 SCF Done:  E(RB3LYP) =  -787.121377497     A.U. after   13 cycles
 SCF Done:  E(RB3LYP) =  -787.126205714     A.U. after   12 cycles
 SCF Done:  E(RB3LYP) =  -787.127476682     A.U. after   12 cycles
 SCF Done:  E(RB3LYP) =  -787.127489776     A.U. after   12 cycles
 SCF Done:  E(RB3LYP) =  -787.128651969     A.U. after   12 cycles
 SCF Done:  E(RB3LYP) =  -787.129101423     A.U. after   12 cycles
 SCF Done:  E(RB3LYP) =  -787.129181611     A.U. after   11 cycles
 SCF Done:  E(RB3LYP) =  -787.129503650     A.U. after   11 cycles
 SCF Done:  E(RB3LYP) =  -787.129632352     A.U. after   11 cycles
 SCF Done:  E(RB3LYP) =  -787.134529117     A.U. after    8 cycles
 SCF Done:  E(RB3LYP) =  -787.134530173     A.U. after    9 cycles
 SCF Done:  E(RB3LYP) =  -787.134530360     A.U. after    8 cycles
 SCF Done:  E(RB3LYP) =  -787.134530388     A.U. after    7 cycles
 SCF Done:  E(RB3LYP) =  -787.134530400     A.U. after    6 cycles
 Optimization completed.
    -- Stationary point found.
 Normal termination of Gaussian 16 at Fri Dec 11 13:33:22 2020.

 --------------------------------------------------------------------
 #N Geom=AllCheck Guess=TCheck SCRF=Check GenChk RB3LYP/6-31G(d) Freq
 --------------------------------------------------------------------

 Structure from the checkpoint file:  "JID_7799.chk"
 ------------------------------
 CID_61884564_JID_7799_neutraal
 ------------------------------
 Charge =  0 Multiplicity = 1

 SCF Done:  E(RB3LYP) =  -787.134530400     A.U. after    1 cycles

  Exact polarizability: 153.113  -1.555 150.936   9.326  -0.713 146.940
 Approx polarizability: 194.332  -3.815 209.340  18.179  -9.281 231.602

                      1                      2                      3
                      A                      A                      A
 Frequencies --     19.6964                42.6807                54.8383
 Red. masses --      4.0731                 4.1015                 4.1781
 Frc consts  --      0.0009                 0.0044                 0.0074
 IR Inten    --      3.2455                 2.4838                 0.6231

                      4                      5                      6
                      A                      A                      A
 Frequencies --     63.6697                71.8279                79.8954
 Red. masses --      3.7484                 3.3713                 3.4024
 Frc consts  --      0.0090                 0.0102                 0.0128
 IR Inten    --      0.8509                 0.0974                 0.4700

                      7                      8                      9
                      A                      A                      A
 Frequencies --     82.7489                98.9741               110.7632
 Red. masses --      5.1076                 3.8039                 2.7259
 Frc consts  --      0.0206                 0.0220                 0.0197
 IR Inten    --      4.2694                 1.2786                 1.0632

                     10                     11                     12
                      A                      A                      A
 Frequencies --    143.5283               149.6019               184.8003
 Red. masses --      1.9499                 3.3518                 2.3449
 Frc consts  --      0.0237                 0.0442                 0.0472
 IR Inten    --      0.3271                 0.7680                 1.9680

                     13                     14                     15
                      A                      A                      A
 Frequencies --    200.3331               205.5075               231.5639
 Red. masses --      3.0944                 1.0940                 1.4121
 Frc consts  --      0.0732                 0.0272                 0.0446
 IR Inten    --      0.3329                 0.0667                 0.3078

                     16                     17                     18
                      A                      A                      A
 Frequencies --    235.5367               251.1723               258.0834
 Red. masses --      1.5886                 1.3739                 1.6853
 Frc consts  --      0.0519                 0.0511                 0.0661
 IR Inten    --      0.5246                 0.1828                 0.7524

                     19                     20                     21
                      A                      A                      A
 Frequencies --    266.9560               322.9797               341.0824
 Red. masses --      1.7512                 2.4793                 2.9889
 Frc consts  --      0.0735                 0.1524                 0.2049
 IR Inten    --      1.9117                 2.7845                 0.2379

                     22                     23                     24
                      A                      A                      A
 Frequencies --    351.3303               366.7458               401.4212
 Red. masses --      2.5838                 2.5016                 3.1920
 Frc consts  --      0.1879                 0.1982                 0.3031
 IR Inten    --      0.8509                 2.2484                 2.2079

                     25                     26                     27
                      A                      A                      A
 Frequencies --    424.1121               453.7035               463.9944
 Red. masses --      2.8814                 2.2640                 2.4799
 Frc consts  --      0.3054                 0.2746                 0.3146
 IR Inten    --      1.6552                 3.7572                 0.3349

                     28                     29                     30
                      A                      A                      A
 Frequencies --    513.8700               554.5744               577.6330
 Red. masses --      2.9271                 2.5605                 3.1414
 Frc consts  --      0.4554                 0.4640                 0.6176
 IR Inten    --     21.7301                43.5273                17.5612

                     31                     32                     33
                      A                      A                      A
 Frequencies --    601.2194               613.1115               624.2846
 Red. masses --      1.9786                 1.9759                 1.7214
 Frc consts  --      0.4214                 0.4376                 0.3953
 IR Inten    --     30.4170                58.4902                 8.9469

                     34                     35                     36
                      A                      A                      A
 Frequencies --    692.6429               720.4071               756.1290
 Red. masses --      1.7901                 1.8324                 3.0224
 Frc consts  --      0.5060                 0.5603                 1.0181
 IR Inten    --    171.1045                38.5839                23.4484

                     37                     38                     39
                      A                      A                      A
 Frequencies --    770.7075               792.8405               813.4268
 Red. masses --      2.2832                 1.7006                 1.8397
 Frc consts  --      0.7990                 0.6298                 0.7172
 IR Inten    --      5.0810                 2.8928                21.0057

                     40                     41                     42
                      A                      A                      A
 Frequencies --    865.1597               871.9956               886.3256
 Red. masses --      2.1641                 2.7029                 2.4340
 Frc consts  --      0.9544                 1.2109                 1.1266
 IR Inten    --      8.4867                 3.7501                 4.0447

                     43                     44                     45
                      A                      A                      A
 Frequencies --    912.9454               941.9552               948.2013
 Red. masses --      1.3844                 1.9163                 1.3943
 Frc consts  --      0.6798                 1.0018                 0.7386
 IR Inten    --      4.4381                 5.5337                 0.7102

                     46                     47                     48
                      A                      A                      A
 Frequencies --    963.1996               992.4317               998.9694
 Red. masses --      1.3211                 1.7110                 2.1945
 Frc consts  --      0.7222                 0.9929                 1.2903
 IR Inten    --      0.0885                23.6189                 2.8776

                     49                     50                     51
                      A                      A                      A
 Frequencies --   1029.8688              1049.3107              1077.9977
 Red. masses --      1.6406                 1.9510                 2.7768
 Frc consts  --      1.0252                 1.2656                 1.9012
 IR Inten    --      4.3461                 7.9403                 7.0339

                     52                     53                     54
                      A                      A                      A
 Frequencies --   1095.2547              1101.9994              1135.8566
 Red. masses --      2.2274                 1.7071                 1.7868
 Frc consts  --      1.5743                 1.2214                 1.3582
 IR Inten    --     15.9120                 7.8533                 3.1361

                     55                     56                     57
                      A                      A                      A
 Frequencies --   1147.8689              1162.0865              1184.3395
 Red. masses --      2.5200                 2.2103                 2.2506
 Frc consts  --      1.9563                 1.7586                 1.8600
 IR Inten    --      5.9696                14.7883                52.9351

                     58                     59                     60
                      A                      A                      A
 Frequencies --   1189.1209              1201.3148              1210.3063
 Red. masses --      2.1875                 1.8612                 2.5233
 Frc consts  --      1.8224                 1.5826                 2.1778
 IR Inten    --     44.6710                21.7313                14.4136

                     61                     62                     63
                      A                      A                      A
 Frequencies --   1237.3020              1276.4712              1293.8786
 Red. masses --      1.4265                 1.4703                 1.3600
 Frc consts  --      1.2867                 1.4114                 1.3414
 IR Inten    --     21.0969                18.5323                19.4636

                     64                     65                     66
                      A                      A                      A
 Frequencies --   1324.0349              1332.8176              1347.7020
 Red. masses --      1.2045                 1.4721                 1.3360
 Frc consts  --      1.2441                 1.5407                 1.4297
 IR Inten    --      0.1949                40.5101                13.4833

                     67                     68                     69
                      A                      A                      A
 Frequencies --   1365.7170              1369.6945              1390.3383
 Red. masses --      1.3187                 1.3311                 1.2242
 Frc consts  --      1.4492                 1.4714                 1.3942
 IR Inten    --     14.4189                 3.3682                18.0208

                     70                     71                     72
                      A                      A                      A
 Frequencies --   1395.9925              1400.9043              1408.2375
 Red. masses --      1.3064                 2.3390                 1.5305
 Frc consts  --      1.5000                 2.7046                 1.7882
 IR Inten    --     17.0616                93.2063                25.3101

                     73                     74                     75
                      A                      A                      A
 Frequencies --   1412.5962              1431.1385              1434.7184
 Red. masses --      1.3018                 1.2538                 1.2431
 Frc consts  --      1.5305                 1.5130                 1.5076
 IR Inten    --      7.3020                 3.6052                 7.8907

                     76                     77                     78
                      A                      A                      A
 Frequencies --   1438.0560              1450.1130              1451.3892
 Red. masses --      1.4050                 1.4428                 1.2422
 Frc consts  --      1.7119                 1.7875                 1.5417
 IR Inten    --     45.7592                10.3770                18.8434

                     79                     80                     81
                      A                      A                      A
 Frequencies --   1490.2380              1497.6236              1504.0912
 Red. masses --      1.6443                 1.4643                 1.1851
 Frc consts  --      2.1514                 1.9351                 1.5796
 IR Inten    --     36.6003                48.7624                11.4391

                     82                     83                     84
                      A                      A                      A
 Frequencies --   1508.4987              1513.3606              1517.3924
 Red. masses --      1.0806                 1.0529                 1.0522
 Frc consts  --      1.4488                 1.4207                 1.4274
 IR Inten    --      1.1741                 0.4067                 1.8837

                     85                     86                     87
                      A                      A                      A
 Frequencies --   1518.2385              1525.5355              1526.3113
 Red. masses --      1.1457                 1.0766                 1.0699
 Frc consts  --      1.5560                 1.4762                 1.4685
 IR Inten    --     56.2589                 5.9493                 2.7059

                     88                     89                     90
                      A                      A                      A
 Frequencies --   1528.2722              1530.2282              1533.0890
 Red. masses --      1.1092                 1.1116                 1.1110
 Frc consts  --      1.5264                 1.5336                 1.5385
 IR Inten    --      1.7451                13.8021                21.1974

                     91                     92                     93
                      A                      A                      A
 Frequencies --   1535.7470              1539.3358              1543.5560
 Red. masses --      1.1173                 1.1074                 1.0527
 Frc consts  --      1.5526                 1.5460                 1.4778
 IR Inten    --     22.8415                 7.3853                22.8762

                     94                     95                     96
                      A                      A                      A
 Frequencies --   1759.6660              1768.7400              3028.4218
 Red. masses --      7.0242                 7.3254                 1.0664
 Frc consts  --     12.8147                13.5024                 5.7624
 IR Inten    --    120.1266               511.9109                45.2644

                     97                     98                     99
                      A                      A                      A
 Frequencies --   3045.0080              3046.3805              3046.9694
 Red. masses --      1.0433                 1.0673                 1.0374
 Frc consts  --      5.6993                 5.8356                 5.6748
 IR Inten    --     25.3897                22.4302                14.4552

                    100                    101                    102
                      A                      A                      A
 Frequencies --   3052.5314              3054.0501              3063.8361
 Red. masses --      1.0387                 1.0361                 1.0617
 Frc consts  --      5.7025                 5.6937                 5.8718
 IR Inten    --     29.5479                20.4210                42.7451

                    103                    104                    105
                      A                      A                      A
 Frequencies --   3070.1076              3089.2204              3095.2258
 Red. masses --      1.0672                 1.0887                 1.0954
 Frc consts  --      5.9264                 6.1216                 6.1830
 IR Inten    --     31.1446                 1.0043                20.5318

                    106                    107                    108
                      A                      A                      A
 Frequencies --   3099.3111              3109.0287              3109.5339
 Red. masses --      1.1013                 1.0930                 1.0936
 Frc consts  --      6.2330                 6.2248                 6.2300
 IR Inten    --     13.9135                14.5147                 8.6456

                    109                    110                    111
                      A                      A                      A
 Frequencies --   3113.0547              3118.8978              3125.9464
 Red. masses --      1.1004                 1.1025                 1.0983
 Frc consts  --      6.2830                 6.3190                 6.3233
 IR Inten    --      3.7615                25.2916                65.7218

                    112                    113                    114
                      A                      A                      A
 Frequencies --   3129.6221              3135.4747              3139.7625
 Red. masses --      1.0987                 1.1035                 1.1015
 Frc consts  --      6.3401                 6.3921                 6.3978
 IR Inten    --     38.9655                24.8680                26.8426

                    115                    116                    117
                      A                      A                      A
 Frequencies --   3142.3030              3144.2141              3148.3253
 Red. masses --      1.0937                 1.0958                 1.0985
 Frc consts  --      6.3630                 6.3830                 6.4152
 IR Inten    --     22.2513                30.1814                13.9962

                    118                    119                    120
                      A                      A                      A
 Frequencies --   3562.0348              3581.7479              3587.2501
 Red. masses --      1.0747                 1.0737                 1.0756
 Frc consts  --      8.0338                 8.1154                 8.1548
 IR Inten    --      9.9026                 5.1764                14.0388

 - Thermochemistry -
 -------------------
 Temperature   298.150 Kelvin.  Pressure   1.00000 Atm.
 Atom     1 has atomic number  6 and mass  12.00000

 Molecular mass:   243.19468 amu.
 Principal axes and moments of inertia in atomic units:
                           1         2         3
     Eigenvalues --  3231.538715562.862745766.22420
           X            0.99879  -0.02654   0.04146
           Y            0.01712   0.97692   0.21292
           Z           -0.04615  -0.21195   0.97619
 This molecule is an asymmetric top.
 Rotational symmetry number  1.
 Warning -- assumption of classical behavior for rotation
           may cause significant error
 Rotational temperatures (Kelvin)      0.02680     0.01557     0.01502
 Rotational constants (GHZ):           0.55848     0.32443     0.31298
 Zero-point vibrational energy     991789.1 (Joules/Mol)
                                  237.04328 (Kcal/Mol)
 Warning -- explicit consideration of  32 degrees of freedom as
           vibrations may cause significant error
 Vibrational temperatures:     28.34    61.41    78.90    91.61   103.34
          (Kelvin)            114.95   119.06   142.40   159.36   206.51
                              215.24   265.89   288.23   295.68   333.17
                              338.88   361.38   371.32   384.09   464.70
                              490.74   505.49   527.67   577.56   610.20
                              652.78   667.58   739.34   797.91   831.09
                              865.02   882.13   898.21   996.56  1036.51
                             1087.90  1108.88  1140.72  1170.34  1244.77
                             1254.61  1275.22  1313.52  1355.26  1364.25
                             1385.83  1427.89  1437.29  1481.75  1509.72
                             1551.00  1575.83  1585.53  1634.24  1651.53
                             1671.98  1704.00  1710.88  1728.42  1741.36
                             1780.20  1836.56  1861.60  1904.99  1917.63
                             1939.04  1964.96  1970.68  2000.39  2008.52
                             2015.59  2026.14  2032.41  2059.09  2064.24
                             2069.04  2086.39  2088.23  2144.12  2154.75
                             2164.05  2170.39  2177.39  2183.19  2184.41
                             2194.91  2196.02  2198.84  2201.66  2205.77
                             2209.60  2214.76  2220.83  2531.77  2544.82
                             4357.22  4381.09  4383.06  4383.91  4391.91
                             4394.10  4408.18  4417.20  4444.70  4453.34
                             4459.22  4473.20  4473.93  4478.99  4487.40
                             4497.54  4502.83  4511.25  4517.42  4521.07
                             4523.82  4529.74  5124.97  5153.34  5161.25

 Zero-point correction=                           0.377753 (Hartree/Particle)
 Thermal correction to Energy=                    0.398282
 Thermal correction to Enthalpy=                  0.399227
 Thermal correction to Gibbs Free Energy=         0.327848
 Sum of electronic and zero-point Energies=           -786.756778
 Sum of electronic and thermal Energies=              -786.736248
 Sum of electronic and thermal Enthalpies=            -786.735304
 Sum of electronic and thermal Free Energies=         -786.806682

                     E (Thermal)             CV                S
                      KCal/Mol        Cal/Mol-Kelvin    Cal/Mol-Kelvin
 Total                  249.926             74.982            150.229
 Electronic               0.000              0.000              0.000
 Translational            0.889              2.981             42.367
 Rotational               0.889              2.981             33.005
 Vibrational            248.149             69.020             74.857
 Vibration     1          0.593              1.986              6.665
 Vibration     2          0.595              1.980              5.131
 Vibration     3          0.596              1.976              4.635
 Vibration     4          0.597              1.972              4.340
 Vibration     5          0.598              1.967              4.103
 Vibration     6          0.600              1.963              3.893
 Vibration     7          0.600              1.961              3.825
 Vibration     8          0.604              1.950              3.474
 Vibration     9          0.607              1.941              3.255
 Vibration    10          0.616              1.910              2.756
 Vibration    11          0.618              1.903              2.677
 Vibration    12          0.631              1.861              2.279
 Vibration    13          0.638              1.839              2.130
 Vibration    14          0.640              1.832              2.083
 Vibration    15          0.653              1.793              1.867
 Vibration    16          0.655              1.786              1.836
 Vibration    17          0.663              1.761              1.722
 Vibration    18          0.667              1.749              1.675
 Vibration    19          0.672              1.734              1.616
 Vibration    20          0.708              1.629              1.295
 Vibration    21          0.721              1.593              1.207
 Vibration    22          0.728              1.573              1.160
 Vibration    23          0.740              1.541              1.093
 Vibration    24          0.767              1.467              0.957
 Vibration    25          0.786              1.418              0.878
 Vibration    26          0.812              1.353              0.785
 Vibration    27          0.822              1.330              0.755
 Vibration    28          0.869              1.219              0.624
 Vibration    29          0.910              1.130              0.535
 Vibration    30          0.934              1.080              0.490
 Vibration    31          0.959              1.029              0.448
 Vibration    32          0.972              1.004              0.428

 Optimization completed.
    -- Stationary point found.
 Normal termination of Gaussian 16 at Fri Dec 11 13:54:15 2020.

 ----------------------------------------------------------------------
 # B3LYP/6-311++G(d,p) empiricaldispersion=gd3bj scf=xqc pop=npa geom=c
 heck
 ----------------------------------------------------------------------

 --------------------------------------
 CID_61884564_JID_7799_Energie_neutraal
 --------------------------------------
 Structure from the checkpoint file:  "JID_7799.chk"
 Charge =  0 Multiplicity = 1

 SCF Done:  E(RB3LYP) =  -787.372166495     A.U. after   14 cycles
 Normal termination of Gaussian 16 at Fri Dec 11 14:02:32 2020.

 ----------------------------------------------------------------------
 # B3LYP/6-311++G(d,p) empiricaldispersion=gd3bj scf=xqc pop=npa geom=c
 heck
 ----------------------------------------------------------------------

 ------------------------------------
 CID_61884564_JID_7799_Energie_kation
 ------------------------------------
 Structure from the checkpoint file:  "JID_7799.chk"
 Charge =  1 Multiplicity = 2

 SCF Done:  E(UB3LYP) =  -787.078182737     A.U. after   26 cycles
 Normal termination of Gaussian 16 at Fri Dec 11 14:22:29 2020.
 Gaussian 16:  ES64L-G16RevA.03 25-Dec-2016

 ----------------------------------------------------------------------
 # B3LYP/6-311++G(d,p) empiricaldispersion=gd3bj scf=xqc pop=npa geom=c
 heck
 ----------------------------------------------------------------------

 -----------------------------------
 CID_61884564_JID_7799_Energie_anion
 -----------------------------------
 Structure from the checkpoint file:  "JID_7799.chk"
 Charge = -1 Multiplicity = 2

                         Standard orientation:
 ---------------------------------------------------------------------
 Center     Atomic      Atomic             Coordinates (Angstroms)
 Number     Number       Type             X           Y           Z
 ---------------------------------------------------------------------
      1          6           0        1.163518   -2.496375    0.815816
      2          6           0        2.137966   -1.445984    1.347988
      3          6           0        3.275718   -1.108840    0.373186
      4          7           0        2.831657   -0.563303   -0.910842
      5          6           0        2.266212    0.654311   -1.154821
      6          8           0        1.673480    0.878489   -2.211543
      7          6           0        2.379923    1.735977   -0.087284
      8          6           0        0.971227    2.292864    0.199556
      9          7           0        0.020497    1.182616    0.225690
     10          6           0       -1.071509    1.218773    1.190762
     11          6           0       -2.169209    2.275911    0.964649
     12          6           0       -1.599604   -0.216197    1.363385
     13          8           0       -1.470531   -0.796530    2.438064
     14          7           0       -2.203933   -0.847767    0.309775
     15          6           0       -2.399537   -0.465648   -1.089719
     16          6           0       -1.419576   -1.196881   -2.017148
     17          6           0       -3.857503   -0.725196   -1.483270
     18          1           0        0.702319   -2.157756   -0.117312
     19          1           0        0.357008   -2.662056    1.535958
     20          1           0        1.664810   -3.453909    0.623410
     21          1           0        1.575850   -0.535355    1.576848
     22          1           0        2.590318   -1.794271    2.286224
     23          1           0        3.979196   -0.407715    0.833487
     24          1           0        3.851902   -2.012031    0.141919
     25          1           0        2.628529   -1.229532   -1.646565
     26          1           0        2.818331    1.352874    0.835588
     27          1           0        3.037240    2.526817   -0.468830
     28          1           0        0.969704    2.787456    1.176634
     29          1           0        0.710256    3.051163   -0.551075
     30          1           0       -0.292268    0.996957   -0.719612
     31          1           0       -0.615991    1.422284    2.163961
     32          1           0       -2.681108    2.160392    0.004730
     33          1           0       -2.923277    2.221115    1.758042
     34          1           0       -1.727632    3.278397    0.987113
     35          1           0       -2.450052   -1.804859    0.540791
     36          1           0       -2.218422    0.607362   -1.167515
     37          1           0       -1.523257   -2.282508   -1.900858
     38          1           0       -1.622838   -0.946838   -3.064167
     39          1           0       -0.383551   -0.921893   -1.801899
     40          1           0       -4.539719   -0.173438   -0.829269
     41          1           0       -4.039282   -0.422074   -2.519668
     42          1           0       -4.094965   -1.793360   -1.401086
 ---------------------------------------------------------------------

 SCF Done:  E(UB3LYP) =  -787.359697857     A.U. after   33 cycles
 SCF Done:  E(UB3LYP) =  -787.359697857     a.u. after    1 cycles

 The electronic state is 2-A.
 Alpha  occ. eigenvalues --  -18.99497 -18.99322 -14.24507 -14.24355 -14.21075
 Alpha  occ. eigenvalues --  -10.18231 -10.17968 -10.13228 -10.12089 -10.11821
 Alpha  occ. eigenvalues --  -10.11214 -10.08739 -10.07728 -10.07719 -10.07330
 Alpha  occ. eigenvalues --  -10.07265 -10.06080  -0.94581  -0.94477  -0.83725
 Alpha  occ. eigenvalues --   -0.83165  -0.82171  -0.69846  -0.68963  -0.68504
 Alpha  occ. eigenvalues --   -0.64603  -0.60619  -0.60075  -0.57546  -0.54324
 Alpha  occ. eigenvalues --   -0.52650  -0.51060  -0.50020  -0.46664  -0.42293
 Alpha  occ. eigenvalues --   -0.41037  -0.40299  -0.39420  -0.38552  -0.36992
 Alpha  occ. eigenvalues --   -0.36461  -0.35569  -0.35142  -0.34669  -0.34226
 Alpha  occ. eigenvalues --   -0.32838  -0.32322  -0.32007  -0.30930  -0.30601
 Alpha  occ. eigenvalues --   -0.30560  -0.29609  -0.28693  -0.28521  -0.28025
 Alpha  occ. eigenvalues --   -0.27344  -0.26820  -0.26448  -0.25627  -0.25209
 Alpha  occ. eigenvalues --   -0.24934  -0.24450  -0.17126  -0.17027  -0.16390
 Alpha  occ. eigenvalues --   -0.16259  -0.13570   0.03973
 Alpha virt. eigenvalues --    0.05491   0.05846   0.07237   0.07533   0.07743
 Alpha virt. eigenvalues --    0.08390   0.09066   0.09253   0.09737   0.10185
 Alpha virt. eigenvalues --    0.10493   0.10647   0.10864   0.11153   0.11590

  Beta  occ. eigenvalues --  -18.99494 -18.99317 -14.24497 -14.24344 -14.21074
  Beta  occ. eigenvalues --  -10.18231 -10.17966 -10.13221 -10.12083 -10.11795
  Beta  occ. eigenvalues --  -10.11197 -10.08721 -10.07691 -10.07687 -10.07310
  Beta  occ. eigenvalues --  -10.07257 -10.06064  -0.94574  -0.94469  -0.83710
  Beta  occ. eigenvalues --   -0.83144  -0.82159  -0.69821  -0.68935  -0.68477
  Beta  occ. eigenvalues --   -0.64572  -0.60563  -0.60031  -0.57501  -0.54287
  Beta  occ. eigenvalues --   -0.52599  -0.51023  -0.49995  -0.46624  -0.42272
  Beta  occ. eigenvalues --   -0.40995  -0.40275  -0.39392  -0.38528  -0.36962
  Beta  occ. eigenvalues --   -0.36437  -0.35533  -0.35114  -0.34645  -0.34204
  Beta  occ. eigenvalues --   -0.32813  -0.32292  -0.31987  -0.30893  -0.30565
  Beta  occ. eigenvalues --   -0.30531  -0.29580  -0.28670  -0.28494  -0.27995
  Beta  occ. eigenvalues --   -0.27313  -0.26800  -0.26420  -0.25601  -0.25179
  Beta  occ. eigenvalues --   -0.24907  -0.24424  -0.17111  -0.17015  -0.16374
  Beta  occ. eigenvalues --   -0.16242  -0.13560
  Beta virt. eigenvalues --    0.05981   0.06493   0.06565   0.07816   0.07917
  Beta virt. eigenvalues --    0.08218   0.08713   0.09306   0.09642   0.10139
  Beta virt. eigenvalues --    0.10368   0.10595   0.10835   0.11126   0.11430

 Mulliken charges and spin densities:
               1          2
     1  C   -0.282952  -0.322718
     2  C   -0.366977   0.435861
     3  C    0.910866  -1.433598
     4  N   -0.104223   0.045291
     5  C   -0.745114   0.418552
     6  O   -0.302277   0.013285
     7  C    0.690298  -0.695620
     8  C    0.090753  -0.578015
     9  N    0.134304  -0.026698
    10  C   -0.809481   0.848257
    11  C    0.439699  -1.054739
    12  C    0.236913  -0.566161
    13  O   -0.273195   0.012334
    14  N   -0.049806   0.095272
    15  C   -1.478143   1.302395
    16  C    0.176282  -0.629340
    17  C    1.301995  -1.741119
    18  H    0.360546  -0.232086
    19  H    0.065314   0.096785
    20  H   -0.232694   0.376107
    21  H    0.166611   0.006881
    22  H   -0.070812   0.243681
    23  H   -0.290132   0.459272
    24  H   -0.270917   0.436432
    25  H    0.030672   0.273598
    26  H    0.198647  -0.069624
    27  H   -0.197255   0.405594
    28  H   -0.171078   0.321012
    29  H    0.153645   0.033796
    30  H    0.088073   0.173014
    31  H    0.117781   0.110163
    32  H   -0.392817   0.539117
    33  H   -0.012533   0.175046
    34  H   -0.182955   0.342982
    35  H    0.294286   0.010284
    36  H    0.569326  -0.470391
    37  H   -0.071335   0.214680
    38  H   -0.019954   0.174195
    39  H    0.035132   0.066851
    40  H   -0.189616   0.347437
    41  H   -0.327382   0.478667
    42  H   -0.219493   0.363264
 Sum of Mulliken charges =  -1.00000   1.00000

 Dipole moment (field-independent basis, Debye):
    X=              0.9240    Y=              0.4306    Z=              0.6197  Tot=              1.1930
 Quadrupole moment (field-independent basis, Debye-Ang):
   XX=           -185.5198   YY=           -157.2731   ZZ=           -158.9893
   XY=              4.6398   XZ=             -2.8456   YZ=              2.6371

 Summary of Natural Population Analysis:

                                       Natural Population
                Natural  -----------------------------------------------
    Atom  No    Charge         Core      Valence    Rydberg      Total
 -----------------------------------------------------------------------
      C    1   -0.29049      0.99966     2.28532    0.00551     3.29049
      C    2   -0.19901      0.99963     2.19209    0.00729     3.19901
      C    3   -0.08763      0.99961     2.07695    0.01107     3.08763
      N    4   -0.31666      0.99966     2.80614    0.01087     3.81666
      C    5    0.34970      0.99966     1.62645    0.02418     2.65030
      O    6   -0.33777      0.99988     3.33244    0.00545     4.33777
      C    7   -0.23212      0.99958     2.22453    0.00801     3.23212
      C    8   -0.08020      0.99963     2.06933    0.01124     3.08020
      N    9   -0.35656      0.99972     2.84549    0.01134     3.85656
      C   10   -0.04176      0.99956     2.03040    0.01180     3.04176
      C   11   -0.29336      0.99964     2.28839    0.00533     3.29336
      C   12    0.34969      0.99963     1.62599    0.02469     2.65031
      O   13   -0.32720      0.99988     3.32195    0.00536     4.32720
      N   14   -0.32006      0.99965     2.80944    0.01097     3.82006
      C   15   -0.01789      0.99960     2.00797    0.01032     3.01789
      C   16   -0.28957      0.99963     2.28397    0.00597     3.28957
      C   17   -0.28457      0.99964     2.27908    0.00585     3.28457
      H   18    0.09737      0.00000     0.40099    0.00163     0.40263
      H   19    0.10867      0.00000     0.39039    0.00094     0.39133
      H   20    0.09229      0.00000     0.40673    0.00098     0.40771
      H   21    0.10470      0.00000     0.39276    0.00255     0.39530
      H   22    0.09462      0.00000     0.40436    0.00102     0.40538
      H   23    0.09680      0.00000     0.40190    0.00129     0.40320
      H   24    0.09870      0.00000     0.39977    0.00153     0.40130
      H   25    0.19349      0.00000     0.30422    0.00229     0.30651
      H   26    0.10153      0.00000     0.39694    0.00153     0.39847
      H   27    0.11031      0.00000     0.38854    0.00115     0.38969
      H   28    0.09524      0.00000     0.40367    0.00109     0.40476
      H   29    0.09023      0.00000     0.40867    0.00109     0.40977
      H   30    0.18471      0.00000     0.31128    0.00401     0.31529
      H   31    0.10434      0.00000     0.39394    0.00171     0.39566
      H   32    0.09756      0.00000     0.40113    0.00131     0.40244
      H   33    0.10358      0.00000     0.39541    0.00100     0.39642
      H   34    0.10194      0.00000     0.39710    0.00096     0.39806
      H   35    0.19159      0.00000     0.30628    0.00213     0.30841
      H   36    0.09488      0.00000     0.40230    0.00283     0.40512
      H   37    0.09760      0.00000     0.40133    0.00107     0.40240
      H   38    0.10251      0.00000     0.39667    0.00082     0.39749
      H   39    0.10752      0.00000     0.39084    0.00164     0.39248
      H   40    0.10414      0.00000     0.39458    0.00128     0.39586
      H   41    0.10324      0.00000     0.39562    0.00114     0.39676
      H   42    0.09787      0.00000     0.40084    0.00130     0.40213
 =======================================================================
   * Total *   -0.00000     16.99427    49.79218    0.21355    67.00000

 Normal termination of Gaussian 16 at Fri Dec 11 14:47:17 2020.
