 Gaussian 16, Revision A.03,

 -----------------------------------------------------------
 # opt freq B3LYP/6-31G(d) empiricaldispersion=gd3bj scf=xqc
 -----------------------------------------------------------

 ------------------------------
 CID_79538242_JID_7859_neutraal
 ------------------------------
 Symbolic Z-matrix:
 Charge =  0 Multiplicity = 1

 SCF Done:  E(RB3LYP) =  -1090.41471894     A.U. after   17 cycles
 SCF Done:  E(RB3LYP) =  -1090.41889115     A.U. after   13 cycles
 SCF Done:  E(RB3LYP) =  -1090.41815526     A.U. after   13 cycles
 SCF Done:  E(RB3LYP) =  -1090.42073995     A.U. after   12 cycles
 SCF Done:  E(RB3LYP) =  -1090.42141987     A.U. after   12 cycles
 SCF Done:  E(RB3LYP) =  -1090.42164658     A.U. after   12 cycles
 SCF Done:  E(RB3LYP) =  -1090.42165748     A.U. after   11 cycles
 SCF Done:  E(RB3LYP) =  -1090.42171034     A.U. after   11 cycles
 SCF Done:  E(RB3LYP) =  -1090.42172060     A.U. after    9 cycles
 SCF Done:  E(RB3LYP) =  -1090.42172420     A.U. after    9 cycles
 SCF Done:  E(RB3LYP) =  -1090.42172522     A.U. after    7 cycles
 SCF Done:  E(RB3LYP) =  -1090.42172529     A.U. after    7 cycles
 SCF Done:  E(RB3LYP) =  -1090.42172539     A.U. after    8 cycles
 SCF Done:  E(RB3LYP) =  -1090.42172547     A.U. after    7 cycles
 SCF Done:  E(RB3LYP) =  -1090.42172554     A.U. after    7 cycles
 SCF Done:  E(RB3LYP) =  -1090.42172556     A.U. after    6 cycles
 Optimization completed.
    -- Stationary point found.
 Normal termination of Gaussian 16 at Fri Dec 11 13:26:43 2020.

 --------------------------------------------------------------------
 #N Geom=AllCheck Guess=TCheck SCRF=Check GenChk RB3LYP/6-31G(d) Freq
 --------------------------------------------------------------------

 Structure from the checkpoint file:  "JID_7859.chk"
 ------------------------------
 CID_79538242_JID_7859_neutraal
 ------------------------------
 Charge =  0 Multiplicity = 1

 SCF Done:  E(RB3LYP) =  -1090.42172556     A.U. after    1 cycles

  Exact polarizability: 198.386  10.252 172.806  15.553  -6.176 129.307
 Approx polarizability: 266.781  21.942 274.132  34.054 -21.162 205.878

                      1                      2                      3
                      A                      A                      A
 Frequencies --     21.7935                28.2447                56.8823
 Red. masses --      4.5419                 3.6113                 3.7360
 Frc consts  --      0.0013                 0.0017                 0.0071
 IR Inten    --      1.0783                 0.0673                 0.1473

                      4                      5                      6
                      A                      A                      A
 Frequencies --     74.8695                82.5411               109.7814
 Red. masses --      2.2640                 1.1918                 1.2861
 Frc consts  --      0.0075                 0.0048                 0.0091
 IR Inten    --      0.6129                 0.9189                 0.2587

                      7                      8                      9
                      A                      A                      A
 Frequencies --    124.3822               145.7774               154.4902
 Red. masses --      2.6758                 7.1532                 3.0040
 Frc consts  --      0.0244                 0.0896                 0.0422
 IR Inten    --      1.7210                 0.0554                 1.3682

                     10                     11                     12
                      A                      A                      A
 Frequencies --    164.8273               201.4111               214.8831
 Red. masses --      2.6503                 2.3882                 3.7734
 Frc consts  --      0.0424                 0.0571                 0.1027
 IR Inten    --      2.8764                 1.2752                 1.6214

                     13                     14                     15
                      A                      A                      A
 Frequencies --    261.2703               277.5170               312.6331
 Red. masses --      3.2712                 2.9740                 2.3047
 Frc consts  --      0.1316                 0.1349                 0.1327
 IR Inten    --      0.4728                 5.1857                 1.3240

                     16                     17                     18
                      A                      A                      A
 Frequencies --    325.7112               343.4598               359.9260
 Red. masses --      3.7430                 3.3157                 3.0764
 Frc consts  --      0.2340                 0.2305                 0.2348
 IR Inten    --      0.9516                 1.3049                 0.3045

                     19                     20                     21
                      A                      A                      A
 Frequencies --    364.2800               407.5663               470.8687
 Red. masses --      4.4365                 3.0304                 2.9687
 Frc consts  --      0.3469                 0.2966                 0.3878
 IR Inten    --      2.0845                 0.2519                 3.1473

                     22                     23                     24
                      A                      A                      A
 Frequencies --    489.5762               505.5932               523.9081
 Red. masses --      4.4939                 1.7694                 4.7659
 Frc consts  --      0.6346                 0.2665                 0.7707
 IR Inten    --      1.9582                 2.0393                 0.1020

                     25                     26                     27
                      A                      A                      A
 Frequencies --    536.5911               574.5921               618.4342
 Red. masses --      4.3807                 2.7090                 3.1789
 Frc consts  --      0.7432                 0.5270                 0.7163
 IR Inten    --      1.2510                10.7981                20.5351

                     28                     29                     30
                      A                      A                      A
 Frequencies --    648.6641               658.7887               717.3215
 Red. masses --      6.7219                 5.6614                 3.9246
 Frc consts  --      1.6664                 1.4477                 1.1898
 IR Inten    --     20.2567                11.3860                 1.7124

                     31                     32                     33
                      A                      A                      A
 Frequencies --    747.7790               779.1601               787.8539
 Red. masses --      1.9875                 2.7565                 2.5715
 Frc consts  --      0.6548                 0.9859                 0.9404
 IR Inten    --     44.0089                 3.4158                 5.6891

                     34                     35                     36
                      A                      A                      A
 Frequencies --    840.3692               857.3655               880.8623
 Red. masses --      1.8678                 3.5586                 2.2393
 Frc consts  --      0.7772                 1.5412                 1.0237
 IR Inten    --      3.5356                13.1744                 1.4312

                     37                     38                     39
                      A                      A                      A
 Frequencies --    887.0671               915.7105               940.2795
 Red. masses --      1.7438                 2.1245                 1.8280
 Frc consts  --      0.8084                 1.0496                 0.9522
 IR Inten    --     14.5839                 3.8281                 3.7321

                     40                     41                     42
                      A                      A                      A
 Frequencies --    976.2418              1014.7351              1025.9790
 Red. masses --      2.3969                 2.0475                 1.9217
 Frc consts  --      1.3459                 1.2421                 1.1918
 IR Inten    --      4.9523                 6.8496                 1.1639

                     43                     44                     45
                      A                      A                      A
 Frequencies --   1033.4423              1046.6568              1052.8678
 Red. masses --      1.7190                 2.0897                 1.4534
 Frc consts  --      1.0817                 1.3488                 0.9493
 IR Inten    --     12.5412                 6.1193                 0.4895

                     46                     47                     48
                      A                      A                      A
 Frequencies --   1060.3181              1065.7514              1094.9106
 Red. masses --      2.5673                 1.4176                 1.9633
 Frc consts  --      1.7006                 0.9486                 1.3867
 IR Inten    --     10.6005                 1.3115                 1.2430

                     49                     50                     51
                      A                      A                      A
 Frequencies --   1120.9226              1142.3770              1164.2714
 Red. masses --      1.8524                 2.0625                 1.8401
 Frc consts  --      1.3713                 1.5859                 1.4696
 IR Inten    --      0.4588                 4.1265                53.9224

                     52                     53                     54
                      A                      A                      A
 Frequencies --   1193.1007              1195.9770              1201.6512
 Red. masses --      3.1784                 2.3021                 3.8181
 Frc consts  --      2.6657                 1.9401                 3.2483
 IR Inten    --     27.9170                23.3919                40.1161

                     55                     56                     57
                      A                      A                      A
 Frequencies --   1224.4602              1238.0805              1270.8160
 Red. masses --      1.5999                 1.5510                 1.5550
 Frc consts  --      1.4133                 1.4008                 1.4796
 IR Inten    --     12.6448                30.2814                 6.2902

                     58                     59                     60
                      A                      A                      A
 Frequencies --   1280.7607              1292.1888              1324.3211
 Red. masses --      1.3431                 1.2642                 1.2576
 Frc consts  --      1.2981                 1.2437                 1.2995
 IR Inten    --      7.9537                 2.0511                 8.8716

                     61                     62                     63
                      A                      A                      A
 Frequencies --   1326.7022              1364.7848              1374.7550
 Red. masses --      1.2140                 3.4025                 1.4559
 Frc consts  --      1.2590                 3.7340                 1.6211
 IR Inten    --      1.3168                54.9136                42.3029

                     64                     65                     66
                      A                      A                      A
 Frequencies --   1382.0662              1397.1716              1403.0448
 Red. masses --      1.3510                 1.3782                 1.3006
 Frc consts  --      1.5204                 1.5852                 1.5085
 IR Inten    --     10.6144                 2.2091                27.9816

                     67                     68                     69
                      A                      A                      A
 Frequencies --   1409.2641              1414.5311              1432.6205
 Red. masses --      1.3959                 1.4498                 1.4451
 Frc consts  --      1.6334                 1.7092                 1.7475
 IR Inten    --      0.7051                 6.1000                14.5529

                     70                     71                     72
                      A                      A                      A
 Frequencies --   1436.6300              1443.4067              1496.4265
 Red. masses --      1.2704                 1.1990                 1.1112
 Frc consts  --      1.5448                 1.4718                 1.4661
 IR Inten    --      2.2258                 3.0339                 2.3463

                     73                     74                     75
                      A                      A                      A
 Frequencies --   1498.7074              1503.1971              1505.0105
 Red. masses --      1.0446                 1.0990                 1.0760
 Frc consts  --      1.3825                 1.4632                 1.4360
 IR Inten    --      6.9841                 7.6521                 9.6930

                     76                     77                     78
                      A                      A                      A
 Frequencies --   1506.0883              1506.4198              1511.6732
 Red. masses --      1.1096                 1.0528                 1.0876
 Frc consts  --      1.4829                 1.4077                 1.4644
 IR Inten    --     13.2758                10.5715                 5.0370

                     79                     80                     81
                      A                      A                      A
 Frequencies --   1518.9857              1528.8341              1541.2214
 Red. masses --      1.0955                 1.0833                 8.4184
 Frc consts  --      1.4893                 1.4918                11.7818
 IR Inten    --      2.3221                 5.1189               104.5450

                     82                     83                     84
                      A                      A                      A
 Frequencies --   1542.8381              1568.1845              1592.5747
 Red. masses --      1.0927                 1.2587                 5.7498
 Frc consts  --      1.5325                 1.8238                 8.5921
 IR Inten    --      1.4871                16.1268                25.3205

                     85                     86                     87
                      A                      A                      A
 Frequencies --   1754.5744              2914.7718              2960.8120
 Red. masses --     11.0597                 1.0750                 1.0821
 Frc consts  --     20.0603                 5.3808                 5.5891
 IR Inten    --    156.2239                90.9954                24.2021

                     88                     89                     90
                      A                      A                      A
 Frequencies --   3014.6840              3029.7551              3033.5472
 Red. masses --      1.0648                 1.0629                 1.0639
 Frc consts  --      5.7017                 5.7483                 5.7686
 IR Inten    --     23.0406                38.6348                19.6173

                     91                     92                     93
                      A                      A                      A
 Frequencies --   3039.6143              3045.0216              3057.9147
 Red. masses --      1.0735                 1.0808                 1.0369
 Frc consts  --      5.8440                 5.9043                 5.7128
 IR Inten    --     27.9658                26.4676                15.9386

                     94                     95                     96
                      A                      A                      A
 Frequencies --   3058.3000              3067.7773              3074.9401
 Red. masses --      1.0937                 1.0346                 1.0970
 Frc consts  --      6.0269                 5.7367                 6.1115
 IR Inten    --     71.5774                 9.9592                68.6826

                     97                     98                     99
                      A                      A                      A
 Frequencies --   3076.8109              3078.2351              3089.7931
 Red. masses --      1.0636                 1.0995                 1.0996
 Frc consts  --      5.9327                 6.1380                 6.1848
 IR Inten    --      6.0082                38.7459                67.3259

                    100                    101                    102
                      A                      A                      A
 Frequencies --   3114.1116              3132.4223              3133.6522
 Red. masses --      1.1017                 1.1006                 1.1050
 Frc consts  --      6.2948                 6.3629                 6.3931
 IR Inten    --      8.5448                 3.3165                15.1255

                    103                    104                    105
                      A                      A                      A
 Frequencies --   3145.3050              3158.6797              3512.4511
 Red. masses --      1.1048                 1.1013                 1.0756
 Frc consts  --      6.4395                 6.4737                 7.8182
 IR Inten    --     14.1309                 3.7582               134.1057

 - Thermochemistry -
 -------------------
 Temperature   298.150 Kelvin.  Pressure   1.00000 Atm.
 Atom     1 has atomic number  6 and mass  12.00000

 Molecular mass:   252.12964 amu.
 Principal axes and moments of inertia in atomic units:
                           1         2         3
     Eigenvalues --  2498.760877397.219798620.89178
           X            0.99999  -0.00357  -0.00201
           Y            0.00355   0.99995  -0.00961
           Z            0.00204   0.00960   0.99995
 This molecule is an asymmetric top.
 Rotational symmetry number  1.
 Warning -- assumption of classical behavior for rotation
           may cause significant error
 Rotational temperatures (Kelvin)      0.03466     0.01171     0.01005
 Rotational constants (GHZ):           0.72225     0.24398     0.20935
 Zero-point vibrational energy     838170.6 (Joules/Mol)
                                  200.32757 (Kcal/Mol)
 Warning -- explicit consideration of  27 degrees of freedom as
           vibrations may cause significant error
 Vibrational temperatures:     31.36    40.64    81.84   107.72   118.76
          (Kelvin)            157.95   178.96   209.74   222.28   237.15
                              289.79   309.17   375.91   399.29   449.81
                              468.63   494.16   517.85   524.12   586.40
                              677.48   704.39   727.44   753.79   772.03
                              826.71   889.79   933.28   947.85  1032.07
                             1075.89  1121.04  1133.55  1209.10  1233.56
                             1267.36  1276.29  1317.50  1352.85  1404.59
                             1459.98  1476.15  1486.89  1505.91  1514.84
                             1525.56  1533.38  1575.33  1612.76  1643.63
                             1675.13  1716.61  1720.74  1728.91  1761.73
                             1781.32  1828.42  1842.73  1859.17  1905.40
                             1908.83  1963.62  1977.97  1988.48  2010.22
                             2018.67  2027.62  2035.19  2061.22  2066.99
                             2076.74  2153.02  2156.31  2162.77  2165.37
                             2166.93  2167.40  2174.96  2185.48  2199.65
                             2217.47  2219.80  2256.27  2291.36  2524.44
                             4193.71  4259.95  4337.46  4359.14  4364.60
                             4373.33  4381.11  4399.66  4400.21  4413.85
                             4424.15  4426.84  4428.89  4445.52  4480.51
                             4506.86  4508.63  4525.39  4544.64  5053.63

 Zero-point correction=                           0.319242 (Hartree/Particle)
 Thermal correction to Energy=                    0.336732
 Thermal correction to Enthalpy=                  0.337677
 Thermal correction to Gibbs Free Energy=         0.272359
 Sum of electronic and zero-point Energies=          -1090.102483
 Sum of electronic and thermal Energies=             -1090.084993
 Sum of electronic and thermal Enthalpies=           -1090.084049
 Sum of electronic and thermal Free Energies=        -1090.149367

                     E (Thermal)             CV                S
                      KCal/Mol        Cal/Mol-Kelvin    Cal/Mol-Kelvin
 Total                  211.303             65.512            137.473
 Electronic               0.000              0.000              0.000
 Translational            0.889              2.981             42.475
 Rotational               0.889              2.981             33.432
 Vibrational            209.525             59.551             61.566
 Vibration     1          0.593              1.985              6.464
 Vibration     2          0.593              1.984              5.949
 Vibration     3          0.596              1.975              4.563
 Vibration     4          0.599              1.966              4.021
 Vibration     5          0.600              1.961              3.830
 Vibration     6          0.606              1.941              3.273
 Vibration     7          0.610              1.929              3.031
 Vibration     8          0.617              1.907              2.727
 Vibration     9          0.620              1.898              2.616
 Vibration    10          0.623              1.886              2.494
 Vibration    11          0.638              1.838              2.120
 Vibration    12          0.645              1.818              2.002
 Vibration    13          0.669              1.744              1.653
 Vibration    14          0.678              1.715              1.549
 Vibration    15          0.701              1.650              1.348
 Vibration    16          0.710              1.624              1.281
 Vibration    17          0.722              1.589              1.196
 Vibration    18          0.734              1.555              1.122
 Vibration    19          0.738              1.546              1.104
 Vibration    20          0.772              1.454              0.935
 Vibration    21          0.828              1.315              0.735
 Vibration    22          0.845              1.273              0.685
 Vibration    23          0.861              1.238              0.644
 Vibration    24          0.879              1.197              0.601
 Vibration    25          0.892              1.169              0.573
 Vibration    26          0.931              1.086              0.495
 Vibration    27          0.978              0.993              0.419

 Optimization completed.
    -- Stationary point found.
 Normal termination of Gaussian 16 at Fri Dec 11 13:39:57 2020.

 ----------------------------------------------------------------------
 # B3LYP/6-311++G(d,p) empiricaldispersion=gd3bj scf=xqc pop=npa geom=c
 heck
 ----------------------------------------------------------------------

 --------------------------------------
 CID_79538242_JID_7859_Energie_neutraal
 --------------------------------------
 Structure from the checkpoint file:  "JID_7859.chk"
 Charge =  0 Multiplicity = 1

 SCF Done:  E(RB3LYP) =  -1090.63789988     A.U. after   18 cycles
 Normal termination of Gaussian 16 at Fri Dec 11 13:47:13 2020.

 ----------------------------------------------------------------------
 # B3LYP/6-311++G(d,p) empiricaldispersion=gd3bj scf=xqc pop=npa geom=c
 heck
 ----------------------------------------------------------------------

 ------------------------------------
 CID_79538242_JID_7859_Energie_kation
 ------------------------------------
 Structure from the checkpoint file:  "JID_7859.chk"
 Charge =  1 Multiplicity = 2

 SCF Done:  E(UB3LYP) =  -1090.35509566     A.U. after   32 cycles
 Normal termination of Gaussian 16 at Fri Dec 11 14:05:14 2020.
 Gaussian 16:  ES64L-G16RevA.03 25-Dec-2016

 ----------------------------------------------------------------------
 # B3LYP/6-311++G(d,p) empiricaldispersion=gd3bj scf=xqc pop=npa geom=c
 heck
 ----------------------------------------------------------------------

 -----------------------------------
 CID_79538242_JID_7859_Energie_anion
 -----------------------------------
 Structure from the checkpoint file:  "JID_7859.chk"
 Charge = -1 Multiplicity = 2

                         Standard orientation:
 ---------------------------------------------------------------------
 Center     Atomic      Atomic             Coordinates (Angstroms)
 Number     Number       Type             X           Y           Z
 ---------------------------------------------------------------------
      1          6           0        3.190262   -2.024469    1.177139
      2          6           0        2.721442   -0.797708    0.460223
      3          6           0        1.556760   -0.590566   -0.251394
      4          7           0        1.409705    0.673346   -0.801824
      5          6           0        2.415668    1.449354   -0.537688
      6         16           0        3.665925    0.662936    0.429057
      7          6           0        2.535448    2.871569   -0.984285
      8          6           0        0.507201   -1.620637   -0.438708
      9          8           0        0.623446   -2.723081    0.086111
     10          6           0       -0.724255   -1.282293   -1.262043
     11          6           0       -1.839918   -0.642894   -0.398480
     12          6           0       -3.211644   -0.822420   -1.071980
     13          6           0       -4.408474   -0.411247   -0.202037
     14          6           0       -4.334189    0.970534    0.471530
     15          6           0       -3.285523    1.040684    1.594831
     16          6           0       -1.850712    1.326470    1.113841
     17          7           0       -1.582660    0.787058   -0.210527
     18          1           0        4.179911   -1.877933    1.618150
     19          1           0        2.482893   -2.296199    1.966515
     20          1           0        3.224104   -2.875677    0.490980
     21          1           0        2.594803    3.555779   -0.130313
     22          1           0        3.430015    3.025825   -1.597949
     23          1           0        1.653759    3.124552   -1.577473
     24          1           0       -0.483201   -0.607498   -2.090204
     25          1           0       -1.084537   -2.230934   -1.668136
     26          1           0       -1.848702   -1.180343    0.566359
     27          1           0       -3.345434   -1.872375   -1.367138
     28          1           0       -3.196474   -0.223057   -1.991206
     29          1           0       -5.312057   -0.458271   -0.824291
     30          1           0       -4.546953   -1.164473    0.587962
     31          1           0       -4.136277    1.747235   -0.276746
     32          1           0       -5.321189    1.184935    0.901580
     33          1           0       -3.559997    1.814815    2.322387
     34          1           0       -3.309090    0.092161    2.147821
     35          1           0       -1.701654    2.411921    1.045379
     36          1           0       -1.144908    0.959658    1.885738
     37          1           0       -0.639087    1.026472   -0.502446
 ---------------------------------------------------------------------

 SCF Done:  E(UB3LYP) =  -1090.64709726     A.U. after   31 cycles

 The electronic state is 2-A.
 Alpha  occ. eigenvalues --  -88.72783 -18.92230 -14.17543 -14.16120 -10.09335
 Alpha  occ. eigenvalues --  -10.07755 -10.07279 -10.07162 -10.06663 -10.06422
 Alpha  occ. eigenvalues --  -10.06327 -10.06276 -10.04819 -10.03819 -10.03581
 Alpha  occ. eigenvalues --  -10.03451 -10.02820  -7.81465  -5.77736  -5.77395
 Alpha  occ. eigenvalues --   -5.77099  -0.86403  -0.81924  -0.78493  -0.68860
 Alpha  occ. eigenvalues --   -0.66800  -0.66464  -0.64796  -0.60148  -0.58611
 Alpha  occ. eigenvalues --   -0.56242  -0.54754  -0.51943  -0.45897  -0.44960
 Alpha  occ. eigenvalues --   -0.43426  -0.41788  -0.38281  -0.37385  -0.36542
 Alpha  occ. eigenvalues --   -0.34232  -0.33795  -0.32541  -0.31669  -0.31285
 Alpha  occ. eigenvalues --   -0.30636  -0.29508  -0.29266  -0.28919  -0.28276
 Alpha  occ. eigenvalues --   -0.27746  -0.26734  -0.24864  -0.24321  -0.23884
 Alpha  occ. eigenvalues --   -0.23501  -0.22961  -0.22311  -0.22039  -0.21584
 Alpha  occ. eigenvalues --   -0.21225  -0.20239  -0.19113  -0.14429  -0.14103
 Alpha  occ. eigenvalues --   -0.09763  -0.09476  -0.08439   0.04681
 Alpha virt. eigenvalues --    0.06816   0.07893   0.08462   0.09195   0.09802
 Alpha virt. eigenvalues --    0.10096   0.10393   0.11306   0.11670   0.11917
 Alpha virt. eigenvalues --    0.12260   0.12544   0.12732   0.13094   0.13374

  Beta  occ. eigenvalues --  -88.72737 -18.91806 -14.17586 -14.16118 -10.09250
  Beta  occ. eigenvalues --  -10.07752 -10.07239 -10.06873 -10.06668 -10.06419
  Beta  occ. eigenvalues --  -10.06325 -10.06274 -10.04814 -10.03870 -10.03500
  Beta  occ. eigenvalues --  -10.02887 -10.02846  -7.81423  -5.77721  -5.77384
  Beta  occ. eigenvalues --   -5.76928  -0.85646  -0.81821  -0.78471  -0.68849
  Beta  occ. eigenvalues --   -0.66728  -0.65793  -0.64672  -0.59984  -0.58417
  Beta  occ. eigenvalues --   -0.56187  -0.54571  -0.51858  -0.45880  -0.44787
  Beta  occ. eigenvalues --   -0.42807  -0.41541  -0.38130  -0.37157  -0.36519
  Beta  occ. eigenvalues --   -0.34203  -0.33721  -0.32355  -0.31589  -0.31080
  Beta  occ. eigenvalues --   -0.30429  -0.29422  -0.29100  -0.28423  -0.27960
  Beta  occ. eigenvalues --   -0.27527  -0.26619  -0.24685  -0.24035  -0.23674
  Beta  occ. eigenvalues --   -0.23270  -0.22779  -0.22231  -0.21743  -0.21353
  Beta  occ. eigenvalues --   -0.21041  -0.19972  -0.17962  -0.14091  -0.13468
  Beta  occ. eigenvalues --   -0.09641  -0.08100  -0.07584
  Beta virt. eigenvalues --    0.06745   0.07834   0.08387   0.09069   0.09710
  Beta virt. eigenvalues --    0.09892   0.10364   0.11172   0.11370   0.11744
  Beta virt. eigenvalues --    0.12153   0.12498   0.12588   0.12742   0.13344

 Mulliken charges and spin densities:
               1          2
     1  C   -0.009780   0.002271
     2  C    1.827146   0.392918
     3  C   -1.852054  -0.052692
     4  N    0.171236  -0.026144
     5  C    0.199574   0.023243
     6  S   -0.717903   0.141328
     7  C   -0.084882  -0.029577
     8  C   -0.622657   0.230192
     9  O   -0.348988   0.142131
    10  C   -0.829148  -0.055138
    11  C    0.123916  -0.062093
    12  C   -0.411227   0.021757
    13  C   -0.246998  -0.106286
    14  C   -0.249586  -0.008804
    15  C   -0.348131   0.059853
    16  C   -0.186312  -0.115915
    17  N   -0.091099   0.040161
    18  H    0.096762   0.000669
    19  H    0.159899   0.027886
    20  H    0.166137   0.019745
    21  H    0.085852   0.056765
    22  H    0.132087   0.009209
    23  H    0.148465   0.002004
    24  H    0.170997  -0.006169
    25  H    0.154718   0.031927
    26  H    0.186732  -0.039321
    27  H    0.092113   0.020589
    28  H    0.113820   0.005336
    29  H    0.094885   0.048342
    30  H    0.109410   0.004114
    31  H    0.134929   0.000893
    32  H    0.055713   0.079474
    33  H    0.100344   0.048116
    34  H    0.137785   0.009597
    35  H    0.103583   0.020304
    36  H    0.089506   0.028138
    37  H    0.343158   0.035176
 Sum of Mulliken charges =  -1.00000   1.00000

 Dipole moment (field-independent basis, Debye):
    X=             -3.1677    Y=              3.6481    Z=              0.0432  Tot=              4.8316
 Quadrupole moment (field-independent basis, Debye-Ang):
   XX=           -155.8136   YY=           -139.5056   ZZ=           -123.8638
   XY=              3.5014   XZ=             -2.7925   YZ=             -0.0552

 Summary of Natural Population Analysis:

                                       Natural Population
                Natural  -----------------------------------------------
    Atom  No    Charge         Core      Valence    Rydberg      Total
 -----------------------------------------------------------------------
      C    1   -0.30435      0.99963     2.29913    0.00560     3.30435
      C    2    0.05827      0.99948     1.93308    0.00918     2.94173
      C    3   -0.01617      0.99937     2.00160    0.01520     3.01617
      N    4   -0.26198      0.99962     2.75173    0.01063     3.76198
      C    5    0.03160      0.99964     1.95129    0.01748     2.96840
      S    6    0.17801      4.99940     2.80321    0.01939     7.82199
      C    7   -0.30229      0.99961     2.29789    0.00479     3.30229
      C    8    0.30574      0.99960     1.67417    0.02049     2.69426
      O    9   -0.27597      0.99988     3.26970    0.00639     4.27597
      C   10   -0.23111      0.99959     2.22219    0.00933     3.23111
      C   11   -0.00333      0.99959     1.99189    0.01185     3.00333
      C   12   -0.18610      0.99961     2.17797    0.00853     3.18610
      C   13   -0.18538      0.99963     2.17750    0.00825     3.18538
      C   14   -0.19297      0.99963     2.18476    0.00858     3.19297
      C   15   -0.19656      0.99963     2.18895    0.00798     3.19656
      C   16   -0.08044      0.99964     2.07040    0.01040     3.08044
      N   17   -0.36842      0.99971     2.85562    0.01308     3.86842
      H   18    0.08961      0.00000     0.40945    0.00094     0.41039
      H   19    0.11526      0.00000     0.38371    0.00102     0.38474
      H   20    0.11546      0.00000     0.38354    0.00100     0.38454
      H   21    0.10056      0.00000     0.39806    0.00139     0.39944
      H   22    0.10042      0.00000     0.39871    0.00087     0.39958
      H   23    0.10843      0.00000     0.39062    0.00095     0.39157
      H   24    0.10473      0.00000     0.39415    0.00112     0.39527
      H   25    0.10199      0.00000     0.39616    0.00185     0.39801
      H   26    0.08171      0.00000     0.41579    0.00250     0.41829
      H   27    0.09287      0.00000     0.40559    0.00153     0.40713
      H   28    0.09447      0.00000     0.40360    0.00193     0.40553
      H   29    0.09190      0.00000     0.40665    0.00146     0.40810
      H   30    0.08876      0.00000     0.40976    0.00148     0.41124
      H   31    0.09989      0.00000     0.39877    0.00134     0.40011
      H   32    0.09089      0.00000     0.40772    0.00139     0.40911
      H   33    0.09464      0.00000     0.40412    0.00124     0.40536
      H   34    0.09175      0.00000     0.40654    0.00171     0.40825
      H   35    0.08650      0.00000     0.41181    0.00169     0.41350
      H   36    0.08052      0.00000     0.41760    0.00189     0.41948
      H   37    0.20112      0.00000     0.29551    0.00336     0.29888
 =======================================================================
   * Total *    0.00000     20.99327    46.78894    0.21779    68.00000

 Normal termination of Gaussian 16 at Fri Dec 11 14:22:36 2020.
