 Gaussian 16, Revision A.03,

 -----------------------------------------------------------
 # opt freq B3LYP/6-31G(d) empiricaldispersion=gd3bj scf=xqc
 -----------------------------------------------------------

 ------------------------------
 CID_13611942_JID_2268_neutraal
 ------------------------------
 Symbolic Z-matrix:
 Charge =  0 Multiplicity = 1

 SCF Done:  E(RB3LYP) =  -542.393009446     A.U. after   14 cycles
 SCF Done:  E(RB3LYP) =  -542.395189172     A.U. after   13 cycles
 SCF Done:  E(RB3LYP) =  -542.395014893     A.U. after   12 cycles
 SCF Done:  E(RB3LYP) =  -542.395285076     A.U. after   12 cycles
 SCF Done:  E(RB3LYP) =  -542.395893948     A.U. after   11 cycles
 SCF Done:  E(RB3LYP) =  -542.395991233     A.U. after   11 cycles
 SCF Done:  E(RB3LYP) =  -542.396022385     A.U. after   10 cycles
 SCF Done:  E(RB3LYP) =  -542.396061078     A.U. after   12 cycles
 SCF Done:  E(RB3LYP) =  -542.396078876     A.U. after   10 cycles
 SCF Done:  E(RB3LYP) =  -542.396093696     A.U. after   10 cycles
 SCF Done:  E(RB3LYP) =  -542.396095794     A.U. after    8 cycles
 SCF Done:  E(RB3LYP) =  -542.396096413     A.U. after    9 cycles
 SCF Done:  E(RB3LYP) =  -542.396096612     A.U. after    7 cycles
 SCF Done:  E(RB3LYP) =  -542.396096783     A.U. after    7 cycles
 SCF Done:  E(RB3LYP) =  -542.396096856     A.U. after    7 cycles
 Optimization completed.
    -- Stationary point found.
 Normal termination of Gaussian 16 at Wed Dec  9 17:02:20 2020.

 --------------------------------------------------------------------
 #N Geom=AllCheck Guess=TCheck SCRF=Check GenChk RB3LYP/6-31G(d) Freq
 --------------------------------------------------------------------

 Structure from the checkpoint file:  "JID_2268.chk"
 ------------------------------
 CID_13611942_JID_2268_neutraal
 ------------------------------
 Charge =  0 Multiplicity = 1

 SCF Done:  E(RB3LYP) =  -542.396096856     A.U. after    1 cycles

  Exact polarizability: 148.439   0.717 103.483  -3.519  -1.720  88.199
 Approx polarizability: 178.709   8.743 157.096  -8.333  -5.397 122.696

                      1                      2                      3
                      A                      A                      A
 Frequencies --     16.0884                36.8019                45.9567
 Red. masses --      3.3511                 3.8458                 4.9534
 Frc consts  --      0.0005                 0.0031                 0.0062
 IR Inten    --      0.4525                 0.1122                 0.6619

                      4                      5                      6
                      A                      A                      A
 Frequencies --     48.7052                74.1706               123.2603
 Red. masses --      2.8224                 2.6659                 3.2942
 Frc consts  --      0.0039                 0.0086                 0.0295
 IR Inten    --      0.6907                 0.0668                 0.6793

                      7                      8                      9
                      A                      A                      A
 Frequencies --    170.9145               193.9469               217.6404
 Red. masses --      1.8438                 2.1823                 1.6641
 Frc consts  --      0.0317                 0.0484                 0.0464
 IR Inten    --      0.7287                 0.1527                 0.4659

                     10                     11                     12
                      A                      A                      A
 Frequencies --    233.0993               251.2055               259.1039
 Red. masses --      1.3873                 1.7216                 1.2317
 Frc consts  --      0.0444                 0.0640                 0.0487
 IR Inten    --      0.0098                 1.5042                 0.5255

                     13                     14                     15
                      A                      A                      A
 Frequencies --    276.1349               311.8118               339.6636
 Red. masses --      1.9561                 2.7081                 2.8544
 Frc consts  --      0.0879                 0.1551                 0.1940
 IR Inten    --      1.3849                 1.8864                 3.2855

                     16                     17                     18
                      A                      A                      A
 Frequencies --    345.9121               405.1985               477.3864
 Red. masses --      2.4769                 2.4879                 3.0310
 Frc consts  --      0.1746                 0.2407                 0.4070
 IR Inten    --      2.1445                 0.4641                 4.5757

                     19                     20                     21
                      A                      A                      A
 Frequencies --    520.4610               539.2713               690.8884
 Red. masses --      3.4884                 2.9161                 3.1038
 Frc consts  --      0.5567                 0.4996                 0.8729
 IR Inten    --      2.9095                 2.7110                 0.8316

                     22                     23                     24
                      A                      A                      A
 Frequencies --    745.0113               758.5900               812.7565
 Red. masses --      1.2388                 6.3795                 2.3008
 Frc consts  --      0.4051                 2.1630                 0.8955
 IR Inten    --      9.6235                 3.2778                 3.0982

                     25                     26                     27
                      A                      A                      A
 Frequencies --    824.5885               846.1315               873.2339
 Red. masses --      4.4269                 1.7984                 1.5583
 Frc consts  --      1.7735                 0.7586                 0.7001
 IR Inten    --      6.0686                 0.8144                 3.2148

                     28                     29                     30
                      A                      A                      A
 Frequencies --    909.4437               952.3368               953.3589
 Red. masses --      2.3785                 1.1647                 1.9070
 Frc consts  --      1.1590                 0.6224                 1.0212
 IR Inten    --      8.6734                 1.8349                 2.6242

                     31                     32                     33
                      A                      A                      A
 Frequencies --    969.9315               984.0242               998.5654
 Red. masses --      1.5758                 1.5223                 1.1231
 Frc consts  --      0.8734                 0.8685                 0.6598
 IR Inten    --      3.5202                 0.1802                31.2348

                     34                     35                     36
                      A                      A                      A
 Frequencies --   1042.0081              1050.0737              1086.0874
 Red. masses --      2.0060                 1.4886                 2.1012
 Frc consts  --      1.2833                 0.9671                 1.4603
 IR Inten    --     43.2432                 5.8757                40.8732

                     37                     38                     39
                      A                      A                      A
 Frequencies --   1130.3343              1134.5084              1152.0176
 Red. masses --      2.3893                 1.9948                 2.3763
 Frc consts  --      1.7986                 1.5127                 1.8581
 IR Inten    --      0.0311                24.8408               133.3604

                     40                     41                     42
                      A                      A                      A
 Frequencies --   1164.8003              1204.8279              1239.6864
 Red. masses --      2.8064                 1.9315                 1.3883
 Frc consts  --      2.2434                 1.6519                 1.2571
 IR Inten    --    124.4250                 9.0317                27.8659

                     43                     44                     45
                      A                      A                      A
 Frequencies --   1268.9337              1278.3694              1316.8723
 Red. masses --      2.5308                 1.4487                 1.2917
 Frc consts  --      2.4010                 1.3949                 1.3198
 IR Inten    --    249.2319                83.2099                24.9461

                     46                     47                     48
                      A                      A                      A
 Frequencies --   1336.5412              1361.4541              1366.3696
 Red. masses --      1.1296                 1.4704                 1.3253
 Frc consts  --      1.1889                 1.6058                 1.4578
 IR Inten    --      1.7487                 4.9374                 1.1598

                     49                     50                     51
                      A                      A                      A
 Frequencies --   1375.8869              1397.1709              1402.9130
 Red. masses --      1.4731                 1.3383                 1.2778
 Frc consts  --      1.6430                 1.5392                 1.4817
 IR Inten    --      1.7428                 6.7715                20.4735

                     52                     53                     54
                      A                      A                      A
 Frequencies --   1414.6190              1424.3991              1443.8849
 Red. masses --      1.3709                 1.2218                 1.2619
 Frc consts  --      1.6164                 1.4606                 1.5500
 IR Inten    --      9.7450                 2.4108                 7.0638

                     55                     56                     57
                      A                      A                      A
 Frequencies --   1448.2141              1509.6065              1519.0785
 Red. masses --      1.2304                 1.0808                 1.0426
 Frc consts  --      1.5204                 1.4513                 1.4176
 IR Inten    --     10.0160                 1.8150                 2.0678

                     58                     59                     60
                      A                      A                      A
 Frequencies --   1520.2373              1522.2729              1524.8228
 Red. masses --      1.0971                 1.0474                 1.0544
 Frc consts  --      1.4939                 1.4301                 1.4444
 IR Inten    --      6.3714                 0.6690                 1.7636

                     61                     62                     63
                      A                      A                      A
 Frequencies --   1532.7719              1534.4245              1541.2916
 Red. masses --      1.0452                 1.0596                 1.0694
 Frc consts  --      1.4468                 1.4699                 1.4968
 IR Inten    --      8.2933                 7.8399                 2.2872

                     64                     65                     66
                      A                      A                      A
 Frequencies --   1543.7721              1727.5203              1825.6859
 Red. masses --      1.0574                 5.8125                11.4366
 Frc consts  --      1.4848                10.2202                22.4594
 IR Inten    --     18.6324                58.9707               164.4276

                     67                     68                     69
                      A                      A                      A
 Frequencies --   3026.4812              3032.8175              3042.2138
 Red. masses --      1.0619                 1.0609                 1.0617
 Frc consts  --      5.7306                 5.7495                 5.7896
 IR Inten    --     22.0705                34.7434                19.6360

                     70                     71                     72
                      A                      A                      A
 Frequencies --   3044.6380              3054.8056              3057.6325
 Red. masses --      1.0392                 1.0345                 1.0353
 Frc consts  --      5.6755                 5.6876                 5.7030
 IR Inten    --     28.6861                27.6944                18.7029

                     73                     74                     75
                      A                      A                      A
 Frequencies --   3063.5997              3072.0044              3080.2200
 Red. masses --      1.0995                 1.1005                 1.1026
 Frc consts  --      6.0801                 6.1190                 6.1638
 IR Inten    --     24.7395                30.1037                65.8908

                     76                     77                     78
                      A                      A                      A
 Frequencies --   3086.8558              3109.2355              3116.5219
 Red. masses --      1.0859                 1.1014                 1.1019
 Frc consts  --      6.0966                 6.2736                 6.3056
 IR Inten    --      5.4078                56.2067                49.9718

                     79                     80                     81
                      A                      A                      A
 Frequencies --   3121.8993              3123.6663              3134.9087
 Red. masses --      1.1033                 1.1028                 1.1032
 Frc consts  --      6.3355                 6.3396                 6.3878
 IR Inten    --     13.6449                41.2589                 4.3416

                     82                     83                     84
                      A                      A                      A
 Frequencies --   3141.1251              3208.8756              3268.0140
 Red. masses --      1.1014                 1.0924                 1.0895
 Frc consts  --      6.4028                 6.6276                 6.8555
 IR Inten    --     46.5013                18.2546                 0.0778

 - Thermochemistry -
 -------------------
 Temperature   298.150 Kelvin.  Pressure   1.00000 Atm.
 Atom     1 has atomic number  6 and mass  12.00000

 Molecular mass:   170.13068 amu.
 Principal axes and moments of inertia in atomic units:
                           1         2         3
     Eigenvalues --   883.088075227.902275478.25670
           X            0.99998   0.00579  -0.00250
           Y           -0.00581   0.99997  -0.00509
           Z            0.00247   0.00511   0.99998
 This molecule is an asymmetric top.
 Rotational symmetry number  1.
 Warning -- assumption of classical behavior for rotation
           may cause significant error
 Rotational temperatures (Kelvin)      0.09808     0.01657     0.01581
 Rotational constants (GHZ):           2.04367     0.34521     0.32944
 Zero-point vibrational energy     701804.6 (Joules/Mol)
                                  167.73532 (Kcal/Mol)
 Warning -- explicit consideration of  20 degrees of freedom as
           vibrations may cause significant error
 Vibrational temperatures:     23.15    52.95    66.12    70.08   106.72
          (Kelvin)            177.34   245.91   279.05   313.14   335.38
                              361.43   372.79   397.30   448.63   488.70
                              497.69   582.99   686.85   748.83   775.89
                              994.03  1071.91  1091.44  1169.38  1186.40
                             1217.39  1256.39  1308.49  1370.20  1371.67
                             1395.52  1415.79  1436.71  1499.22  1510.82
                             1562.64  1626.30  1632.30  1657.50  1675.89
                             1733.48  1783.63  1825.71  1839.29  1894.69
                             1922.98  1958.83  1965.90  1979.59  2010.22
                             2018.48  2035.32  2049.39  2077.43  2083.66
                             2171.99  2185.62  2187.28  2190.21  2193.88
                             2205.32  2207.69  2217.57  2221.14  2485.52
                             2626.75  4354.43  4363.55  4377.07  4380.56
                             4395.18  4399.25  4407.84  4419.93  4431.75
                             4441.30  4473.50  4483.98  4491.72  4494.26
                             4510.43  4519.38  4616.86  4701.94

 Zero-point correction=                           0.267303 (Hartree/Particle)
 Thermal correction to Energy=                    0.281981
 Thermal correction to Enthalpy=                  0.282926
 Thermal correction to Gibbs Free Energy=         0.223349
 Sum of electronic and zero-point Energies=           -542.128794
 Sum of electronic and thermal Energies=              -542.114115
 Sum of electronic and thermal Enthalpies=            -542.113171
 Sum of electronic and thermal Free Energies=         -542.172748

                     E (Thermal)             CV                S
                      KCal/Mol        Cal/Mol-Kelvin    Cal/Mol-Kelvin
 Total                  176.946             52.020            125.389
 Electronic               0.000              0.000              0.000
 Translational            0.889              2.981             41.302
 Rotational               0.889              2.981             31.603
 Vibrational            175.169             46.059             52.484
 Vibration     1          0.593              1.986              7.066
 Vibration     2          0.594              1.982              5.424
 Vibration     3          0.595              1.979              4.984
 Vibration     4          0.595              1.978              4.869
 Vibration     5          0.599              1.966              4.040
 Vibration     6          0.610              1.930              3.049
 Vibration     7          0.626              1.878              2.425
 Vibration     8          0.635              1.848              2.190
 Vibration     9          0.646              1.814              1.979
 Vibration    10          0.654              1.790              1.855
 Vibration    11          0.663              1.761              1.722
 Vibration    12          0.668              1.747              1.668
 Vibration    13          0.678              1.718              1.557
 Vibration    14          0.700              1.651              1.353
 Vibration    15          0.720              1.596              1.214
 Vibration    16          0.724              1.584              1.185
 Vibration    17          0.770              1.459              0.944
 Vibration    18          0.834              1.300              0.717
 Vibration    19          0.875              1.205              0.609
 Vibration    20          0.894              1.163              0.567

                           ! Non-Optimized Parameters !
 Normal termination of Gaussian 16 at Wed Dec  9 17:09:15 2020.

 ----------------------------------------------------------------------
 # B3LYP/6-311++G(d,p) empiricaldispersion=gd3bj scf=xqc pop=npa geom=c
 heck
 ----------------------------------------------------------------------

 --------------------------------------
 CID_13611942_JID_2268_Energie_neutraal
 --------------------------------------
 Structure from the checkpoint file:  "JID_2268.chk"
 Charge =  0 Multiplicity = 1

 SCF Done:  E(RB3LYP) =  -542.553725549     A.U. after   14 cycles
 Normal termination of Gaussian 16 at Wed Dec  9 17:12:43 2020.

 ----------------------------------------------------------------------
 # B3LYP/6-311++G(d,p) empiricaldispersion=gd3bj scf=xqc pop=npa geom=c
 heck
 ----------------------------------------------------------------------

 ------------------------------------
 CID_13611942_JID_2268_Energie_kation
 ------------------------------------
 Structure from the checkpoint file:  "JID_2268.chk"
 Charge =  1 Multiplicity = 2

 SCF Done:  E(UB3LYP) =  -542.230862586     A.U. after   22 cycles
 Normal termination of Gaussian 16 at Wed Dec  9 17:19:57 2020.
 Gaussian 16:  ES64L-G16RevA.03 25-Dec-2016

 ----------------------------------------------------------------------
 # B3LYP/6-311++G(d,p) empiricaldispersion=gd3bj scf=xqc pop=npa geom=c
 heck
 ----------------------------------------------------------------------

 -----------------------------------
 CID_13611942_JID_2268_Energie_anion
 -----------------------------------
 Structure from the checkpoint file:  "JID_2268.chk"
 Charge = -1 Multiplicity = 2

                         Standard orientation:
 ---------------------------------------------------------------------
 Center     Atomic      Atomic             Coordinates (Angstroms)
 Number     Number       Type             X           Y           Z
 ---------------------------------------------------------------------
      1          6           0       -4.199555   -1.319579    0.532232
      2          6           0       -3.591024   -0.730284   -0.743789
      3          6           0       -3.356359    0.786112   -0.681598
      4          6           0       -2.419746    1.253638    0.452633
      5          6           0       -1.074302    0.582926    0.421180
      6          6           0        0.032677    1.263512    0.123550
      7          8           0        1.346103    0.820110    0.030558
      8          6           0        1.717012   -0.490587    0.099331
      9          8           0        0.955659   -1.415753    0.263719
     10          6           0        3.223072   -0.615134   -0.061076
     11          6           0        3.674041   -0.098854   -1.437012
     12          6           0        3.956891    0.107192    1.080592
     13          1           0       -3.521038   -1.224362    1.387464
     14          1           0       -4.420330   -2.385301    0.407582
     15          1           0       -5.136304   -0.811806    0.794501
     16          1           0       -2.643775   -1.238056   -0.966010
     17          1           0       -4.255217   -0.942121   -1.591764
     18          1           0       -2.935098    1.120118   -1.638647
     19          1           0       -4.322584    1.297030   -0.565582
     20          1           0       -2.299692    2.342610    0.386011
     21          1           0       -2.898618    1.054955    1.421205
     22          1           0       -1.022353   -0.477891    0.622625
     23          1           0        0.023668    2.329373   -0.082907
     24          1           0        3.422447   -1.689447    0.004671
     25          1           0        3.473618    0.972506   -1.533184
     26          1           0        4.750085   -0.260765   -1.562754
     27          1           0        3.155236   -0.619794   -2.248884
     28          1           0        3.640623   -0.268444    2.059629
     29          1           0        5.037019   -0.050433    0.989163
     30          1           0        3.761964    1.183330    1.046410
 ---------------------------------------------------------------------

 SCF Done:  E(UB3LYP) =  -542.537922489     A.U. after   33 cycles
 SCF Done:  E(UB3LYP) =  -542.537922489     a.u. after    1 cycles

 The electronic state is 2-A.
 Alpha  occ. eigenvalues --  -19.08697 -19.02367 -10.21084 -10.13366 -10.09689
 Alpha  occ. eigenvalues --  -10.07785 -10.07381 -10.07227 -10.07114 -10.07077
 Alpha  occ. eigenvalues --  -10.07017 -10.06675  -1.02120  -0.93901  -0.72786
 Alpha  occ. eigenvalues --   -0.71436  -0.67773  -0.62767  -0.59813  -0.58208
 Alpha  occ. eigenvalues --   -0.53956  -0.52038  -0.47210  -0.44184  -0.40422
 Alpha  occ. eigenvalues --   -0.39007  -0.37940  -0.36933  -0.36007  -0.35423
 Alpha  occ. eigenvalues --   -0.34579  -0.31596  -0.31472  -0.30707  -0.30090
 Alpha  occ. eigenvalues --   -0.29315  -0.28494  -0.27870  -0.26623  -0.26219
 Alpha  occ. eigenvalues --   -0.25235  -0.25113  -0.23838  -0.23381  -0.23132
 Alpha  occ. eigenvalues --   -0.18100  -0.15105   0.04346
 Alpha virt. eigenvalues --    0.05647   0.07063   0.07345   0.07800   0.08218
 Alpha virt. eigenvalues --    0.08433   0.08953   0.09659   0.10287   0.10494
 Alpha virt. eigenvalues --    0.11164   0.11369   0.11842   0.12505   0.12780

  Beta  occ. eigenvalues --  -19.08696 -19.02351 -10.21068 -10.13342 -10.09682
  Beta  occ. eigenvalues --  -10.07772 -10.07375 -10.07195 -10.07102 -10.07056
  Beta  occ. eigenvalues --  -10.06975 -10.06653  -1.02102  -0.93879  -0.72752
  Beta  occ. eigenvalues --   -0.71404  -0.67741  -0.62725  -0.59742  -0.58164
  Beta  occ. eigenvalues --   -0.53906  -0.51982  -0.47156  -0.44140  -0.40394
  Beta  occ. eigenvalues --   -0.38971  -0.37883  -0.36900  -0.35967  -0.35380
  Beta  occ. eigenvalues --   -0.34551  -0.31552  -0.31430  -0.30672  -0.30056
  Beta  occ. eigenvalues --   -0.29271  -0.28464  -0.27829  -0.26578  -0.26190
  Beta  occ. eigenvalues --   -0.25189  -0.25062  -0.23802  -0.23356  -0.23096
  Beta  occ. eigenvalues --   -0.18077  -0.15053
  Beta virt. eigenvalues --    0.06379   0.06799   0.07428   0.07860   0.08100
  Beta virt. eigenvalues --    0.08701   0.08974   0.09289   0.10187   0.10570
  Beta virt. eigenvalues --    0.10785   0.11454   0.11720   0.12124   0.12801

 Mulliken charges and spin densities:
               1          2
     1  C    0.452322  -1.057650
     2  C   -0.614088   0.454012
     3  C    0.560376  -0.833682
     4  C    0.207328  -0.604167
     5  C    0.917835  -0.326146
     6  C   -0.712626   0.142701
     7  O   -0.013607   0.015435
     8  C    1.867724  -1.929106
     9  O   -0.260306   0.017287
    10  C   -3.393773   3.359149
    11  C    1.220566  -1.757295
    12  C    1.048666  -1.583115
    13  H   -0.004658   0.154643
    14  H   -0.009140   0.137150
    15  H   -0.162427   0.306151
    16  H    0.169262  -0.029829
    17  H   -0.277247   0.429716
    18  H    0.005978   0.124166
    19  H   -0.380897   0.523189
    20  H   -0.163594   0.334221
    21  H    0.053038   0.089162
    22  H    0.222715   0.012471
    23  H   -0.336121   0.499125
    24  H   -0.012050   0.199431
    25  H   -0.046670   0.206311
    26  H   -0.643972   0.815621
    27  H   -0.083561   0.224760
    28  H   -0.069409   0.208097
    29  H   -0.493398   0.658697
    30  H   -0.048267   0.209497
 Sum of Mulliken charges =  -1.00000   1.00000

 Dipole moment (field-independent basis, Debye):
    X=             -1.9450    Y=             -0.7840    Z=              1.3259  Tot=              2.4811
 Quadrupole moment (field-independent basis, Debye-Ang):
   XX=           -195.5441   YY=           -111.2482   ZZ=           -106.9312
   XY=              3.7214   XZ=              2.2701   YZ=              0.2944

 Summary of Natural Population Analysis:

                                       Natural Population
                Natural  -----------------------------------------------
    Atom  No    Charge         Core      Valence    Rydberg      Total
 -----------------------------------------------------------------------
      C    1   -0.28827      0.99967     2.28338    0.00522     3.28827
      C    2   -0.19503      0.99964     2.18670    0.00868     3.19503
      C    3   -0.18362      0.99962     2.17561    0.00838     3.18362
      C    4   -0.20367      0.99962     2.19414    0.00991     3.20367
      C    5   -0.12431      0.99952     2.11490    0.00989     3.12431
      C    6    0.07139      0.99937     1.91625    0.01299     2.92861
      O    7   -0.27807      0.99984     3.26880    0.00942     4.27807
      C    8    0.41876      0.99964     1.55660    0.02501     2.58124
      O    9   -0.29817      0.99987     3.29276    0.00555     4.29817
      C   10   -0.15337      0.99957     2.14350    0.01030     3.15337
      C   11   -0.28210      0.99965     2.27670    0.00575     3.28210
      C   12   -0.28171      0.99965     2.27634    0.00572     3.28171
      H   13    0.09548      0.00000     0.40355    0.00097     0.40452
      H   14    0.09796      0.00000     0.40131    0.00073     0.40204
      H   15    0.09674      0.00000     0.40216    0.00110     0.40326
      H   16    0.09675      0.00000     0.40198    0.00127     0.40325
      H   17    0.09619      0.00000     0.40274    0.00106     0.40381
      H   18    0.09669      0.00000     0.40207    0.00123     0.40331
      H   19    0.09625      0.00000     0.40193    0.00183     0.40375
      H   20    0.10038      0.00000     0.39821    0.00141     0.39962
      H   21    0.09957      0.00000     0.39921    0.00122     0.40043
      H   22    0.11406      0.00000     0.38456    0.00139     0.38594
      H   23    0.08881      0.00000     0.40992    0.00128     0.41119
      H   24    0.10494      0.00000     0.39334    0.00173     0.39506
      H   25    0.10302      0.00000     0.39552    0.00145     0.39698
      H   26    0.10416      0.00000     0.39361    0.00223     0.39584
      H   27    0.10081      0.00000     0.39809    0.00110     0.39919
      H   28    0.09987      0.00000     0.39908    0.00105     0.40013
      H   29    0.10322      0.00000     0.39539    0.00139     0.39678
      H   30    0.10328      0.00000     0.39534    0.00138     0.39672
 =======================================================================
   * Total *    0.00000     11.99566    34.86370    0.14064    47.00000

 Normal termination of Gaussian 16 at Wed Dec  9 17:30:42 2020.
