 Gaussian 16, Revision A.03,

 -----------------------------------------------------------
 # opt freq B3LYP/6-31G(d) empiricaldispersion=gd3bj scf=xqc
 -----------------------------------------------------------

 -------------------------------
 CID_113637663_JID_9976_neutraal
 -------------------------------
 Symbolic Z-matrix:
 Charge =  0 Multiplicity = 1

 SCF Done:  E(RB3LYP) =  -1651.51866410     A.U. after   15 cycles
 SCF Done:  E(RB3LYP) =  -1651.52748806     A.U. after   12 cycles
 SCF Done:  E(RB3LYP) =  -1651.52992287     A.U. after   12 cycles
 SCF Done:  E(RB3LYP) =  -1651.53100728     A.U. after   12 cycles
 SCF Done:  E(RB3LYP) =  -1651.53170762     A.U. after   12 cycles
 SCF Done:  E(RB3LYP) =  -1651.53193187     A.U. after   12 cycles
 SCF Done:  E(RB3LYP) =  -1651.53204943     A.U. after   12 cycles
 SCF Done:  E(RB3LYP) =  -1651.53209147     A.U. after   11 cycles
 SCF Done:  E(RB3LYP) =  -1651.53215930     A.U. after   11 cycles
 SCF Done:  E(RB3LYP) =  -1651.53219681     A.U. after   11 cycles
 SCF Done:  E(RB3LYP) =  -1651.53222127     A.U. after    8 cycles
 SCF Done:  E(RB3LYP) =  -1651.53222233     A.U. after    9 cycles
 SCF Done:  E(RB3LYP) =  -1651.53222290     A.U. after    8 cycles
 SCF Done:  E(RB3LYP) =  -1651.53222298     A.U. after    7 cycles
 SCF Done:  E(RB3LYP) =  -1651.53222302     A.U. after    7 cycles
 Optimization completed.
    -- Stationary point found.
 Normal termination of Gaussian 16 at Mon Dec 14 13:33:33 2020.

 --------------------------------------------------------------------
 #N Geom=AllCheck Guess=TCheck SCRF=Check GenChk RB3LYP/6-31G(d) Freq
 --------------------------------------------------------------------

 Structure from the checkpoint file:  "JID_9976.chk"
 -------------------------------
 CID_113637663_JID_9976_neutraal
 -------------------------------
 Charge =  0 Multiplicity = 1

 SCF Done:  E(RB3LYP) =  -1651.53222302     A.U. after    1 cycles

  Exact polarizability: 208.531  -2.731 168.775   0.501 -11.923 120.833
 Approx polarizability: 307.157   2.353 261.639   3.524 -24.681 194.353

                      1                      2                      3
                      A                      A                      A
 Frequencies --     14.6801                24.2495                46.9947
 Red. masses --      5.8011                 5.0321                 5.5727
 Frc consts  --      0.0007                 0.0017                 0.0073
 IR Inten    --      2.8485                 2.0097                 3.5867

                      4                      5                      6
                      A                      A                      A
 Frequencies --     65.6239                74.0305                96.4717
 Red. masses --      2.7699                 6.4708                 4.2947
 Frc consts  --      0.0070                 0.0209                 0.0235
 IR Inten    --      0.9861                 0.2096                 0.6526

                      7                      8                      9
                      A                      A                      A
 Frequencies --    116.5236               138.8395               152.2133
 Red. masses --      4.4011                 2.2246                 3.6064
 Frc consts  --      0.0352                 0.0253                 0.0492
 IR Inten    --      2.4596                 2.5163                 0.3468

                     10                     11                     12
                      A                      A                      A
 Frequencies --    177.7096               182.4292               197.1819
 Red. masses --      1.6234                 1.9581                 2.7708
 Frc consts  --      0.0302                 0.0384                 0.0635
 IR Inten    --      2.3486                16.2734                15.6727

                     13                     14                     15
                      A                      A                      A
 Frequencies --    231.5790               276.0134               290.9469
 Red. masses --      4.8919                 7.0122                 4.4782
 Frc consts  --      0.1546                 0.3148                 0.2233
 IR Inten    --      0.4045                 0.4105                 1.6749

                     16                     17                     18
                      A                      A                      A
 Frequencies --    301.1020               315.3182               329.3211
 Red. masses --      4.5916                 4.9030                 4.0009
 Frc consts  --      0.2453                 0.2872                 0.2557
 IR Inten    --      7.0742                 0.0622                 4.4401

                     19                     20                     21
                      A                      A                      A
 Frequencies --    338.3234               363.7250               375.8585
 Red. masses --      3.5289                 3.6797                 4.2868
 Frc consts  --      0.2380                 0.2868                 0.3568
 IR Inten    --      7.0186                 7.3426                 2.1913

                     22                     23                     24
                      A                      A                      A
 Frequencies --    397.3226               440.4538               464.1992
 Red. masses --      5.0395                 4.4825                 2.4441
 Frc consts  --      0.4687                 0.5124                 0.3103
 IR Inten    --      2.5906                 8.3601                36.5557

                     25                     26                     27
                      A                      A                      A
 Frequencies --    479.7518               492.4028               507.5245
 Red. masses --      4.1944                 4.8828                 3.5715
 Frc consts  --      0.5688                 0.6975                 0.5420
 IR Inten    --     11.2113                19.6197                29.8576

                     28                     29                     30
                      A                      A                      A
 Frequencies --    523.6606               539.3418               559.2886
 Red. masses --      1.6080                 5.1197                 5.2747
 Frc consts  --      0.2598                 0.8775                 0.9721
 IR Inten    --     12.7024                74.0343               135.8177

                     31                     32                     33
                      A                      A                      A
 Frequencies --    584.2813               610.9896               621.1531
 Red. masses --      3.8322                 3.6068                 5.3891
 Frc consts  --      0.7708                 0.7933                 1.2251
 IR Inten    --      8.4852                46.5583                83.0815

                     34                     35                     36
                      A                      A                      A
 Frequencies --    691.6392               709.6983               718.1015
 Red. masses --      4.7434                 3.7339                 3.7243
 Frc consts  --      1.3369                 1.1080                 1.1315
 IR Inten    --    105.6649                74.7795                41.9190

                     37                     38                     39
                      A                      A                      A
 Frequencies --    777.2832               789.5411               809.1317
 Red. masses --      1.4516                 2.6325                 2.1417
 Frc consts  --      0.5167                 0.9669                 0.8261
 IR Inten    --      6.9853                 4.6620                 2.6357

                     40                     41                     42
                      A                      A                      A
 Frequencies --    836.5888               855.9742               860.3478
 Red. masses --      1.4058                 1.5139                 2.4325
 Frc consts  --      0.5797                 0.6536                 1.0608
 IR Inten    --     19.4261                31.8015                19.9205

                     43                     44                     45
                      A                      A                      A
 Frequencies --    880.8142               906.6650               945.3218
 Red. masses --      1.9135                 3.8270                 1.3382
 Frc consts  --      0.8747                 1.8535                 0.7046
 IR Inten    --    100.5610               183.7656                 4.4766

                     46                     47                     48
                      A                      A                      A
 Frequencies --    952.5096               952.9453               988.2517
 Red. masses --      4.6185                 1.3603                 2.8965
 Frc consts  --      2.4688                 0.7278                 1.6667
 IR Inten    --     48.7106                 5.3379                69.6367

                     49                     50                     51
                      A                      A                      A
 Frequencies --   1023.6012              1034.5198              1072.1323
 Red. masses --      2.4053                 1.4424                 3.2316
 Frc consts  --      1.4848                 0.9095                 2.1886
 IR Inten    --      1.1710                 0.8647                22.9031

                     52                     53                     54
                      A                      A                      A
 Frequencies --   1072.9218              1079.7875              1094.6097
 Red. masses --      1.3137                 1.5054                 1.3487
 Frc consts  --      0.8910                 1.0342                 0.9521
 IR Inten    --     10.1055                 7.5175                 6.2844

                     55                     56                     57
                      A                      A                      A
 Frequencies --   1108.2706              1127.0622              1140.5180
 Red. masses --      1.5555                 4.7332                 1.9671
 Frc consts  --      1.1257                 3.5425                 1.5076
 IR Inten    --     21.4436               214.3509               139.3114

                     58                     59                     60
                      A                      A                      A
 Frequencies --   1141.3165              1188.0637              1202.0139
 Red. masses --      2.0024                 1.3214                 1.9605
 Frc consts  --      1.5368                 1.0989                 1.6689
 IR Inten    --     33.6516                23.1491                24.8041

                     61                     62                     63
                      A                      A                      A
 Frequencies --   1211.1682              1240.2483              1255.0892
 Red. masses --      1.3698                 2.0086                 1.9213
 Frc consts  --      1.1839                 1.8204                 1.7832
 IR Inten    --      1.0575                 0.9761                 4.8247

                     64                     65                     66
                      A                      A                      A
 Frequencies --   1268.4975              1303.4161              1329.7828
 Red. masses --      3.6525                 1.6521                 4.2219
 Frc consts  --      3.4628                 1.6537                 4.3986
 IR Inten    --     52.8921                31.6443                26.6272

                     67                     68                     69
                      A                      A                      A
 Frequencies --   1335.0417              1346.6053              1405.8827
 Red. masses --      5.1581                 7.8222                 1.6246
 Frc consts  --      5.4166                 8.3572                 1.8918
 IR Inten    --    173.8794               115.1820                57.4431

                     70                     71                     72
                      A                      A                      A
 Frequencies --   1419.5801              1428.7037              1445.7443
 Red. masses --      2.1917                 1.3202                 1.2392
 Frc consts  --      2.6022                 1.5877                 1.5261
 IR Inten    --    128.7282                11.9860                 0.9235

                     73                     74                     75
                      A                      A                      A
 Frequencies --   1483.5510              1490.2047              1508.7539
 Red. masses --      1.8550                 1.1129                 1.0479
 Frc consts  --      2.4055                 1.4561                 1.4054
 IR Inten    --     16.8062                 2.4794                 4.6611

                     76                     77                     78
                      A                      A                      A
 Frequencies --   1531.6604              1533.5002              1540.0478
 Red. masses --      1.3661                 1.1948                 2.5296
 Frc consts  --      1.8883                 1.6554                 3.5348
 IR Inten    --     13.8581                20.0185               113.5032

                     79                     80                     81
                      A                      A                      A
 Frequencies --   1620.4186              1629.9140              1671.4669
 Red. masses --      1.1206                 4.9220                 6.2105
 Frc consts  --      1.7336                 7.7041                10.2229
 IR Inten    --     42.5292                11.2028                30.2996

                     82                     83                     84
                      A                      A                      A
 Frequencies --   3065.8968              3130.9599              3145.2176
 Red. masses --      1.0358                 1.1004                 1.1031
 Frc consts  --      5.7362                 6.3556                 6.4296
 IR Inten    --     18.2471                 6.6268                10.7154

                     85                     86                     87
                      A                      A                      A
 Frequencies --   3155.3484              3158.9383              3171.9868
 Red. masses --      1.0713                 1.0687                 1.0593
 Frc consts  --      6.2846                 6.2835                 6.2793
 IR Inten    --      8.4683                20.6701                 8.6264

                     88                     89                     90
                      A                      A                      A
 Frequencies --   3184.8332              3202.2693              3241.0405
 Red. masses --      1.0879                 1.0942                 1.1199
 Frc consts  --      6.5012                 6.6107                 6.9312
 IR Inten    --     10.2690                16.2868                 4.2735

                     91                     92                     93
                      A                      A                      A
 Frequencies --   3260.8430              3262.2607              3482.9740
 Red. masses --      1.1161                 1.0907                 1.0469
 Frc consts  --      6.9919                 6.8392                 7.4825
 IR Inten    --      6.9944                15.2634                33.8923

                     94                     95                     96
                      A                      A                      A
 Frequencies --   3533.0601              3573.0780              3593.6299
 Red. masses --      1.0753                 1.0759                 1.0976
 Frc consts  --      7.9084                 8.0932                 8.3511
 IR Inten    --     32.4623                43.7505                31.0920

 - Thermochemistry -
 -------------------
 Temperature   298.150 Kelvin.  Pressure   1.00000 Atm.
 Atom     1 has atomic number  6 and mass  12.00000

 Molecular mass:   305.05040 amu.
 Principal axes and moments of inertia in atomic units:
                           1         2         3
     Eigenvalues --  3564.982308467.12541**********
           X            0.99937  -0.03321  -0.01216
           Y            0.03308   0.99939  -0.01090
           Z            0.01252   0.01049   0.99987
 This molecule is an asymmetric top.
 Rotational symmetry number  1.
 Warning -- assumption of classical behavior for rotation
           may cause significant error
 Rotational temperatures (Kelvin)      0.02430     0.01023     0.00862
 Rotational constants (GHZ):           0.50624     0.21315     0.17961
 Zero-point vibrational energy     690548.8 (Joules/Mol)
                                  165.04513 (Kcal/Mol)
 Warning -- explicit consideration of  32 degrees of freedom as
           vibrations may cause significant error
 Vibrational temperatures:     21.12    34.89    67.61    94.42   106.51
          (Kelvin)            138.80   167.65   199.76   219.00   255.68
                              262.47   283.70   333.19   397.12   418.61
                              433.22   453.67   473.82   486.77   523.32
                              540.78   571.66   633.71   667.88   690.26
                              708.46   730.21   753.43   775.99   804.69
                              840.65   879.08   893.70   995.11  1021.10
                             1033.19  1118.34  1135.97  1164.16  1203.66
                             1231.56  1237.85  1267.30  1304.49  1360.11
                             1370.45  1371.08  1421.87  1472.73  1488.44
                             1542.56  1543.70  1553.57  1574.90  1594.55
                             1621.59  1640.95  1642.10  1709.36  1729.43
                             1742.60  1784.44  1805.79  1825.08  1875.33
                             1913.26  1920.83  1937.46  2022.75  2042.46
                             2055.59  2080.10  2134.50  2144.07  2170.76
                             2203.72  2206.36  2215.79  2331.42  2345.08
                             2404.87  4411.14  4504.75  4525.27  4539.84
                             4545.01  4563.78  4582.26  4607.35  4663.13
                             4691.63  4693.67  5011.22  5083.29  5140.86
                             5170.43

 Zero-point correction=                           0.263016 (Hartree/Particle)
 Thermal correction to Energy=                    0.282322
 Thermal correction to Enthalpy=                  0.283266
 Thermal correction to Gibbs Free Energy=         0.213600
 Sum of electronic and zero-point Energies=          -1651.269207
 Sum of electronic and thermal Energies=             -1651.249901
 Sum of electronic and thermal Enthalpies=           -1651.248957
 Sum of electronic and thermal Free Energies=        -1651.318623

                     E (Thermal)             CV                S
                      KCal/Mol        Cal/Mol-Kelvin    Cal/Mol-Kelvin
 Total                  177.160             72.853            146.624
 Electronic               0.000              0.000              0.000
 Translational            0.889              2.981             43.043
 Rotational               0.889              2.981             34.072
 Vibrational            175.382             66.892             69.510
 Vibration     1          0.593              1.986              7.248
 Vibration     2          0.593              1.985              6.252
 Vibration     3          0.595              1.979              4.940
 Vibration     4          0.597              1.971              4.280
 Vibration     5          0.599              1.966              4.043
 Vibration     6          0.603              1.952              3.524
 Vibration     7          0.608              1.936              3.157
 Vibration     8          0.614              1.915              2.820
 Vibration     9          0.619              1.900              2.644
 Vibration    10          0.628              1.870              2.352
 Vibration    11          0.630              1.864              2.303
 Vibration    12          0.637              1.844              2.159
 Vibration    13          0.653              1.793              1.867
 Vibration    14          0.678              1.718              1.558
 Vibration    15          0.687              1.691              1.468
 Vibration    16          0.693              1.672              1.411
 Vibration    17          0.703              1.644              1.334
 Vibration    18          0.712              1.617              1.263
 Vibration    19          0.719              1.599              1.220
 Vibration    20          0.737              1.547              1.106
 Vibration    21          0.747              1.522              1.056
 Vibration    22          0.764              1.476              0.973
 Vibration    23          0.800              1.382              0.825
 Vibration    24          0.822              1.329              0.754
 Vibration    25          0.836              1.295              0.711
 Vibration    26          0.848              1.267              0.677
 Vibration    27          0.863              1.233              0.640
 Vibration    28          0.879              1.198              0.602
 Vibration    29          0.894              1.163              0.567
 Vibration    30          0.915              1.119              0.525
 Vibration    31          0.941              1.065              0.477
 Vibration    32          0.970              1.009              0.431

                           ! Non-Optimized Parameters !
 Normal termination of Gaussian 16 at Mon Dec 14 13:52:14 2020.

 ----------------------------------------------------------------------
 # B3LYP/6-311++G(d,p) empiricaldispersion=gd3bj scf=xqc pop=npa geom=c
 heck
 ----------------------------------------------------------------------

 ---------------------------------------
 CID_113637663_JID_9976_Energie_neutraal
 ---------------------------------------
 Structure from the checkpoint file:  "JID_9976.chk"
 Charge =  0 Multiplicity = 1

 SCF Done:  E(RB3LYP) =  -1651.83902234     A.U. after   15 cycles
 Normal termination of Gaussian 16 at Mon Dec 14 14:00:28 2020.

 ----------------------------------------------------------------------
 # B3LYP/6-311++G(d,p) empiricaldispersion=gd3bj scf=xqc pop=npa geom=c
 heck
 ----------------------------------------------------------------------

 -------------------------------------
 CID_113637663_JID_9976_Energie_kation
 -------------------------------------
 Structure from the checkpoint file:  "JID_9976.chk"
 Charge =  1 Multiplicity = 2

 SCF Done:  E(UB3LYP) =  -1651.52800338     A.U. after   23 cycles
 Normal termination of Gaussian 16 at Mon Dec 14 14:18:39 2020.
 Gaussian 16:  ES64L-G16RevA.03 25-Dec-2016

 ----------------------------------------------------------------------
 # B3LYP/6-311++G(d,p) empiricaldispersion=gd3bj scf=xqc pop=npa geom=c
 heck
 ----------------------------------------------------------------------

 ------------------------------------
 CID_113637663_JID_9976_Energie_anion
 ------------------------------------
 Structure from the checkpoint file:  "JID_9976.chk"
 Charge = -1 Multiplicity = 2

                         Standard orientation:
 ---------------------------------------------------------------------
 Center     Atomic      Atomic             Coordinates (Angstroms)
 Number     Number       Type             X           Y           Z
 ---------------------------------------------------------------------
      1          6           0       -3.994543    1.498397   -0.566947
      2          6           0       -2.490452    1.437455   -0.524980
      3          6           0       -1.765806    0.294090   -0.140367
      4          6           0       -0.376375    0.252887   -0.113487
      5          6           0        0.354331    1.392757   -0.457849
      6          6           0       -0.332426    2.549298   -0.832734
      7          6           0       -1.725115    2.556246   -0.871335
      8          7           0        1.769363    1.359139   -0.489788
      9         16           0        2.695771    0.733320    0.780042
     10          8           0        4.046897    1.190390    0.461111
     11          8           0        2.092311    0.986977    2.085395
     12          7           0        2.482778   -0.911210    0.534932
     13          6           0        3.203650   -1.557508   -0.535086
     14          6           0        2.538731   -2.777077   -1.123633
     15          6           0        2.596670   -1.497120   -1.912177
     16         16           0       -2.584529   -1.244474    0.284826
     17          8           0       -3.618094   -1.555135   -0.706726
     18          8           0       -1.541246   -2.225454    0.608815
     19          7           0       -3.428314   -0.814034    1.694989
     20          1           0       -4.400495    0.767854   -1.272163
     21          1           0       -4.419468    1.266500    0.415237
     22          1           0       -4.325687    2.497577   -0.862749
     23          1           0        0.129743   -0.658304    0.173005
     24          1           0        0.220829    3.447124   -1.096071
     25          1           0       -2.238531    3.465632   -1.170449
     26          1           0        2.224565    2.196508   -0.839569
     27          1           0        2.532990   -1.375076    1.439727
     28          1           0        4.288951   -1.544100   -0.458001
     29          1           0        3.178245   -3.605362   -1.412940
     30          1           0        1.577672   -3.061405   -0.705154
     31          1           0        1.679562   -0.930513   -2.023749
     32          1           0        3.281965   -1.427920   -2.751063
     33          1           0       -4.302158   -1.338290    1.711046
     34          1           0       -2.865793   -1.029813    2.516880
 ---------------------------------------------------------------------

 SCF Done:  E(UB3LYP) =  -1651.84224020     A.U. after   33 cycles
 SCF Done:  E(UB3LYP) =  -1651.84224020     a.u. after    1 cycles

 The electronic state is 2-A.
 Alpha  occ. eigenvalues --  -88.98773 -88.93408 -19.02987 -19.02605 -18.99208
 Alpha  occ. eigenvalues --  -18.99111 -14.26003 -14.25102 -14.22012 -10.13453
 Alpha  occ. eigenvalues --  -10.09483 -10.09466 -10.09075 -10.06050 -10.05988
 Alpha  occ. eigenvalues --  -10.05077 -10.04730 -10.04634 -10.04182  -8.04699
 Alpha  occ. eigenvalues --   -7.99581  -6.00962  -6.00938  -6.00888  -5.95902
 Alpha  occ. eigenvalues --   -5.95847  -5.95621  -1.03975  -0.99409  -0.92346
 Alpha  occ. eigenvalues --   -0.88550  -0.85755  -0.83566  -0.78920  -0.76109
 Alpha  occ. eigenvalues --   -0.73635  -0.65477  -0.64175  -0.58843  -0.57032
 Alpha  occ. eigenvalues --   -0.54003  -0.52755  -0.51238  -0.48409  -0.48112
 Alpha  occ. eigenvalues --   -0.45038  -0.43892  -0.42653  -0.41500  -0.40864
 Alpha  occ. eigenvalues --   -0.40323  -0.38645  -0.36487  -0.35468  -0.35173
 Alpha  occ. eigenvalues --   -0.34655  -0.33484  -0.32252  -0.31056  -0.30491
 Alpha  occ. eigenvalues --   -0.28913  -0.28081  -0.27095  -0.26712  -0.26428
 Alpha  occ. eigenvalues --   -0.25311  -0.24942  -0.23823  -0.23351  -0.23178
 Alpha  occ. eigenvalues --   -0.22603  -0.21283  -0.20779  -0.20212  -0.19131
 Alpha  occ. eigenvalues --   -0.18625  -0.18117  -0.17573  -0.14192  -0.11313
 Alpha  occ. eigenvalues --    0.04377
 Alpha virt. eigenvalues --    0.05900   0.07213   0.07985   0.08323   0.08817
 Alpha virt. eigenvalues --    0.09367   0.10132   0.10247   0.10946   0.11817
 Alpha virt. eigenvalues --    0.12510   0.13077   0.13137   0.13537   0.13669

  Beta  occ. eigenvalues --  -88.98771 -88.93389 -19.02983 -19.02597 -18.99163
  Beta  occ. eigenvalues --  -18.99047 -14.26002 -14.25106 -14.21910 -10.13449
  Beta  occ. eigenvalues --  -10.09479 -10.09458 -10.09069 -10.05870 -10.05749
  Beta  occ. eigenvalues --  -10.05099 -10.04743 -10.04517 -10.03827  -8.04697
  Beta  occ. eigenvalues --   -7.99562  -6.00961  -6.00936  -6.00887  -5.95871
  Beta  occ. eigenvalues --   -5.95795  -5.95616  -1.03962  -0.99273  -0.92333
  Beta  occ. eigenvalues --   -0.88443  -0.85746  -0.83523  -0.78728  -0.76099
  Beta  occ. eigenvalues --   -0.73258  -0.65165  -0.63668  -0.58791  -0.56794
  Beta  occ. eigenvalues --   -0.53742  -0.52725  -0.51150  -0.48113  -0.48002
  Beta  occ. eigenvalues --   -0.45004  -0.43803  -0.42548  -0.41455  -0.40725
  Beta  occ. eigenvalues --   -0.40264  -0.38415  -0.36448  -0.35238  -0.35014
  Beta  occ. eigenvalues --   -0.34491  -0.33458  -0.32150  -0.30964  -0.30162
  Beta  occ. eigenvalues --   -0.28865  -0.27985  -0.26898  -0.26678  -0.26378
  Beta  occ. eigenvalues --   -0.25132  -0.24754  -0.23641  -0.23219  -0.23111
  Beta  occ. eigenvalues --   -0.22505  -0.21137  -0.20604  -0.19932  -0.19003
  Beta  occ. eigenvalues --   -0.18431  -0.17984  -0.17284  -0.12739  -0.10280
  Beta virt. eigenvalues --    0.06094   0.07628   0.07934   0.08305   0.08817
  Beta virt. eigenvalues --    0.09335   0.09648   0.10277   0.10497   0.10974
  Beta virt. eigenvalues --    0.12123   0.12496   0.13011   0.13117   0.13494

 Mulliken charges and spin densities:
               1          2
     1  C   -0.633794   0.065664
     2  C    0.719391   0.141105
     3  C   -0.371379   0.351956
     4  C   -0.561838   0.066586
     5  C    0.360621   0.017867
     6  C   -0.486605   0.316463
     7  C   -0.747744  -0.064682
     8  N   -0.390203   0.016108
     9  S    0.660464  -0.014780
    10  O   -0.244912  -0.007070
    11  O   -0.258652  -0.001534
    12  N   -0.359907  -0.018685
    13  C   -0.303268   0.143882
    14  C   -0.126222  -0.313968
    15  C   -0.254467  -0.054919
    16  S    0.754368  -0.555835
    17  O   -0.254632   0.012286
    18  O   -0.146634   0.012181
    19  N   -0.361266  -0.070108
    20  H    0.192373   0.000110
    21  H    0.154321   0.040658
    22  H    0.081893   0.030297
    23  H    0.266678  -0.032561
    24  H    0.081481  -0.024703
    25  H    0.093996  -0.001087
    26  H    0.314113   0.000698
    27  H    0.305874   0.018593
    28  H    0.098482   0.142498
    29  H   -0.039636   0.183141
    30  H    0.169392  -0.010030
    31  H    0.190246  -0.004052
    32  H    0.101019   0.059229
    33  H   -0.077179   0.358548
    34  H    0.073628   0.196142
 Sum of Mulliken charges =  -1.00000   1.00000

 Dipole moment (field-independent basis, Debye):
    X=              4.3061    Y=              0.6299    Z=             -1.6046  Tot=              4.6383
 Quadrupole moment (field-independent basis, Debye-Ang):
   XX=           -188.6220   YY=           -152.8782   ZZ=           -148.3656
   XY=            -13.9554   XZ=             -2.3158   YZ=             -7.2957

 Summary of Natural Population Analysis:

                                       Natural Population
                Natural  -----------------------------------------------
    Atom  No    Charge         Core      Valence    Rydberg      Total
 -----------------------------------------------------------------------
      C    1   -0.29953      0.99963     2.29484    0.00506     3.29953
      C    2    0.01098      0.99947     1.98123    0.00831     2.98902
      C    3   -0.08226      0.99932     2.06772    0.01522     3.08226
      C    4   -0.09102      0.99947     2.08030    0.01126     3.09102
      C    5    0.05683      0.99946     1.92973    0.01398     2.94317
      C    6   -0.04218      0.99953     2.03458    0.00806     3.04218
      C    7   -0.10482      0.99953     2.09747    0.00782     3.10482
      N    8   -0.41962      0.99968     2.90779    0.01214     3.91962
      S    9    1.16264      4.99935     1.73257    0.10544     6.83736
      O   10   -0.46495      0.99990     3.46011    0.00495     4.46495
      O   11   -0.45256      0.99990     3.44723    0.00542     4.45256
      N   12   -0.43113      0.99973     2.91802    0.01338     3.93113
      C   13   -0.03352      0.99958     2.01959    0.01435     3.03352
      C   14   -0.19792      0.99962     2.19172    0.00657     3.19792
      C   15   -0.19638      0.99962     2.18690    0.00986     3.19638
      S   16    1.10334      4.99927     1.79788    0.09952     6.89666
      O   17   -0.46928      0.99990     3.46353    0.00584     4.46928
      O   18   -0.47240      0.99991     3.46700    0.00549     4.47240
      N   19   -0.51333      0.99979     3.00253    0.01102     4.01333
      H   20    0.11291      0.00000     0.38597    0.00112     0.38709
      H   21    0.11048      0.00000     0.38815    0.00137     0.38952
      H   22    0.09311      0.00000     0.40601    0.00089     0.40689
      H   23    0.12014      0.00000     0.37782    0.00204     0.37986
      H   24    0.08794      0.00000     0.41069    0.00137     0.41206
      H   25    0.09184      0.00000     0.40682    0.00134     0.40816
      H   26    0.20020      0.00000     0.29832    0.00148     0.29980
      H   27    0.19990      0.00000     0.29847    0.00164     0.30010
      H   28    0.09972      0.00000     0.39906    0.00122     0.40028
      H   29    0.10111      0.00000     0.39778    0.00111     0.39889
      H   30    0.11509      0.00000     0.38377    0.00113     0.38491
      H   31    0.11893      0.00000     0.38006    0.00101     0.38107
      H   32    0.10166      0.00000     0.39761    0.00073     0.39834
      H   33    0.19294      0.00000     0.30287    0.00419     0.30706
      H   34    0.19113      0.00000     0.30686    0.00201     0.30887
 =======================================================================
   * Total *    0.00000     26.99266    52.62100    0.38634    80.00000

 Normal termination of Gaussian 16 at Mon Dec 14 14:45:06 2020.
