 Gaussian 16, Revision A.03,

 -----------------------------------------------------------
 # opt freq B3LYP/6-31G(d) empiricaldispersion=gd3bj scf=xqc
 -----------------------------------------------------------

 -------------------------------
 CID_113350835_JID_7767_neutraal
 -------------------------------
 Symbolic Z-matrix:
 Charge =  0 Multiplicity = 1

 SCF Done:  E(RB3LYP) =  -1831.57690071     A.U. after   14 cycles
 SCF Done:  E(RB3LYP) =  -1831.58561180     A.U. after   13 cycles
 SCF Done:  E(RB3LYP) =  -1831.58970795     A.U. after   13 cycles
 SCF Done:  E(RB3LYP) =  -1831.59560583     A.U. after   15 cycles
 SCF Done:  E(RB3LYP) =  -1831.59919249     A.U. after   13 cycles
 SCF Done:  E(RB3LYP) =  -1831.60181602     A.U. after   13 cycles
 SCF Done:  E(RB3LYP) =  -1831.60303352     A.U. after   12 cycles
 SCF Done:  E(RB3LYP) =  -1831.60322341     A.U. after   12 cycles
 SCF Done:  E(RB3LYP) =  -1831.60376132     A.U. after   12 cycles
 SCF Done:  E(RB3LYP) =  -1831.60387780     A.U. after   12 cycles
 SCF Done:  E(RB3LYP) =  -1831.60471864     A.U. after   10 cycles
 SCF Done:  E(RB3LYP) =  -1831.60472375     A.U. after   10 cycles
 SCF Done:  E(RB3LYP) =  -1831.60472513     A.U. after    9 cycles
 SCF Done:  E(RB3LYP) =  -1831.60472545     A.U. after    8 cycles
 SCF Done:  E(RB3LYP) =  -1831.60472554     A.U. after    7 cycles
 SCF Done:  E(RB3LYP) =  -1831.60472556     A.U. after    6 cycles
 Optimization completed.
    -- Stationary point found.
 Normal termination of Gaussian 16 at Sun Dec 13 12:49:02 2020.

 --------------------------------------------------------------------
 #N Geom=AllCheck Guess=TCheck SCRF=Check GenChk RB3LYP/6-31G(d) Freq
 --------------------------------------------------------------------

 Structure from the checkpoint file:  "JID_7767.chk"
 -------------------------------
 CID_113350835_JID_7767_neutraal
 -------------------------------
 Charge =  0 Multiplicity = 1

 SCF Done:  E(RB3LYP) =  -1831.60472556     A.U. after    1 cycles

  Exact polarizability: 176.057   4.249 176.952  -0.441   0.698 156.499
 Approx polarizability: 247.536  -2.475 265.478   2.459   6.662 254.149

                      1                      2                      3
                      A                      A                      A
 Frequencies --     22.8533                38.2707                50.3011
 Red. masses --      5.1382                 2.9465                 4.5352
 Frc consts  --      0.0016                 0.0025                 0.0068
 IR Inten    --      0.8508                 0.1846                 0.3113

                      4                      5                      6
                      A                      A                      A
 Frequencies --     70.7967                84.2953               107.5901
 Red. masses --      7.0995                 5.1969                 3.6216
 Frc consts  --      0.0210                 0.0218                 0.0247
 IR Inten    --      0.1428                 3.0478                 3.5828

                      7                      8                      9
                      A                      A                      A
 Frequencies --    120.0268               156.1550               181.9995
 Red. masses --      4.1051                 4.1075                 3.5708
 Frc consts  --      0.0348                 0.0590                 0.0697
 IR Inten    --     11.1206                 6.6901                 2.9461

                     10                     11                     12
                      A                      A                      A
 Frequencies --    198.0011               220.8000               225.7438
 Red. masses --      2.5611                 2.6292                 1.3021
 Frc consts  --      0.0592                 0.0755                 0.0391
 IR Inten    --      2.2482                 0.0109                 1.1913

                     13                     14                     15
                      A                      A                      A
 Frequencies --    250.7199               260.4109               273.7280
 Red. masses --      4.0484                 2.7613                 2.8896
 Frc consts  --      0.1499                 0.1103                 0.1276
 IR Inten    --      0.5463                 1.4395                 2.3573

                     16                     17                     18
                      A                      A                      A
 Frequencies --    283.0605               306.0180               333.3084
 Red. masses --      4.4355                 6.9398                 3.5922
 Frc consts  --      0.2094                 0.3829                 0.2351
 IR Inten    --      1.3734                 0.7738                 1.1958

                     19                     20                     21
                      A                      A                      A
 Frequencies --    342.2384               356.9998               382.0671
 Red. masses --      2.7252                 2.9970                 3.9090
 Frc consts  --      0.1881                 0.2250                 0.3362
 IR Inten    --      0.8111                 2.1801                 2.9726

                     22                     23                     24
                      A                      A                      A
 Frequencies --    443.2265               478.2499               495.7560
 Red. masses --      2.9821                 3.9485                 3.1625
 Frc consts  --      0.3452                 0.5321                 0.4579
 IR Inten    --      6.0009                12.1107                 8.3809

                     25                     26                     27
                      A                      A                      A
 Frequencies --    520.2239               595.0408               618.1426
 Red. masses --      6.6401                 4.1928                 4.6061
 Frc consts  --      1.0588                 0.8747                 1.0369
 IR Inten    --     43.0219                 1.8793                 2.4889

                     28                     29                     30
                      A                      A                      A
 Frequencies --    628.1274               642.6042               659.4677
 Red. masses --      2.5133                 3.7731                 3.9504
 Frc consts  --      0.5842                 0.9180                 1.0122
 IR Inten    --      3.5802                 3.1904                 4.7306

                     31                     32                     33
                      A                      A                      A
 Frequencies --    679.3635               738.4437               758.7927
 Red. masses --      2.9840                 5.5693                 2.5253
 Frc consts  --      0.8114                 1.7893                 0.8567
 IR Inten    --      3.1843                36.2002                38.4773

                     34                     35                     36
                      A                      A                      A
 Frequencies --    781.2012               811.9232               843.4014
 Red. masses --      3.3158                 1.8540                 1.9370
 Frc consts  --      1.1922                 0.7201                 0.8118
 IR Inten    --      8.0541                29.6590                 1.3710

                     37                     38                     39
                      A                      A                      A
 Frequencies --    863.9379               884.1588               897.5716
 Red. masses --      1.9582                 1.7880                 2.1653
 Frc consts  --      0.8611                 0.8235                 1.0278
 IR Inten    --      0.4782                 3.1951                 5.6723

                     40                     41                     42
                      A                      A                      A
 Frequencies --    910.1379               922.8175               939.2069
 Red. masses --      2.3858                 1.8657                 2.6127
 Frc consts  --      1.1644                 0.9361                 1.3579
 IR Inten    --      4.9027                15.0679                 4.3507

                     43                     44                     45
                      A                      A                      A
 Frequencies --    961.6362               965.2231               997.9183
 Red. masses --      1.6828                 1.9214                 1.4986
 Frc consts  --      0.9169                 1.0547                 0.8793
 IR Inten    --     10.1660                17.6986                19.8548

                     46                     47                     48
                      A                      A                      A
 Frequencies --   1001.6010              1011.7643              1028.2921
 Red. masses --      1.4018                 1.8720                 1.7613
 Frc consts  --      0.8286                 1.1291                 1.0973
 IR Inten    --      5.6380                12.6384                 1.5367

                     49                     50                     51
                      A                      A                      A
 Frequencies --   1037.2963              1059.1266              1071.0001
 Red. masses --      2.4698                 2.1507                 2.2723
 Frc consts  --      1.5657                 1.4214                 1.5357
 IR Inten    --      2.0175                 2.3731                11.0003

                     52                     53                     54
                      A                      A                      A
 Frequencies --   1098.3921              1112.8190              1121.5781
 Red. masses --      1.6894                 3.5604                 2.8919
 Frc consts  --      1.2009                 2.5977                 2.1433
 IR Inten    --     18.1680                54.6775                64.8335

                     55                     56                     57
                      A                      A                      A
 Frequencies --   1151.5705              1179.4940              1194.5438
 Red. masses --      1.8217                 1.0464                 1.4036
 Frc consts  --      1.4233                 0.8577                 1.1801
 IR Inten    --     10.0895                 4.0977                 3.6249

                     58                     59                     60
                      A                      A                      A
 Frequencies --   1202.8121              1208.9788              1239.7642
 Red. masses --      1.3607                 1.5479                 1.1973
 Frc consts  --      1.1599                 1.3330                 1.0842
 IR Inten    --      3.2165                15.6720                 0.3288

                     61                     62                     63
                      A                      A                      A
 Frequencies --   1248.1627              1264.3933              1274.3328
 Red. masses --      1.3465                 1.3427                 1.8442
 Frc consts  --      1.2360                 1.2647                 1.7645
 IR Inten    --     51.5980                 3.4437                85.6791

                     64                     65                     66
                      A                      A                      A
 Frequencies --   1291.4681              1298.8375              1314.5625
 Red. masses --      1.8065                 1.3807                 1.4462
 Frc consts  --      1.7753                 1.3723                 1.4724
 IR Inten    --     80.2019                 4.8841                29.3113

                     67                     68                     69
                      A                      A                      A
 Frequencies --   1318.6801              1325.4797              1334.1027
 Red. masses --      1.3525                 1.3766                 1.3725
 Frc consts  --      1.3857                 1.4250                 1.4392
 IR Inten    --     28.1419                34.5284                 6.6549

                     70                     71                     72
                      A                      A                      A
 Frequencies --   1351.2648              1355.4910              1365.6372
 Red. masses --      1.2352                 1.3780                 1.2279
 Frc consts  --      1.3288                 1.4917                 1.3492
 IR Inten    --      2.6259                 0.2517                21.3028

                     73                     74                     75
                      A                      A                      A
 Frequencies --   1369.7831              1376.3477              1380.5930
 Red. masses --      1.3067                 1.2514                 1.4507
 Frc consts  --      1.4445                 1.3968                 1.6291
 IR Inten    --     11.5271                 7.6976                 2.8920

                     76                     77                     78
                      A                      A                      A
 Frequencies --   1389.7361              1437.3382              1476.3560
 Red. masses --      1.2774                 1.3200                 1.0513
 Frc consts  --      1.4536                 1.6067                 1.3501
 IR Inten    --     16.6676                 0.5530                 2.9110

                     79                     80                     81
                      A                      A                      A
 Frequencies --   1491.3112              1506.9582              1512.0373
 Red. masses --      1.0872                 1.0534                 1.0823
 Frc consts  --      1.4246                 1.4094                 1.4579
 IR Inten    --      5.3678                 4.6684                 6.6520

                     82                     83                     84
                      A                      A                      A
 Frequencies --   1517.6783              1522.5557              1523.0110
 Red. masses --      1.0959                 1.0882                 1.0772
 Frc consts  --      1.4872                 1.4863                 1.4721
 IR Inten    --      4.9821                 1.2078                 2.1537

                     85                     86                     87
                      A                      A                      A
 Frequencies --   1528.1989              1540.8903              1547.2758
 Red. masses --      1.1636                 1.1143                 1.1128
 Frc consts  --      1.6010                 1.5588                 1.5696
 IR Inten    --     52.7241                43.8017                29.2150

                     88                     89                     90
                      A                      A                      A
 Frequencies --   2928.4566              3044.8099              3047.5686
 Red. masses --      1.0726                 1.0843                 1.0721
 Frc consts  --      5.4198                 5.9227                 5.8669
 IR Inten    --     69.2848                 6.0949                17.8880

                     91                     92                     93
                      A                      A                      A
 Frequencies --   3055.2703              3061.2921              3067.3032
 Red. masses --      1.0835                 1.0819                 1.0647
 Frc consts  --      5.9591                 5.9739                 5.9020
 IR Inten    --     11.7697                53.3464                22.5797

                     94                     95                     96
                      A                      A                      A
 Frequencies --   3068.2914              3072.5640              3074.7764
 Red. masses --      1.0603                 1.0609                 1.0293
 Frc consts  --      5.8811                 5.9009                 5.7334
 IR Inten    --     18.3520                31.3998                14.9872

                     97                     98                     99
                      A                      A                      A
 Frequencies --   3081.9299              3096.2186              3107.7177
 Red. masses --      1.0651                 1.0635                 1.0851
 Frc consts  --      5.9606                 6.0072                 6.1746
 IR Inten    --     36.0366                14.8100                 6.0519

                    100                    101                    102
                      A                      A                      A
 Frequencies --   3109.6204              3113.5108              3116.6983
 Red. masses --      1.0942                 1.1065                 1.1027
 Frc consts  --      6.2337                 6.3196                 6.3108
 IR Inten    --     26.9409                 7.8818                33.6804

                    103                    104                    105
                      A                      A                      A
 Frequencies --   3118.3421              3145.0605              3168.5988
 Red. masses --      1.1065                 1.1059                 1.1007
 Frc consts  --      6.3394                 6.4450                 6.5112
 IR Inten    --     13.7054                19.4194                22.3794

                    106                    107                    108
                      A                      A                      A
 Frequencies --   3175.5573              3191.6556              3495.0157
 Red. masses --      1.1056                 1.1096                 1.0747
 Frc consts  --      6.5688                 6.6596                 7.7344
 IR Inten    --      1.6767                19.5236                49.9481

 - Thermochemistry -
 -------------------
 Temperature   298.150 Kelvin.  Pressure   1.00000 Atm.
 Atom     1 has atomic number  6 and mass  12.00000

 Molecular mass:   295.07344 amu.
 Principal axes and moments of inertia in atomic units:
                           1         2         3
     Eigenvalues --  3578.680596598.928657612.98414
           X            0.99961   0.02724   0.00619
           Y           -0.02733   0.99951   0.01527
           Z           -0.00577  -0.01543   0.99986
 This molecule is an asymmetric top.
 Rotational symmetry number  1.
 Warning -- assumption of classical behavior for rotation
           may cause significant error
 Rotational temperatures (Kelvin)      0.02420     0.01313     0.01138
 Rotational constants (GHZ):           0.50430     0.27349     0.23706
 Zero-point vibrational energy     850686.8 (Joules/Mol)
                                  203.31903 (Kcal/Mol)
 Warning -- explicit consideration of  27 degrees of freedom as
           vibrations may cause significant error
 Vibrational temperatures:     32.88    55.06    72.37   101.86   121.28
          (Kelvin)            154.80   172.69   224.67   261.86   284.88
                              317.68   324.79   360.73   374.67   393.83
                              407.26   440.29   479.56   492.40   513.64
                              549.71   637.70   688.09   713.28   748.49
                              856.13   889.37   903.74   924.56   948.83
                              977.45  1062.46  1091.73  1123.97  1168.18
                             1213.47  1243.01  1272.11  1291.41  1309.49
                             1327.73  1351.31  1383.58  1388.74  1435.78
                             1441.08  1455.70  1479.48  1492.44  1523.85
                             1540.93  1580.34  1601.10  1613.70  1656.85
                             1697.03  1718.68  1730.58  1739.45  1783.74
                             1795.83  1819.18  1833.48  1858.13  1868.74
                             1891.36  1897.29  1907.07  1919.48  1944.17
                             1950.25  1964.85  1970.81  1980.26  1986.37
                             1999.52  2068.01  2124.15  2145.66  2168.18
                             2175.48  2183.60  2190.62  2191.27  2198.74
                             2217.00  2226.18  4213.40  4380.80  4384.77
                             4395.85  4404.52  4413.17  4414.59  4420.73
                             4423.92  4434.21  4454.77  4471.31  4474.05
                             4479.65  4484.23  4486.60  4525.04  4558.91
                             4568.92  4592.08  5028.55

 Zero-point correction=                           0.324009 (Hartree/Particle)
 Thermal correction to Energy=                    0.342172
 Thermal correction to Enthalpy=                  0.343117
 Thermal correction to Gibbs Free Energy=         0.276795
 Sum of electronic and zero-point Energies=          -1831.280716
 Sum of electronic and thermal Energies=             -1831.262553
 Sum of electronic and thermal Enthalpies=           -1831.261609
 Sum of electronic and thermal Free Energies=        -1831.327931

                     E (Thermal)             CV                S
                      KCal/Mol        Cal/Mol-Kelvin    Cal/Mol-Kelvin
 Total                  214.716             69.316            139.586
 Electronic               0.000              0.000              0.000
 Translational            0.889              2.981             42.943
 Rotational               0.889              2.981             33.552
 Vibrational            212.939             63.355             63.091
 Vibration     1          0.593              1.985              6.369
 Vibration     2          0.594              1.982              5.347
 Vibration     3          0.595              1.977              4.806
 Vibration     4          0.598              1.968              4.131
 Vibration     5          0.601              1.960              3.788
 Vibration     6          0.606              1.943              3.312
 Vibration     7          0.609              1.933              3.100
 Vibration     8          0.620              1.896              2.596
 Vibration     9          0.630              1.864              2.308
 Vibration    10          0.637              1.843              2.152
 Vibration    11          0.648              1.809              1.953
 Vibration    12          0.650              1.802              1.913
 Vibration    13          0.663              1.762              1.726
 Vibration    14          0.668              1.745              1.659
 Vibration    15          0.676              1.722              1.573
 Vibration    16          0.682              1.705              1.515
 Vibration    17          0.696              1.662              1.384
 Vibration    18          0.715              1.609              1.244
 Vibration    19          0.721              1.591              1.202
 Vibration    20          0.732              1.561              1.135
 Vibration    21          0.752              1.508              1.031
 Vibration    22          0.803              1.376              0.817
 Vibration    23          0.835              1.298              0.715
 Vibration    24          0.851              1.259              0.669
 Vibration    25          0.875              1.205              0.609
 Vibration    26          0.953              1.042              0.458
 Vibration    27          0.978              0.994              0.419

 Optimization completed.
    -- Stationary point found.
 Normal termination of Gaussian 16 at Sun Dec 13 13:09:48 2020.

 ----------------------------------------------------------------------
 # B3LYP/6-311++G(d,p) empiricaldispersion=gd3bj scf=xqc pop=npa geom=c
 heck
 ----------------------------------------------------------------------

 ---------------------------------------
 CID_113350835_JID_7767_Energie_neutraal
 ---------------------------------------
 Structure from the checkpoint file:  "JID_7767.chk"
 Charge =  0 Multiplicity = 1

 SCF Done:  E(RB3LYP) =  -1831.86699939     A.U. after   15 cycles
 Normal termination of Gaussian 16 at Sun Dec 13 13:20:06 2020.

 ----------------------------------------------------------------------
 # B3LYP/6-311++G(d,p) empiricaldispersion=gd3bj scf=xqc pop=npa geom=c
 heck
 ----------------------------------------------------------------------

 -------------------------------------
 CID_113350835_JID_7767_Energie_kation
 -------------------------------------
 Structure from the checkpoint file:  "JID_7767.chk"
 Charge =  1 Multiplicity = 2

 SCF Done:  E(UB3LYP) =  -1831.57238133     A.U. after   27 cycles
 Normal termination of Gaussian 16 at Sun Dec 13 13:45:35 2020.
 Gaussian 16:  ES64L-G16RevA.03 25-Dec-2016

 ----------------------------------------------------------------------
 # B3LYP/6-311++G(d,p) empiricaldispersion=gd3bj scf=xqc pop=npa geom=c
 heck
 ----------------------------------------------------------------------

 ------------------------------------
 CID_113350835_JID_7767_Energie_anion
 ------------------------------------
 Structure from the checkpoint file:  "JID_7767.chk"
 Charge = -1 Multiplicity = 2

                         Standard orientation:
 ---------------------------------------------------------------------
 Center     Atomic      Atomic             Coordinates (Angstroms)
 Number     Number       Type             X           Y           Z
 ---------------------------------------------------------------------
      1          6           0        1.333723   -2.074047    1.299725
      2         16           0        2.164785   -1.375104   -0.137107
      3          8           0        3.480647   -2.026061   -0.271977
      4          8           0        1.223247   -1.420865   -1.275021
      5          6           0        2.487477    0.372960    0.288768
      6          6           0        2.755011    1.203408   -0.994933
      7          6           0        2.083657    2.578299   -0.732271
      8          6           0        1.764514    2.588477    0.772004
      9          6           0        1.383460    1.119409    1.073826
     10          7           0        0.047984    0.722705    0.649282
     11          6           0       -1.022749    1.311602    1.430756
     12          6           0       -2.428225    0.783557    1.101879
     13          6           0       -3.012034    1.266573   -0.228964
     14         16           0       -2.145453    0.742999   -1.762439
     15          6           0       -1.970341   -1.078373   -1.478987
     16          6           0       -2.925933   -1.611054   -0.421461
     17         16           0       -2.561446   -1.057177    1.293269
     18          1           0        1.234373   -3.142002    1.091361
     19          1           0        0.359181   -1.593695    1.401197
     20          1           0        1.963525   -1.925976    2.179937
     21          1           0        3.387018    0.322917    0.907672
     22          1           0        3.830147    1.292850   -1.165790
     23          1           0        2.322926    0.710722   -1.869394
     24          1           0        1.156715    2.658023   -1.311183
     25          1           0        2.720510    3.415537   -1.031122
     26          1           0        0.970564    3.290658    1.044828
     27          1           0        2.656364    2.860726    1.351141
     28          1           0        1.456770    0.898564    2.145660
     29          1           0       -0.100275    0.881702   -0.345460
     30          1           0       -0.816424    1.089238    2.485976
     31          1           0       -1.076921    2.415329    1.355017
     32          1           0       -3.088102    1.190928    1.877670
     33          1           0       -4.065427    0.979258   -0.289411
     34          1           0       -2.973096    2.361081   -0.258867
     35          1           0       -0.933489   -1.289887   -1.215854
     36          1           0       -2.191086   -1.550016   -2.441953
     37          1           0       -2.831476   -2.700683   -0.367688
     38          1           0       -3.966391   -1.385155   -0.674350
 ---------------------------------------------------------------------

 SCF Done:  E(UB3LYP) =  -1831.86103809     A.U. after   28 cycles

 The electronic state is 2-A.
 Alpha  occ. eigenvalues --  -88.94837 -88.75091 -88.74747 -19.01756 -19.01530
 Alpha  occ. eigenvalues --  -14.20385 -10.12129 -10.12035 -10.11971 -10.11857
 Alpha  occ. eigenvalues --  -10.11653 -10.10824 -10.10791 -10.10605 -10.08754
 Alpha  occ. eigenvalues --  -10.08017 -10.07465  -8.01337  -7.83713  -7.83375
 Alpha  occ. eigenvalues --   -5.97600  -5.97486  -5.97433  -5.80106  -5.79779
 Alpha  occ. eigenvalues --   -5.79744  -5.79412  -5.79077  -5.78719  -1.00831
 Alpha  occ. eigenvalues --   -0.90426  -0.83166  -0.76126  -0.74028  -0.69075
 Alpha  occ. eigenvalues --   -0.68728  -0.66941  -0.64163  -0.62387  -0.58611
 Alpha  occ. eigenvalues --   -0.54861  -0.53849  -0.52072  -0.48738  -0.47389
 Alpha  occ. eigenvalues --   -0.45222  -0.42608  -0.41714  -0.39835  -0.38574
 Alpha  occ. eigenvalues --   -0.38352  -0.38081  -0.36523  -0.35825  -0.35636
 Alpha  occ. eigenvalues --   -0.34439  -0.33959  -0.33621  -0.33309  -0.31703
 Alpha  occ. eigenvalues --   -0.31459  -0.30240  -0.28437  -0.28174  -0.26651
 Alpha  occ. eigenvalues --   -0.26314  -0.25874  -0.25591  -0.24609  -0.23977
 Alpha  occ. eigenvalues --   -0.23510  -0.23389  -0.22303  -0.20764  -0.20493
 Alpha  occ. eigenvalues --   -0.19523  -0.14397  -0.13609  -0.13079   0.03682
 Alpha virt. eigenvalues --    0.05649   0.06516   0.06884   0.07785   0.08244
 Alpha virt. eigenvalues --    0.08560   0.08955   0.09454   0.09893   0.10476
 Alpha virt. eigenvalues --    0.10930   0.11032   0.11606   0.12077   0.12436

  Beta  occ. eigenvalues --  -88.94835 -88.75090 -88.74744 -19.01752 -19.01527
  Beta  occ. eigenvalues --  -14.20383 -10.12115 -10.12022 -10.11953 -10.11845
  Beta  occ. eigenvalues --  -10.11619 -10.10805 -10.10790 -10.10574 -10.08749
  Beta  occ. eigenvalues --  -10.08004 -10.07433  -8.01335  -7.83712  -7.83371
  Beta  occ. eigenvalues --   -5.97599  -5.97484  -5.97432  -5.80104  -5.79775
  Beta  occ. eigenvalues --   -5.79742  -5.79409  -5.79076  -5.78716  -1.00823
  Beta  occ. eigenvalues --   -0.90417  -0.83145  -0.76095  -0.74005  -0.69043
  Beta  occ. eigenvalues --   -0.68704  -0.66916  -0.64125  -0.62348  -0.58563
  Beta  occ. eigenvalues --   -0.54820  -0.53823  -0.52036  -0.48680  -0.47361
  Beta  occ. eigenvalues --   -0.45177  -0.42584  -0.41656  -0.39809  -0.38527
  Beta  occ. eigenvalues --   -0.38331  -0.38055  -0.36491  -0.35803  -0.35604
  Beta  occ. eigenvalues --   -0.34400  -0.33930  -0.33596  -0.33291  -0.31667
  Beta  occ. eigenvalues --   -0.31430  -0.30212  -0.28411  -0.28134  -0.26617
  Beta  occ. eigenvalues --   -0.26277  -0.25841  -0.25552  -0.24578  -0.23951
  Beta  occ. eigenvalues --   -0.23497  -0.23370  -0.22296  -0.20743  -0.20485
  Beta  occ. eigenvalues --   -0.19512  -0.14383  -0.13596  -0.13066
  Beta virt. eigenvalues --    0.05901   0.06453   0.07141   0.07488   0.08156
  Beta virt. eigenvalues --    0.08371   0.09027   0.09272   0.09820   0.10014
  Beta virt. eigenvalues --    0.10846   0.11159   0.11423   0.11807   0.12175

 Mulliken charges and spin densities:
               1          2
     1  C   -0.368256  -0.217531
     2  S    0.381176  -0.160147
     3  O   -0.108863   0.023188
     4  O   -0.216015  -0.000246
     5  C   -0.384117  -0.120859
     6  C   -0.436282  -0.108806
     7  C    0.108807  -0.236136
     8  C    0.239173  -0.954307
     9  C    0.073901   0.182210
    10  N    0.079668  -0.029255
    11  C    0.045489  -0.792863
    12  C    0.163388   0.351893
    13  C    0.564578  -1.449081
    14  S   -0.050564   0.339292
    15  C   -0.534844   0.148872
    16  C   -0.439522  -0.460342
    17  S    0.206668  -0.153669
    18  H    0.148638   0.067686
    19  H    0.200363   0.055285
    20  H   -0.022851   0.227165
    21  H    0.003171   0.339921
    22  H    0.073420   0.087250
    23  H    0.161345   0.042315
    24  H    0.088397   0.052604
    25  H   -0.130682   0.332335
    26  H   -0.327095   0.485548
    27  H   -0.400941   0.570318
    28  H   -0.266858   0.494187
    29  H    0.531261  -0.503915
    30  H   -0.251827   0.421603
    31  H    0.091672   0.042179
    32  H   -0.542857   0.865968
    33  H   -0.036175   0.251062
    34  H   -0.298808   0.548087
    35  H    0.288765  -0.020674
    36  H    0.164570   0.074914
    37  H    0.152343   0.068188
    38  H    0.049762   0.135761
 Sum of Mulliken charges =  -1.00000   1.00000

 Dipole moment (field-independent basis, Debye):
    X=             -1.2221    Y=             -4.2959    Z=             -3.3086  Tot=              5.5584
 Quadrupole moment (field-independent basis, Debye-Ang):
   XX=           -202.6407   YY=           -178.5278   ZZ=           -171.3638
   XY=              9.4157   XZ=              3.2844   YZ=            -10.5499

 Summary of Natural Population Analysis:

                                       Natural Population
                Natural  -----------------------------------------------
    Atom  No    Charge         Core      Valence    Rydberg      Total
 -----------------------------------------------------------------------
      C    1   -0.39810      0.99960     2.39066    0.00784     3.39810
      S    2    1.02965      4.99922     1.87882    0.09231     6.97035
      O    3   -0.47572      0.99991     3.47031    0.00550     4.47572
      O    4   -0.47807      0.99990     3.47247    0.00570     4.47807
      C    5   -0.20272      0.99951     2.18853    0.01469     3.20272
      C    6   -0.20196      0.99961     2.19309    0.00925     3.20196
      C    7   -0.19397      0.99964     2.18623    0.00811     3.19397
      C    8   -0.19778      0.99961     2.18898    0.00920     3.19778
      C    9   -0.01211      0.99957     1.99670    0.01585     3.01211
      N   10   -0.37426      0.99973     2.85929    0.01525     3.87426
      C   11   -0.08782      0.99957     2.07483    0.01342     3.08782
      C   12   -0.17029      0.99953     2.15498    0.01578     3.17029
      C   13   -0.25632      0.99953     2.24390    0.01289     3.25632
      S   14    0.08182      4.99964     2.90106    0.01748     7.91818
      C   15   -0.25820      0.99955     2.24875    0.00990     3.25820
      C   16   -0.25666      0.99957     2.24636    0.01074     3.25666
      S   17    0.08930      4.99961     2.89414    0.01694     7.91070
      H   18    0.11505      0.00000     0.38404    0.00091     0.38495
      H   19    0.13474      0.00000     0.36339    0.00187     0.36526
      H   20    0.11334      0.00000     0.38553    0.00113     0.38666
      H   21    0.12013      0.00000     0.37849    0.00138     0.37987
      H   22    0.10460      0.00000     0.39454    0.00086     0.39540
      H   23    0.11261      0.00000     0.38617    0.00122     0.38739
      H   24    0.09863      0.00000     0.39985    0.00152     0.40137
      H   25    0.10289      0.00000     0.39614    0.00098     0.39711
      H   26    0.10720      0.00000     0.39138    0.00142     0.39280
      H   27    0.10142      0.00000     0.39623    0.00236     0.39858
      H   28    0.10305      0.00000     0.39429    0.00266     0.39695
      H   29    0.19016      0.00000     0.30467    0.00517     0.30984
      H   30    0.09879      0.00000     0.39928    0.00193     0.40121
      H   31    0.08879      0.00000     0.40891    0.00230     0.41121
      H   32    0.11153      0.00000     0.38573    0.00274     0.38847
      H   33    0.10541      0.00000     0.39282    0.00178     0.39459
      H   34    0.11697      0.00000     0.38129    0.00174     0.38303
      H   35    0.12536      0.00000     0.37253    0.00212     0.37464
      H   36    0.10200      0.00000     0.39676    0.00123     0.39800
      H   37    0.11044      0.00000     0.38855    0.00101     0.38956
      H   38    0.10011      0.00000     0.39860    0.00130     0.39989
 =======================================================================
   * Total *    0.00000     28.99329    49.68827    0.31844    79.00000

 Normal termination of Gaussian 16 at Sun Dec 13 14:10:31 2020.
