 Gaussian 16, Revision A.03,

 -----------------------------------------------------------
 # opt freq B3LYP/6-31G(d) empiricaldispersion=gd3bj scf=xqc
 -----------------------------------------------------------

 ------------------------------
 CID_97182136_JID_8094_neutraal
 ------------------------------
 Symbolic Z-matrix:
 Charge =  0 Multiplicity = 1

 SCF Done:  E(RB3LYP) =  -848.802362463     A.U. after   15 cycles
 SCF Done:  E(RB3LYP) =  -848.810921503     A.U. after   13 cycles
 SCF Done:  E(RB3LYP) =  -848.812553187     A.U. after   12 cycles
 SCF Done:  E(RB3LYP) =  -848.812789030     A.U. after   13 cycles
 SCF Done:  E(RB3LYP) =  -848.812826723     A.U. after   12 cycles
 SCF Done:  E(RB3LYP) =  -848.813181474     A.U. after   12 cycles
 SCF Done:  E(RB3LYP) =  -848.813256059     A.U. after   12 cycles
 SCF Done:  E(RB3LYP) =  -848.813278766     A.U. after   11 cycles
 SCF Done:  E(RB3LYP) =  -848.813292301     A.U. after    9 cycles
 SCF Done:  E(RB3LYP) =  -848.813297050     A.U. after    9 cycles
 SCF Done:  E(RB3LYP) =  -848.813363636     A.U. after    7 cycles
 SCF Done:  E(RB3LYP) =  -848.813364259     A.U. after    9 cycles
 SCF Done:  E(RB3LYP) =  -848.813364914     A.U. after    9 cycles
 SCF Done:  E(RB3LYP) =  -848.813365403     A.U. after    9 cycles
 SCF Done:  E(RB3LYP) =  -848.813365598     A.U. after    9 cycles
 SCF Done:  E(RB3LYP) =  -848.813365650     A.U. after    9 cycles
 Optimization completed.
    -- Stationary point found.
 Normal termination of Gaussian 16 at Fri Dec 11 18:56:37 2020.

 --------------------------------------------------------------------
 #N Geom=AllCheck Guess=TCheck SCRF=Check GenChk RB3LYP/6-31G(d) Freq
 --------------------------------------------------------------------

 Structure from the checkpoint file:  "JID_8094.chk"
 ------------------------------
 CID_97182136_JID_8094_neutraal
 ------------------------------
 Charge =  0 Multiplicity = 1

 SCF Done:  E(RB3LYP) =  -848.813365650     A.U. after    1 cycles

  Exact polarizability: 260.303  27.153 171.327  -0.936  -0.385  60.207
 Approx polarizability: 411.929  45.227 292.493  -4.490  -1.567  96.733

                      1                      2                      3
                      A                      A                      A
 Frequencies --     13.9216                28.1477                35.0635
 Red. masses --      1.1521                12.8617                 3.3409
 Frc consts  --      0.0001                 0.0060                 0.0024
 IR Inten    --      0.2942                 1.3299                 1.4563

                      4                      5                      6
                      A                      A                      A
 Frequencies --     66.5667                80.9300               111.0639
 Red. masses --      6.5337                 5.3649                 6.5567
 Frc consts  --      0.0171                 0.0207                 0.0477
 IR Inten    --      0.1454                 0.0070                 0.5635

                      7                      8                      9
                      A                      A                      A
 Frequencies --    172.4359               184.4693               220.3256
 Red. masses --      3.4750                 6.8576                 4.5918
 Frc consts  --      0.0609                 0.1375                 0.1313
 IR Inten    --      0.3688                 2.0413                 6.3809

                     10                     11                     12
                      A                      A                      A
 Frequencies --    252.9524               276.2983               296.3656
 Red. masses --      5.1355                 4.8983                 7.5578
 Frc consts  --      0.1936                 0.2203                 0.3911
 IR Inten    --      1.2847                 0.7262                 0.4854

                     13                     14                     15
                      A                      A                      A
 Frequencies --    371.2528               380.0488               391.9788
 Red. masses --      5.3606                 8.5993                 8.9415
 Frc consts  --      0.4353                 0.7318                 0.8094
 IR Inten    --      3.1779                 1.0021                 2.1190

                     16                     17                     18
                      A                      A                      A
 Frequencies --    446.2407               484.9272               567.9268
 Red. masses --      4.0901                 3.8763                 5.6212
 Frc consts  --      0.4799                 0.5371                 1.0682
 IR Inten    --      3.0343                 5.7446                14.8867

                     19                     20                     21
                      A                      A                      A
 Frequencies --    612.7906               629.8035               641.8799
 Red. masses --      2.2477                 1.9675                 5.1512
 Frc consts  --      0.4973                 0.4598                 1.2505
 IR Inten    --     50.1967                46.3447                 8.4381

                     22                     23                     24
                      A                      A                      A
 Frequencies --    652.4933               655.3873               691.5628
 Red. masses --      4.8692                 4.7235                 5.6876
 Frc consts  --      1.2214                 1.1954                 1.6027
 IR Inten    --     66.5804                 1.8480                11.2666

                     25                     26                     27
                      A                      A                      A
 Frequencies --    700.1032               712.2942               748.2898
 Red. masses --      2.8935                 4.7296                 2.4001
 Frc consts  --      0.8356                 1.4138                 0.7918
 IR Inten    --      5.2735                 8.9154                 0.6556

                     28                     29                     30
                      A                      A                      A
 Frequencies --    768.8742               778.2888               785.5840
 Red. masses --      5.7397                 5.7258                 1.5958
 Frc consts  --      1.9992                 2.0435                 0.5802
 IR Inten    --     42.9332                39.3755                32.5767

                     31                     32                     33
                      A                      A                      A
 Frequencies --    790.3330               874.8038               877.4676
 Red. masses --      1.7819                 3.0733                 2.2350
 Frc consts  --      0.6558                 1.3857                 1.0139
 IR Inten    --      0.6588                10.4843                13.1493

                     34                     35                     36
                      A                      A                      A
 Frequencies --    897.9453               911.3997               913.7337
 Red. masses --      1.4204                 1.3331                 5.2837
 Frc consts  --      0.6748                 0.6524                 2.5991
 IR Inten    --      6.6180                 1.9915                11.8166

                     37                     38                     39
                      A                      A                      A
 Frequencies --    996.4536              1003.0176              1033.7378
 Red. masses --      6.3064                 4.0745                 3.8809
 Frc consts  --      3.6893                 2.4151                 2.4434
 IR Inten    --     11.0884                11.0926                51.3398

                     40                     41                     42
                      A                      A                      A
 Frequencies --   1079.2416              1086.7402              1118.0334
 Red. masses --      1.5639                 1.6237                 2.0864
 Frc consts  --      1.0733                 1.1298                 1.5366
 IR Inten    --     10.4419                37.9908                 9.1167

                     43                     44                     45
                      A                      A                      A
 Frequencies --   1161.8821              1166.0298              1207.3866
 Red. masses --      1.3064                 3.3880                 1.8364
 Frc consts  --      1.0391                 2.7140                 1.5773
 IR Inten    --      0.0920               283.1885               142.2440

                     46                     47                     48
                      A                      A                      A
 Frequencies --   1220.3043              1237.4877              1241.6728
 Red. masses --      1.5247                 1.9733                 4.5511
 Frc consts  --      1.3377                 1.7804                 4.1341
 IR Inten    --      4.1294                12.7335                86.8494

                     49                     50                     51
                      A                      A                      A
 Frequencies --   1295.4136              1308.3242              1333.6702
 Red. masses --      3.9330                 2.6948                 3.4068
 Frc consts  --      3.8886                 2.7177                 3.5702
 IR Inten    --     22.5339                15.4146                 9.9357

                     52                     53                     54
                      A                      A                      A
 Frequencies --   1375.6354              1383.0006              1420.4169
 Red. masses --      3.5567                 2.6822                 5.3975
 Frc consts  --      3.9656                 3.0227                 6.4161
 IR Inten    --     41.9653                76.7620                23.6578

                     55                     56                     57
                      A                      A                      A
 Frequencies --   1425.9526              1464.8273              1478.1044
 Red. masses --      5.6771                 2.5487                 2.4463
 Frc consts  --      6.8012                 3.2221                 3.1490
 IR Inten    --     15.2766                99.5075                10.3291

                     58                     59                     60
                      A                      A                      A
 Frequencies --   1497.1920              1502.8402              1511.3198
 Red. masses --      2.4409                 1.0426                 3.2056
 Frc consts  --      3.2237                 1.3874                 4.3140
 IR Inten    --     19.3467                 7.2144                 9.9496

                     61                     62                     63
                      A                      A                      A
 Frequencies --   1547.0510              1557.5459              1587.4175
 Red. masses --      2.0067                 2.6090                 5.2938
 Frc consts  --      2.8297                 3.7291                 7.8596
 IR Inten    --      3.1411                11.0991                81.8437

                     64                     65                     66
                      A                      A                      A
 Frequencies --   1632.7973              1668.3671              1850.2937
 Red. masses --      5.9161                 8.6109                10.4629
 Frc consts  --      9.2930                14.1216                21.1049
 IR Inten    --    154.3309               175.4330               228.3927

                     67                     68                     69
                      A                      A                      A
 Frequencies --   3075.8538              3145.9550              3169.4462
 Red. masses --      1.0320                 1.1063                 1.1052
 Frc consts  --      5.7524                 6.4512                 6.5411
 IR Inten    --     53.2098                11.8772                 8.6760

                     70                     71                     72
                      A                      A                      A
 Frequencies --   3260.6035              3266.1389              3276.4862
 Red. masses --      1.0947                 1.0921                 1.0962
 Frc consts  --      6.8568                 6.8640                 6.9336
 IR Inten    --     10.0633                 0.2250                 0.1846

                     73                     74                     75
                      A                      A                      A
 Frequencies --   3285.2234              3300.7714              3698.2541
 Red. masses --      1.0968                 1.0998                 1.0642
 Frc consts  --      6.9741                 7.0599                 8.5757
 IR Inten    --      0.6093                 0.1907                90.1659

 - Thermochemistry -
 -------------------
 Temperature   298.150 Kelvin.  Pressure   1.00000 Atm.
 Atom     1 has atomic number  6 and mass  12.00000

 Molecular mass:   243.07562 amu.
 Principal axes and moments of inertia in atomic units:
                           1         2         3
     Eigenvalues --  2241.270257318.010049515.04757
           X            0.99980   0.02015   0.00054
           Y           -0.02015   0.99980  -0.00090
           Z           -0.00056   0.00088   1.00000
 This molecule is an asymmetric top.
 Rotational symmetry number  1.
 Warning -- assumption of classical behavior for rotation
           may cause significant error
 Rotational temperatures (Kelvin)      0.03865     0.01184     0.00910
 Rotational constants (GHZ):           0.80523     0.24662     0.18967
 Zero-point vibrational energy     525727.9 (Joules/Mol)
                                  125.65198 (Kcal/Mol)
 Warning -- explicit consideration of  19 degrees of freedom as
           vibrations may cause significant error
 Vibrational temperatures:     20.03    40.50    50.45    95.77   116.44
          (Kelvin)            159.80   248.10   265.41   317.00   363.94
                              397.53   426.40   534.15   546.81   563.97
                              642.04   697.70   817.12   881.67   906.15
                              923.52   938.79   942.96   995.00  1007.29
                             1024.83  1076.62  1106.24  1119.78  1130.28
                             1137.11  1258.65  1262.48  1291.94  1311.30
                             1314.66  1433.67  1443.12  1487.32  1552.79
                             1563.58  1608.60  1671.69  1677.66  1737.16
                             1755.75  1780.47  1786.49  1863.81  1882.39
                             1918.85  1979.23  1989.83  2043.66  2051.63
                             2107.56  2126.66  2154.13  2162.25  2174.45
                             2225.86  2240.96  2283.94  2349.23  2400.41
                             2662.16  4425.47  4526.33  4560.13  4691.28
                             4699.25  4714.13  4726.70  4749.07  5320.96

 Zero-point correction=                           0.200239 (Hartree/Particle)
 Thermal correction to Energy=                    0.214893
 Thermal correction to Enthalpy=                  0.215838
 Thermal correction to Gibbs Free Energy=         0.154961
 Sum of electronic and zero-point Energies=           -848.613126
 Sum of electronic and thermal Energies=              -848.598472
 Sum of electronic and thermal Enthalpies=            -848.597528
 Sum of electronic and thermal Free Energies=         -848.658404

                     E (Thermal)             CV                S
                      KCal/Mol        Cal/Mol-Kelvin    Cal/Mol-Kelvin
 Total                  134.848             54.711            128.125
 Electronic               0.000              0.000              0.000
 Translational            0.889              2.981             42.366
 Rotational               0.889              2.981             33.412
 Vibrational            133.070             48.749             52.348
 Vibration     1          0.593              1.986              7.354
 Vibration     2          0.593              1.984              5.956
 Vibration     3          0.594              1.982              5.520
 Vibration     4          0.598              1.970              4.252
 Vibration     5          0.600              1.962              3.868
 Vibration     6          0.607              1.940              3.250
 Vibration     7          0.626              1.876              2.409
 Vibration     8          0.631              1.861              2.283
 Vibration     9          0.647              1.810              1.956
 Vibration    10          0.664              1.758              1.710
 Vibration    11          0.678              1.717              1.556
 Vibration    12          0.690              1.681              1.437
 Vibration    13          0.743              1.531              1.075
 Vibration    14          0.750              1.513              1.039
 Vibration    15          0.759              1.487              0.993
 Vibration    16          0.805              1.369              0.807
 Vibration    17          0.841              1.283              0.697
 Vibration    18          0.924              1.101              0.508
 Vibration    19          0.972              1.005              0.428

 Optimization completed.
    -- Stationary point found.
 Normal termination of Gaussian 16 at Fri Dec 11 19:06:17 2020.

 ----------------------------------------------------------------------
 # B3LYP/6-311++G(d,p) empiricaldispersion=gd3bj scf=xqc pop=npa geom=c
 heck
 ----------------------------------------------------------------------

 --------------------------------------
 CID_97182136_JID_8094_Energie_neutraal
 --------------------------------------
 Structure from the checkpoint file:  "JID_8094.chk"
 Charge =  0 Multiplicity = 1

 SCF Done:  E(RB3LYP) =  -849.043596168     A.U. after   15 cycles
 Normal termination of Gaussian 16 at Fri Dec 11 19:10:35 2020.

 ----------------------------------------------------------------------
 # B3LYP/6-311++G(d,p) empiricaldispersion=gd3bj scf=xqc pop=npa geom=c
 heck
 ----------------------------------------------------------------------

 ------------------------------------
 CID_97182136_JID_8094_Energie_kation
 ------------------------------------
 Structure from the checkpoint file:  "JID_8094.chk"
 Charge =  1 Multiplicity = 2

 SCF Done:  E(UB3LYP) =  -848.757404836     A.U. after   23 cycles
 Normal termination of Gaussian 16 at Fri Dec 11 19:20:01 2020.
 Gaussian 16:  ES64L-G16RevA.03 25-Dec-2016

 ----------------------------------------------------------------------
 # B3LYP/6-311++G(d,p) empiricaldispersion=gd3bj scf=xqc pop=npa geom=c
 heck
 ----------------------------------------------------------------------

 -----------------------------------
 CID_97182136_JID_8094_Energie_anion
 -----------------------------------
 Structure from the checkpoint file:  "JID_8094.chk"
 Charge = -1 Multiplicity = 2

                         Standard orientation:
 ---------------------------------------------------------------------
 Center     Atomic      Atomic             Coordinates (Angstroms)
 Number     Number       Type             X           Y           Z
 ---------------------------------------------------------------------
      1          6           0        5.340332    1.019836    0.004544
      2          7           0        4.097900    0.273871    0.016969
      3          6           0        2.833010    0.755200   -0.003294
      4          6           0        1.981183   -0.345749    0.011751
      5          6           0        2.863963   -1.458384    0.040845
      6          7           0        4.137501   -1.082904    0.043915
      7          6           0        0.525833   -0.381715    0.000661
      8          7           0       -0.060112   -1.572355    0.008357
      9          6           0       -1.401194   -1.619563   -0.010058
     10          6           0       -2.305083   -2.678529   -0.037484
     11          6           0       -3.566921   -2.072820   -0.072302
     12          7           0       -3.523284   -0.729947   -0.065131
     13          7           0       -2.204387   -0.450635   -0.020865
     14          6           0       -1.608481    0.783946   -0.016427
     15          6           0       -0.238079    0.827209   -0.014743
     16          6           0       -2.445686    2.017347    0.051099
     17          8           0       -3.595876    2.083784    0.408403
     18          8           0       -1.720963    3.107575   -0.319544
     19          1           0        5.931780    0.769714    0.889116
     20          1           0        5.916100    0.772486   -0.891469
     21          1           0        5.111398    2.087154    0.008103
     22          1           0        2.637449    1.817405   -0.027682
     23          1           0        2.595821   -2.504744    0.060263
     24          1           0       -2.055046   -3.727705   -0.040684
     25          1           0       -4.536116   -2.553036   -0.105667
     26          1           0        0.246698    1.792966   -0.011642
     27          1           0       -2.319976    3.867996   -0.201491
 ---------------------------------------------------------------------

 SCF Done:  E(UB3LYP) =  -849.082839643     A.U. after   22 cycles

 The electronic state is 2-A.
 Alpha  occ. eigenvalues --  -19.03388 -18.95919 -14.29018 -14.25137 -14.22362
 Alpha  occ. eigenvalues --  -14.18319 -14.14817 -10.15055 -10.13510 -10.09959
 Alpha  occ. eigenvalues --  -10.09228 -10.07681 -10.07229 -10.07189 -10.05915
 Alpha  occ. eigenvalues --  -10.05461 -10.03503 -10.02209  -0.97081  -0.94886
 Alpha  occ. eigenvalues --   -0.91565  -0.87705  -0.79816  -0.74725  -0.72041
 Alpha  occ. eigenvalues --   -0.69058  -0.64486  -0.61794  -0.60671  -0.55537
 Alpha  occ. eigenvalues --   -0.51534  -0.49853  -0.47517  -0.46131  -0.45253
 Alpha  occ. eigenvalues --   -0.42572  -0.39025  -0.38932  -0.37161  -0.35445
 Alpha  occ. eigenvalues --   -0.34779  -0.34077  -0.33532  -0.33231  -0.31032
 Alpha  occ. eigenvalues --   -0.30619  -0.30307  -0.30132  -0.28892  -0.27982
 Alpha  occ. eigenvalues --   -0.26112  -0.25906  -0.23858  -0.19774  -0.19314
 Alpha  occ. eigenvalues --   -0.18339  -0.16824  -0.15686  -0.15322  -0.14379
 Alpha  occ. eigenvalues --   -0.11087  -0.10702  -0.08075   0.01949
 Alpha virt. eigenvalues --    0.05918   0.08462   0.08549   0.09516   0.09680
 Alpha virt. eigenvalues --    0.10553   0.10632   0.11669   0.12218   0.12793
 Alpha virt. eigenvalues --    0.13813   0.14376   0.14564   0.15167   0.15935

  Beta  occ. eigenvalues --  -19.03329 -18.95583 -14.29025 -14.24906 -14.22357
  Beta  occ. eigenvalues --  -14.18333 -14.14281 -10.14890 -10.13510 -10.09904
  Beta  occ. eigenvalues --  -10.09285 -10.07643 -10.07111 -10.06830 -10.05938
  Beta  occ. eigenvalues --  -10.05416 -10.03448 -10.02172  -0.96802  -0.94866
  Beta  occ. eigenvalues --   -0.91235  -0.87223  -0.79159  -0.74704  -0.71548
  Beta  occ. eigenvalues --   -0.68937  -0.64291  -0.61471  -0.60562  -0.54835
  Beta  occ. eigenvalues --   -0.51336  -0.49684  -0.47433  -0.46028  -0.45100
  Beta  occ. eigenvalues --   -0.42507  -0.39003  -0.38610  -0.36927  -0.35282
  Beta  occ. eigenvalues --   -0.34562  -0.33847  -0.33200  -0.32474  -0.30764
  Beta  occ. eigenvalues --   -0.30463  -0.30048  -0.29511  -0.28749  -0.27812
  Beta  occ. eigenvalues --   -0.26001  -0.25658  -0.22543  -0.19291  -0.18597
  Beta  occ. eigenvalues --   -0.17127  -0.16401  -0.15494  -0.14827  -0.13919
  Beta  occ. eigenvalues --   -0.10652  -0.09733  -0.07064
  Beta virt. eigenvalues --    0.05911   0.08211   0.08507   0.08758   0.09512
  Beta virt. eigenvalues --    0.09676   0.10548   0.10981   0.11663   0.12589
  Beta virt. eigenvalues --    0.12791   0.13826   0.14387   0.14732   0.15922

 Mulliken charges and spin densities:
               1          2
     1  C   -0.285935   0.001807
     2  N    0.285786  -0.003017
     3  C    0.899713   0.024758
     4  C   -0.610940  -0.058375
     5  C    0.068777   0.036390
     6  N   -0.317228  -0.002539
     7  C   -0.884222   0.088353
     8  N   -0.053381   0.267294
     9  C   -0.382084  -0.020945
    10  C    0.363868   0.016469
    11  C   -0.337557   0.029375
    12  N   -0.172936   0.020479
    13  N    0.139611   0.048546
    14  C    0.299791   0.310243
    15  C   -1.044751   0.056767
    16  C    0.062709   0.068137
    17  O   -0.325000   0.115977
    18  O   -0.210820   0.011081
    19  H    0.161869  -0.000478
    20  H    0.160835  -0.000569
    21  H    0.119480  -0.000051
    22  H    0.200549  -0.003014
    23  H    0.197877  -0.004110
    24  H    0.132973  -0.001870
    25  H    0.114210  -0.003426
    26  H    0.151410   0.001340
    27  H    0.265397   0.001378
 Sum of Mulliken charges =  -1.00000   1.00000

 Dipole moment (field-independent basis, Debye):
    X=              7.5201    Y=              3.3416    Z=             -0.3907  Tot=              8.2384
 Quadrupole moment (field-independent basis, Debye-Ang):
   XX=           -153.1038   YY=           -113.6907   ZZ=           -111.7262
   XY=             18.6960   XZ=              2.3148   YZ=             -0.7143

 Summary of Natural Population Analysis:

                                       Natural Population
                Natural  -----------------------------------------------
    Atom  No    Charge         Core      Valence    Rydberg      Total
 -----------------------------------------------------------------------
      C    1   -0.18556      0.99970     2.17258    0.01329     3.18556
      N    2   -0.04193      0.99955     2.52938    0.01300     3.54193
      C    3   -0.01279      0.99953     1.99452    0.01874     3.01279
      C    4   -0.07439      0.99941     2.06394    0.01105     3.07439
      C    5    0.00962      0.99963     1.97511    0.01563     2.99038
      N    6   -0.18571      0.99976     2.66434    0.02162     3.68571
      C    7    0.10143      0.99955     1.88500    0.01402     2.89857
      N    8   -0.14889      0.99964     2.63728    0.01197     3.64889
      C    9    0.15731      0.99957     1.82524    0.01788     2.84269
      C   10   -0.17833      0.99951     2.16969    0.00913     3.17833
      C   11   -0.00550      0.99965     1.99137    0.01447     3.00550
      N   12   -0.15731      0.99974     2.64575    0.01181     3.65731
      N   13   -0.06729      0.99958     2.55448    0.01323     3.56729
      C   14    0.12181      0.99945     1.86611    0.01263     2.87819
      C   15   -0.11488      0.99952     2.10818    0.00717     3.11488
      C   16    0.40499      0.99969     1.57029    0.02502     2.59501
      O   17   -0.26541      0.99987     3.25910    0.00644     4.26541
      O   18   -0.35560      0.99988     3.34830    0.00742     4.35560
      H   19    0.09751      0.00000     0.40129    0.00120     0.40249
      H   20    0.09680      0.00000     0.40198    0.00122     0.40320
      H   21    0.09590      0.00000     0.40294    0.00116     0.40410
      H   22    0.10023      0.00000     0.39838    0.00139     0.39977
      H   23    0.10574      0.00000     0.39320    0.00106     0.39426
      H   24    0.10290      0.00000     0.39624    0.00086     0.39710
      H   25    0.08714      0.00000     0.41191    0.00094     0.41286
      H   26    0.10379      0.00000     0.39467    0.00153     0.39621
      H   27    0.22943      0.00000     0.26574    0.00483     0.27057
 =======================================================================
   * Total *    0.02103     17.99322    44.72703    0.25873    62.97897

 Normal termination of Gaussian 16 at Fri Dec 11 19:29:03 2020.
