 Gaussian 16, Revision A.03,

 -----------------------------------------------------------
 # opt freq B3LYP/6-31G(d) empiricaldispersion=gd3bj scf=xqc
 -----------------------------------------------------------

 -------------------------------
 CID_104259428_JID_8670_neutraal
 -------------------------------
 Symbolic Z-matrix:
 Charge =  0 Multiplicity = 1

 SCF Done:  E(RB3LYP) =  -1129.72166168     A.U. after   13 cycles
 SCF Done:  E(RB3LYP) =  -1129.72790354     A.U. after   12 cycles
 SCF Done:  E(RB3LYP) =  -1129.72912605     A.U. after   12 cycles
 SCF Done:  E(RB3LYP) =  -1129.72965230     A.U. after   11 cycles
 SCF Done:  E(RB3LYP) =  -1129.72993808     A.U. after   11 cycles
 SCF Done:  E(RB3LYP) =  -1129.73008614     A.U. after   11 cycles
 SCF Done:  E(RB3LYP) =  -1129.73018389     A.U. after   10 cycles
 SCF Done:  E(RB3LYP) =  -1129.73022404     A.U. after   10 cycles
 SCF Done:  E(RB3LYP) =  -1129.73025050     A.U. after   10 cycles
 SCF Done:  E(RB3LYP) =  -1129.73026316     A.U. after    9 cycles
 SCF Done:  E(RB3LYP) =  -1129.73113931     A.U. after   11 cycles
 SCF Done:  E(RB3LYP) =  -1129.73117200     A.U. after   10 cycles
 SCF Done:  E(RB3LYP) =  -1129.73117675     A.U. after    9 cycles
 SCF Done:  E(RB3LYP) =  -1129.73117740     A.U. after    7 cycles
 SCF Done:  E(RB3LYP) =  -1129.73117760     A.U. after    7 cycles
 Optimization completed.
    -- Stationary point found.
 Normal termination of Gaussian 16 at Fri Dec 11 21:53:12 2020.

 --------------------------------------------------------------------
 #N Geom=AllCheck Guess=TCheck SCRF=Check GenChk RB3LYP/6-31G(d) Freq
 --------------------------------------------------------------------

 Structure from the checkpoint file:  "JID_8670.chk"
 -------------------------------
 CID_104259428_JID_8670_neutraal
 -------------------------------
 Charge =  0 Multiplicity = 1

 SCF Done:  E(RB3LYP) =  -1129.73117760     A.U. after    1 cycles

  Exact polarizability: 236.333   1.023 178.567   0.586  -2.250 128.015
 Approx polarizability: 309.631   4.029 300.925   2.648  -5.903 192.748

                      1                      2                      3
                      A                      A                      A
 Frequencies --     28.0844                44.7231                65.8944
 Red. masses --      3.6641                 3.7857                 4.6138
 Frc consts  --      0.0017                 0.0045                 0.0118
 IR Inten    --      0.6098                 0.1529                 0.7250

                      4                      5                      6
                      A                      A                      A
 Frequencies --     83.2472               111.8584               135.0293
 Red. masses --      4.5458                 2.9866                 2.8917
 Frc consts  --      0.0186                 0.0220                 0.0311
 IR Inten    --      0.2065                 0.1888                 0.5586

                      7                      8                      9
                      A                      A                      A
 Frequencies --    139.9604               182.0669               203.7381
 Red. masses --      3.0554                 2.2714                 1.8749
 Frc consts  --      0.0353                 0.0444                 0.0459
 IR Inten    --      0.8505                 1.1400                 0.7384

                     10                     11                     12
                      A                      A                      A
 Frequencies --    211.1102               224.0835               231.5689
 Red. masses --      1.4146                 4.1771                 1.8540
 Frc consts  --      0.0371                 0.1236                 0.0586
 IR Inten    --      1.6820                 0.6059                 1.0889

                     13                     14                     15
                      A                      A                      A
 Frequencies --    252.1821               272.7163               275.0950
 Red. masses --      1.1170                 2.3166                 3.8715
 Frc consts  --      0.0419                 0.1015                 0.1726
 IR Inten    --      0.2618                 0.6602                 1.5985

                     16                     17                     18
                      A                      A                      A
 Frequencies --    305.4731               338.0269               345.9436
 Red. masses --      2.8978                 3.0323                 2.3253
 Frc consts  --      0.1593                 0.2041                 0.1640
 IR Inten    --      0.1952                 1.3182                 0.8271

                     19                     20                     21
                      A                      A                      A
 Frequencies --    357.7844               363.2048               372.3795
 Red. masses --      4.1625                 3.5472                 3.8161
 Frc consts  --      0.3139                 0.2757                 0.3118
 IR Inten    --      3.7836                 4.7146                 5.1307

                     22                     23                     24
                      A                      A                      A
 Frequencies --    437.4403               456.8241               465.4536
 Red. masses --      1.4945                 1.7824                 1.8507
 Frc consts  --      0.1685                 0.2192                 0.2362
 IR Inten    --     29.4528                23.3055                 7.6844

                     25                     26                     27
                      A                      A                      A
 Frequencies --    504.8720               533.4735               552.2140
 Red. masses --      5.5404                 5.1692                 3.7099
 Frc consts  --      0.8321                 0.8668                 0.6665
 IR Inten    --      1.3786                 0.7860                 3.8034

                     28                     29                     30
                      A                      A                      A
 Frequencies --    554.8839               585.5643               605.7946
 Red. masses --      3.6103                 4.0929                 3.8430
 Frc consts  --      0.6549                 0.8269                 0.8309
 IR Inten    --      4.3067                 0.2865                11.4449

                     31                     32                     33
                      A                      A                      A
 Frequencies --    615.8850               658.1411               668.6382
 Red. masses --      4.7032                 4.3518                 4.0275
 Frc consts  --      1.0511                 1.1106                 1.0609
 IR Inten    --      5.0585                 3.1053                 1.6849

                     34                     35                     36
                      A                      A                      A
 Frequencies --    707.9285               752.6909               767.0831
 Red. masses --      1.9273                 1.5448                 2.5077
 Frc consts  --      0.5691                 0.5157                 0.8694
 IR Inten    --     68.0098               211.9728                20.4608

                     37                     38                     39
                      A                      A                      A
 Frequencies --    781.2946               826.2300               844.4923
 Red. masses --      2.9113                 1.2095                 2.8051
 Frc consts  --      1.0471                 0.4865                 1.1787
 IR Inten    --     16.0570                 0.0252                 8.4992

                     40                     41                     42
                      A                      A                      A
 Frequencies --    855.7790               865.5770               894.8814
 Red. masses --      3.2457                 1.4294                 2.5767
 Frc consts  --      1.4005                 0.6310                 1.2158
 IR Inten    --     15.1992                 0.4330                 1.9619

                     43                     44                     45
                      A                      A                      A
 Frequencies --    903.2187               922.6717               928.5710
 Red. masses --      2.5855                 1.2732                 2.1894
 Frc consts  --      1.2427                 0.6386                 1.1123
 IR Inten    --      2.4510                 3.1563                 3.1946

                     46                     47                     48
                      A                      A                      A
 Frequencies --    961.7964               968.0181              1005.2764
 Red. masses --      1.9503                 1.6325                 1.5075
 Frc consts  --      1.0630                 0.9013                 0.8976
 IR Inten    --     19.6862                 2.8271                12.4305

                     49                     50                     51
                      A                      A                      A
 Frequencies --   1038.3434              1070.9662              1090.2168
 Red. masses --      1.8994                 1.8035                 2.1120
 Frc consts  --      1.2066                 1.2188                 1.4790
 IR Inten    --     29.0617                36.9805                25.3004

                     52                     53                     54
                      A                      A                      A
 Frequencies --   1095.3995              1122.9866              1123.7049
 Red. masses --      1.8119                 1.8888                 1.8007
 Frc consts  --      1.2809                 1.4034                 1.3396
 IR Inten    --     21.4811                 7.0095                 4.7676

                     55                     56                     57
                      A                      A                      A
 Frequencies --   1129.8479              1136.6684              1154.4463
 Red. masses --      1.7213                 2.1253                 2.0861
 Frc consts  --      1.2946                 1.6178                 1.6380
 IR Inten    --      3.9783                67.3217                67.7550

                     58                     59                     60
                      A                      A                      A
 Frequencies --   1183.3629              1196.5884              1204.4565
 Red. masses --      2.0048                 1.6950                 1.6896
 Frc consts  --      1.6541                 1.4299                 1.4441
 IR Inten    --     51.4848                26.8220                20.0354

                     61                     62                     63
                      A                      A                      A
 Frequencies --   1228.4213              1264.1229              1277.4651
 Red. masses --      2.0022                 1.5673                 2.6623
 Frc consts  --      1.7801                 1.4756                 2.5598
 IR Inten    --    231.3848                21.5394                25.5801

                     64                     65                     66
                      A                      A                      A
 Frequencies --   1298.9422              1300.5690              1314.3876
 Red. masses --      1.5929                 1.2672                 1.7598
 Frc consts  --      1.5835                 1.2629                 1.7913
 IR Inten    --      7.8913                26.4467                14.0414

                     67                     68                     69
                      A                      A                      A
 Frequencies --   1324.0879              1339.1346              1352.6573
 Red. masses --      1.7175                 1.2360                 1.4393
 Frc consts  --      1.7741                 1.3060                 1.5516
 IR Inten    --     21.0590                45.1416                 1.5678

                     70                     71                     72
                      A                      A                      A
 Frequencies --   1359.4207              1388.8698              1395.6121
 Red. masses --      1.4394                 1.5397                 1.9145
 Frc consts  --      1.5673                 1.7499                 2.1970
 IR Inten    --     22.0181                 0.4779                 5.5961

                     73                     74                     75
                      A                      A                      A
 Frequencies --   1399.6308              1420.8031              1428.0443
 Red. masses --      1.7092                 1.3159                 1.2864
 Frc consts  --      1.9728                 1.5651                 1.5457
 IR Inten    --      1.7478                 2.3941                12.0873

                     76                     77                     78
                      A                      A                      A
 Frequencies --   1431.4572              1442.6685              1450.8630
 Red. masses --      1.2833                 1.3018                 1.3386
 Frc consts  --      1.5493                 1.5963                 1.6601
 IR Inten    --      7.1365                31.9930                33.1907

                     79                     80                     81
                      A                      A                      A
 Frequencies --   1505.9442              1515.3310              1515.7778
 Red. masses --      1.0731                 1.0694                 1.0600
 Frc consts  --      1.4339                 1.4468                 1.4349
 IR Inten    --      0.2253                13.6728                 3.6135

                     82                     83                     84
                      A                      A                      A
 Frequencies --   1516.9932              1524.3482              1526.8834
 Red. masses --      1.0805                 1.1087                 1.7593
 Frc consts  --      1.4650                 1.5179                 2.4166
 IR Inten    --     19.3507                11.7986                49.5743

                     85                     86                     87
                      A                      A                      A
 Frequencies --   1531.0648              1532.3713              1536.4955
 Red. masses --      1.1654                 1.1099                 2.7176
 Frc consts  --      1.6096                 1.5356                 3.7801
 IR Inten    --     16.5330                 2.5532                70.7006

                     88                     89                     90
                      A                      A                      A
 Frequencies --   1539.9167              1548.6545              1623.7124
 Red. masses --      1.1244                 1.0987                 1.9150
 Frc consts  --      1.5709                 1.5525                 2.9747
 IR Inten    --      3.7085                 4.6202                54.8373

                     91                     92                     93
                      A                      A                      A
 Frequencies --   1655.8986              1671.0453              2970.8369
 Red. masses --      4.0881                 2.5007                 1.0706
 Frc consts  --      6.6044                 4.1143                 5.5671
 IR Inten    --     89.2486                37.8539                40.3550

                     94                     95                     96
                      A                      A                      A
 Frequencies --   2982.5072              3047.0729              3049.3245
 Red. masses --      1.0722                 1.0469                 1.0670
 Frc consts  --      5.6194                 5.7268                 5.8455
 IR Inten    --     53.9628                27.8738                46.1631

                     97                     98                     99
                      A                      A                      A
 Frequencies --   3054.7085              3060.7700              3065.2204
 Red. masses --      1.0435                 1.0363                 1.0832
 Frc consts  --      5.7371                 5.7201                 5.9963
 IR Inten    --     23.5346                17.9188                 9.6723

                    100                    101                    102
                      A                      A                      A
 Frequencies --   3066.9355              3088.7788              3110.1965
 Red. masses --      1.0836                 1.0906                 1.0985
 Frc consts  --      6.0050                 6.1303                 6.2609
 IR Inten    --     21.8834                22.5138                19.7335

                    103                    104                    105
                      A                      A                      A
 Frequencies --   3116.5747              3123.1724              3127.7287
 Red. masses --      1.0910                 1.0918                 1.0958
 Frc consts  --      6.2434                 6.2744                 6.3157
 IR Inten    --      3.2023                26.6296                24.9021

                    106                    107                    108
                      A                      A                      A
 Frequencies --   3128.9997              3146.4272              3149.8759
 Red. masses --      1.1018                 1.1028                 1.1019
 Frc consts  --      6.3560                 6.4325                 6.4415
 IR Inten    --     30.2654                36.0584                23.2660

                    109                    110                    111
                      A                      A                      A
 Frequencies --   3162.2952              3194.6029              3217.4312
 Red. masses --      1.1003                 1.0867                 1.0911
 Frc consts  --      6.4827                 6.5345                 6.6550
 IR Inten    --     28.1258                 8.8768                17.2345

                    112                    113                    114
                      A                      A                      A
 Frequencies --   3226.9876              3529.2173              3640.5145
 Red. masses --      1.0931                 1.0465                 1.0978
 Frc consts  --      6.7068                 7.6799                 8.5727
 IR Inten    --     15.6191                 9.1027                34.6051

 - Thermochemistry -
 -------------------
 Temperature   298.150 Kelvin.  Pressure   1.00000 Atm.
 Atom     1 has atomic number  6 and mass  12.00000

 Molecular mass:   266.14529 amu.
 Principal axes and moments of inertia in atomic units:
                           1         2         3
     Eigenvalues --  2148.127449301.51577**********
           X            1.00000  -0.00215  -0.00046
           Y            0.00214   1.00000  -0.00196
           Z            0.00047   0.00196   1.00000
 This molecule is an asymmetric top.
 Rotational symmetry number  1.
 Warning -- assumption of classical behavior for rotation
           may cause significant error
 Rotational temperatures (Kelvin)      0.04032     0.00931     0.00862
 Rotational constants (GHZ):           0.84015     0.19403     0.17955
 Zero-point vibrational energy     915966.4 (Joules/Mol)
                                  218.92122 (Kcal/Mol)
 Warning -- explicit consideration of  31 degrees of freedom as
           vibrations may cause significant error
 Vibrational temperatures:     40.41    64.35    94.81   119.77   160.94
          (Kelvin)            194.28   201.37   261.95   293.13   303.74
                              322.41   333.18   362.83   392.38   395.80
                              439.51   486.35   497.74   514.77   522.57
                              535.77   629.38   657.27   669.68   726.40
                              767.55   794.51   798.35   842.50   871.60
                              886.12   946.92   962.02  1018.55  1082.95
                             1103.66  1124.11  1188.76  1215.04  1231.28
                             1245.37  1287.53  1299.53  1327.52  1336.01
                             1383.81  1392.76  1446.37  1493.94  1540.88
                             1568.58  1576.04  1615.73  1616.76  1625.60
                             1635.41  1660.99  1702.60  1721.62  1732.94
                             1767.42  1818.79  1837.99  1868.89  1871.23
                             1891.11  1905.07  1926.72  1946.17  1955.90
                             1998.27  2007.97  2013.76  2044.22  2054.64
                             2059.55  2075.68  2087.47  2166.72  2180.22
                             2180.87  2182.61  2193.20  2196.84  2202.86
                             2204.74  2210.67  2215.60  2228.17  2336.16
                             2382.47  2404.26  4274.37  4291.16  4384.06
                             4387.30  4395.04  4403.77  4410.17  4412.64
                             4444.06  4474.88  4484.06  4493.55  4500.10
                             4501.93  4527.01  4531.97  4549.84  4596.32
                             4629.17  4642.92  5077.76  5237.89

 Zero-point correction=                           0.348873 (Hartree/Particle)
 Thermal correction to Energy=                    0.367123
 Thermal correction to Enthalpy=                  0.368067
 Thermal correction to Gibbs Free Energy=         0.303003
 Sum of electronic and zero-point Energies=          -1129.382304
 Sum of electronic and thermal Energies=             -1129.364055
 Sum of electronic and thermal Enthalpies=           -1129.363111
 Sum of electronic and thermal Free Energies=        -1129.428175

                     E (Thermal)             CV                S
                      KCal/Mol        Cal/Mol-Kelvin    Cal/Mol-Kelvin
 Total                  230.373             71.676            136.940
 Electronic               0.000              0.000              0.000
 Translational            0.889              2.981             42.636
 Rotational               0.889              2.981             33.662
 Vibrational            228.596             65.714             60.642
 Vibration     1          0.593              1.984              5.960
 Vibration     2          0.595              1.980              5.038
 Vibration     3          0.597              1.971              4.272
 Vibration     4          0.600              1.961              3.813
 Vibration     5          0.607              1.940              3.236
 Vibration     6          0.613              1.918              2.873
 Vibration     7          0.615              1.913              2.804
 Vibration     8          0.630              1.864              2.307
 Vibration     9          0.639              1.835              2.099
 Vibration    10          0.643              1.824              2.034
 Vibration    11          0.649              1.804              1.926
 Vibration    12          0.653              1.793              1.867
 Vibration    13          0.664              1.759              1.715
 Vibration    14          0.676              1.724              1.579
 Vibration    15          0.677              1.719              1.564
 Vibration    16          0.696              1.663              1.387
 Vibration    17          0.718              1.600              1.221
 Vibration    18          0.724              1.584              1.185
 Vibration    19          0.733              1.559              1.132
 Vibration    20          0.737              1.548              1.108
 Vibration    21          0.744              1.529              1.070
 Vibration    22          0.798              1.389              0.835
 Vibration    23          0.815              1.346              0.775
 Vibration    24          0.823              1.327              0.750
 Vibration    25          0.860              1.239              0.646
 Vibration    26          0.888              1.176              0.579
 Vibration    27          0.908              1.135              0.540
 Vibration    28          0.910              1.129              0.534
 Vibration    29          0.943              1.063              0.475
 Vibration    30          0.964              1.020              0.440
 Vibration    31          0.975              0.998              0.423

 Optimization completed.
    -- Stationary point found.
 Normal termination of Gaussian 16 at Fri Dec 11 22:15:02 2020.

 ----------------------------------------------------------------------
 # B3LYP/6-311++G(d,p) empiricaldispersion=gd3bj scf=xqc pop=npa geom=c
 heck
 ----------------------------------------------------------------------

 ---------------------------------------
 CID_104259428_JID_8670_Energie_neutraal
 ---------------------------------------
 Structure from the checkpoint file:  "JID_8670.chk"
 Charge =  0 Multiplicity = 1

 SCF Done:  E(RB3LYP) =  -1129.96193456     A.U. after   15 cycles
 Normal termination of Gaussian 16 at Fri Dec 11 22:25:33 2020.

 ----------------------------------------------------------------------
 # B3LYP/6-311++G(d,p) empiricaldispersion=gd3bj scf=xqc pop=npa geom=c
 heck
 ----------------------------------------------------------------------

 -------------------------------------
 CID_104259428_JID_8670_Energie_kation
 -------------------------------------
 Structure from the checkpoint file:  "JID_8670.chk"
 Charge =  1 Multiplicity = 2

 SCF Done:  E(UB3LYP) =  -1129.70374483     A.U. after   28 cycles
 Normal termination of Gaussian 16 at Fri Dec 11 22:54:13 2020.
 Gaussian 16:  ES64L-G16RevA.03 25-Dec-2016

 ----------------------------------------------------------------------
 # B3LYP/6-311++G(d,p) empiricaldispersion=gd3bj scf=xqc pop=npa geom=c
 heck
 ----------------------------------------------------------------------

 ------------------------------------
 CID_104259428_JID_8670_Energie_anion
 ------------------------------------
 Structure from the checkpoint file:  "JID_8670.chk"
 Charge = -1 Multiplicity = 2

                         Standard orientation:
 ---------------------------------------------------------------------
 Center     Atomic      Atomic             Coordinates (Angstroms)
 Number     Number       Type             X           Y           Z
 ---------------------------------------------------------------------
      1          6           0       -5.301010   -0.427586    1.321624
      2          6           0       -4.886208   -0.965004   -0.042960
      3          8           0       -3.474914   -1.143297   -0.155006
      4          6           0       -2.668181   -0.036674   -0.292165
      5          6           0       -3.108965    1.262556   -0.538519
      6          6           0       -2.177011    2.297576   -0.650285
      7          6           0       -0.815628    2.036451   -0.527845
      8          6           0       -0.363649    0.734941   -0.275155
      9          6           0       -1.294525   -0.313888   -0.150199
     10          7           0       -0.866510   -1.623476    0.074879
     11          7           0        1.016897    0.394565   -0.120380
     12          6           0        1.878197    1.475659    0.353384
     13          6           0        3.179662    0.948083    0.965762
     14         16           0        4.149907   -0.016319   -0.277907
     15          6           0        2.834497   -1.078094   -1.023194
     16          6           0        1.570295   -0.264593   -1.315947
     17          6           0        2.571689   -2.360025   -0.229919
     18          6           0        2.947393    0.214730    2.288387
     19          1           0       -4.953087   -1.099289    2.112925
     20          1           0       -6.392807   -0.355537    1.383061
     21          1           0       -4.879076    0.564454    1.505407
     22          1           0       -5.298437   -1.965190   -0.202969
     23          1           0       -5.251323   -0.325787   -0.856889
     24          1           0       -4.166034    1.479090   -0.636485
     25          1           0       -2.521066    3.309045   -0.843326
     26          1           0       -0.099493    2.844029   -0.631752
     27          1           0       -1.594101   -2.208284    0.468703
     28          1           0       -0.001255   -1.649239    0.603854
     29          1           0        2.125290    2.182363   -0.457730
     30          1           0        1.329564    2.027366    1.124193
     31          1           0        3.827167    1.813225    1.150141
     32          1           0        3.264842   -1.353382   -1.993287
     33          1           0        0.806082   -0.940747   -1.708207
     34          1           0        1.791466    0.487384   -2.092167
     35          1           0        1.832331   -2.980711   -0.751033
     36          1           0        3.493530   -2.936401   -0.112396
     37          1           0        2.189097   -2.141728    0.769574
     38          1           0        3.872592   -0.232867    2.660429
     39          1           0        2.574253    0.919527    3.043072
     40          1           0        2.199210   -0.572250    2.172117
 ---------------------------------------------------------------------

 SCF Done:  E(UB3LYP) =  -1129.94861725     A.U. after   33 cycles
 SCF Done:  E(UB3LYP) =  -1129.94861725     a.u. after    1 cycles

 The electronic state is 2-A.
 Alpha  occ. eigenvalues --  -88.74803 -19.05991 -14.23356 -14.22182 -10.13760
 Alpha  occ. eigenvalues --  -10.13469 -10.12346 -10.12056 -10.11540 -10.11531
 Alpha  occ. eigenvalues --  -10.11447 -10.11182 -10.08114 -10.07815 -10.07744
 Alpha  occ. eigenvalues --  -10.07563 -10.07531 -10.07155  -7.83453  -5.79830
 Alpha  occ. eigenvalues --   -5.79489  -5.78823  -0.97434  -0.86454  -0.81855
 Alpha  occ. eigenvalues --   -0.75054  -0.72989  -0.71067  -0.68028  -0.64467
 Alpha  occ. eigenvalues --   -0.63172  -0.61316  -0.61034  -0.57367  -0.55339
 Alpha  occ. eigenvalues --   -0.52450  -0.50856  -0.49609  -0.45188  -0.44001
 Alpha  occ. eigenvalues --   -0.43673  -0.40869  -0.40226  -0.38607  -0.37719
 Alpha  occ. eigenvalues --   -0.37476  -0.36712  -0.36131  -0.35276  -0.34549
 Alpha  occ. eigenvalues --   -0.34044  -0.33669  -0.32723  -0.31676  -0.30242
 Alpha  occ. eigenvalues --   -0.30040  -0.29339  -0.29077  -0.28519  -0.27964
 Alpha  occ. eigenvalues --   -0.27512  -0.26663  -0.26257  -0.23771  -0.23514
 Alpha  occ. eigenvalues --   -0.23046  -0.22412  -0.20992  -0.17145  -0.14124
 Alpha  occ. eigenvalues --   -0.12852  -0.10804   0.03999
 Alpha virt. eigenvalues --    0.05384   0.06163   0.06639   0.07408   0.07813
 Alpha virt. eigenvalues --    0.07964   0.08676   0.08902   0.09202   0.09292
 Alpha virt. eigenvalues --    0.09467   0.09747   0.10150   0.11078   0.11230

  Beta  occ. eigenvalues --  -88.74802 -19.05985 -14.23348 -14.22172 -10.13761
  Beta  occ. eigenvalues --  -10.13444 -10.12342 -10.12046 -10.11534 -10.11530
  Beta  occ. eigenvalues --  -10.11433 -10.11181 -10.08098 -10.07805 -10.07738
  Beta  occ. eigenvalues --  -10.07557 -10.07506 -10.07116  -7.83451  -5.79828
  Beta  occ. eigenvalues --   -5.79488  -5.78821  -0.97421  -0.86441  -0.81839
  Beta  occ. eigenvalues --   -0.75040  -0.72972  -0.71046  -0.67991  -0.64450
  Beta  occ. eigenvalues --   -0.63148  -0.61292  -0.61000  -0.57340  -0.55286
  Beta  occ. eigenvalues --   -0.52415  -0.50835  -0.49573  -0.45156  -0.43971
  Beta  occ. eigenvalues --   -0.43654  -0.40840  -0.40203  -0.38587  -0.37689
  Beta  occ. eigenvalues --   -0.37454  -0.36683  -0.36105  -0.35242  -0.34526
  Beta  occ. eigenvalues --   -0.34025  -0.33642  -0.32701  -0.31651  -0.30214
  Beta  occ. eigenvalues --   -0.30004  -0.29309  -0.29048  -0.28491  -0.27939
  Beta  occ. eigenvalues --   -0.27486  -0.26642  -0.26237  -0.23747  -0.23491
  Beta  occ. eigenvalues --   -0.23013  -0.22399  -0.20978  -0.17118  -0.14115
  Beta  occ. eigenvalues --   -0.12832  -0.10791
  Beta virt. eigenvalues --    0.05795   0.06494   0.06609   0.06961   0.07846
  Beta virt. eigenvalues --    0.08188   0.08241   0.08905   0.09127   0.09264
  Beta virt. eigenvalues --    0.09499   0.09683   0.10051   0.10371   0.11133

 Mulliken charges and spin densities:
               1          2
     1  C    0.961409  -1.381611
     2  C    0.033566  -0.213375
     3  O   -0.156087   0.008333
     4  C   -0.375359   0.351949
     5  C    1.646656  -1.557743
     6  C   -0.470887   0.071898
     7  C    1.282143  -1.009469
     8  C   -0.826224   0.059511
     9  C   -2.139695   1.679073
    10  N   -0.362580   0.025776
    11  N    0.535992  -0.030922
    12  C    0.095919  -0.267306
    13  C    0.073233  -0.049512
    14  S   -0.012124  -0.278132
    15  C    0.125384   0.182464
    16  C   -0.350225  -0.146673
    17  C   -0.120593  -0.570263
    18  C    0.513560  -1.172766
    19  H   -0.134390   0.284895
    20  H   -0.394511   0.533250
    21  H   -0.140899   0.278226
    22  H   -0.570535   0.765942
    23  H   -0.131738   0.264058
    24  H    0.037706   0.116190
    25  H   -0.286880   0.462756
    26  H    0.050096   0.088566
    27  H    0.140791   0.145962
    28  H    0.255319   0.008051
    29  H    0.010230   0.123917
    30  H   -0.037436   0.220234
    31  H   -0.299226   0.582486
    32  H    0.098345   0.165991
    33  H    0.104400   0.106097
    34  H    0.070215   0.065164
    35  H    0.055198   0.089932
    36  H   -0.018684   0.168882
    37  H    0.018404   0.116146
    38  H   -0.027260   0.184960
    39  H   -0.151449   0.275908
    40  H   -0.101782   0.251154
 Sum of Mulliken charges =  -1.00000   1.00000

 Dipole moment (field-independent basis, Debye):
    X=              5.4025    Y=             -0.1376    Z=             -2.6713  Tot=              6.0285
 Quadrupole moment (field-independent basis, Debye-Ang):
   XX=           -242.9919   YY=           -161.9399   ZZ=           -155.5489
   XY=            -11.2450   XZ=              0.5514   YZ=             -0.9130

 Summary of Natural Population Analysis:

                                       Natural Population
                Natural  -----------------------------------------------
    Atom  No    Charge         Core      Valence    Rydberg      Total
 -----------------------------------------------------------------------
      C    1   -0.30090      0.99966     2.29652    0.00471     3.30090
      C    2   -0.00951      0.99958     1.99784    0.01209     3.00951
      O    3   -0.28473      0.99986     3.27425    0.01062     4.28473
      C    4    0.14685      0.99934     1.84123    0.01259     2.85315
      C    5   -0.14276      0.99952     2.13429    0.00894     3.14276
      C    6   -0.10554      0.99958     2.09656    0.00940     3.10554
      C    7   -0.12555      0.99952     2.11671    0.00932     3.12555
      C    8    0.07004      0.99944     1.91896    0.01156     2.92996
      C    9    0.06028      0.99942     1.92859    0.01171     2.93972
      N   10   -0.40217      0.99971     2.89195    0.01051     3.90217
      N   11   -0.28674      0.99967     2.77326    0.01382     3.78674
      C   12   -0.08958      0.99957     2.07655    0.01346     3.08958
      C   13   -0.16882      0.99956     2.15458    0.01468     3.16882
      S   14    0.08519      4.99960     2.89903    0.01618     7.91481
      C   15   -0.16957      0.99956     2.15763    0.01239     3.16957
      C   16   -0.08652      0.99956     2.07719    0.00978     3.08652
      C   17   -0.28969      0.99962     2.28380    0.00627     3.28969
      C   18   -0.28941      0.99962     2.28229    0.00750     3.28941
      H   19    0.10164      0.00000     0.39704    0.00133     0.39836
      H   20    0.10444      0.00000     0.39365    0.00192     0.39556
      H   21    0.10204      0.00000     0.39653    0.00143     0.39796
      H   22    0.09324      0.00000     0.40512    0.00165     0.40676
      H   23    0.08232      0.00000     0.41598    0.00170     0.41768
      H   24    0.10506      0.00000     0.39363    0.00130     0.39494
      H   25    0.09951      0.00000     0.39960    0.00089     0.40049
      H   26    0.10282      0.00000     0.39575    0.00143     0.39718
      H   27    0.19343      0.00000     0.30465    0.00192     0.30657
      H   28    0.18857      0.00000     0.30906    0.00237     0.31143
      H   29    0.08941      0.00000     0.40903    0.00156     0.41059
      H   30    0.10689      0.00000     0.39157    0.00155     0.39311
      H   31    0.10693      0.00000     0.39183    0.00124     0.39307
      H   32    0.10457      0.00000     0.39448    0.00095     0.39543
      H   33    0.11037      0.00000     0.38810    0.00153     0.38963
      H   34    0.08994      0.00000     0.40876    0.00131     0.41006
      H   35    0.10185      0.00000     0.39686    0.00129     0.39815
      H   36    0.10263      0.00000     0.39628    0.00109     0.39737
      H   37    0.09888      0.00000     0.39962    0.00150     0.40112
      H   38    0.10297      0.00000     0.39595    0.00108     0.39703
      H   39    0.10126      0.00000     0.39753    0.00121     0.39874
      H   40    0.10038      0.00000     0.39795    0.00167     0.39962
 =======================================================================
   * Total *    0.00000     21.99241    49.78018    0.22741    72.00000

 Normal termination of Gaussian 16 at Fri Dec 11 23:27:31 2020.
