 Gaussian 16, Revision A.03,

 -----------------------------------------------------------
 # opt freq B3LYP/6-31G(d) empiricaldispersion=gd3bj scf=xqc
 -----------------------------------------------------------

 ------------------------------
 CID_68154759_JID_7491_neutraal
 ------------------------------
 Symbolic Z-matrix:
 Charge =  0 Multiplicity = 1

 SCF Done:  E(RB3LYP) =  -741.497742067     A.U. after   15 cycles
 SCF Done:  E(RB3LYP) =  -741.503927193     A.U. after   13 cycles
 SCF Done:  E(RB3LYP) =  -741.505218772     A.U. after   13 cycles
 SCF Done:  E(RB3LYP) =  -741.505643782     A.U. after   12 cycles
 SCF Done:  E(RB3LYP) =  -741.506123959     A.U. after   14 cycles
 SCF Done:  E(RB3LYP) =  -741.506487287     A.U. after   14 cycles
 SCF Done:  E(RB3LYP) =  -741.507092914     A.U. after   12 cycles
 SCF Done:  E(RB3LYP) =  -741.507450218     A.U. after   12 cycles
 SCF Done:  E(RB3LYP) =  -741.507480028     A.U. after   11 cycles
 SCF Done:  E(RB3LYP) =  -741.507484600     A.U. after   10 cycles
 SCF Done:  E(RB3LYP) =  -741.507486938     A.U. after    9 cycles
 SCF Done:  E(RB3LYP) =  -741.507486659     A.U. after    8 cycles
 SCF Done:  E(RB3LYP) =  -741.507486762     A.U. after    7 cycles
 Optimization completed.
    -- Stationary point found.
 Normal termination of Gaussian 16 at Fri Dec 11 12:08:29 2020.

 --------------------------------------------------------------------
 #N Geom=AllCheck Guess=TCheck SCRF=Check GenChk RB3LYP/6-31G(d) Freq
 --------------------------------------------------------------------

 Structure from the checkpoint file:  "JID_7491.chk"
 ------------------------------
 CID_68154759_JID_7491_neutraal
 ------------------------------
 Charge =  0 Multiplicity = 1

 SCF Done:  E(RB3LYP) =  -741.507486762     A.U. after    1 cycles

  Exact polarizability: 173.804  -0.797 149.376  14.806  -9.825 121.909
 Approx polarizability: 252.548  -4.971 282.158  38.590 -27.397 218.753

                      1                      2                      3
                      A                      A                      A
 Frequencies --     30.6054                36.3842                63.5563
 Red. masses --      3.9182                 5.6597                 5.9969
 Frc consts  --      0.0022                 0.0044                 0.0143
 IR Inten    --      0.1613                 0.6529                 0.2927

                      4                      5                      6
                      A                      A                      A
 Frequencies --    146.4239               168.7488               182.0604
 Red. masses --      5.4619                 5.3855                 5.1581
 Frc consts  --      0.0690                 0.0904                 0.1007
 IR Inten    --      0.2805                 0.2658                 1.4926

                      7                      8                      9
                      A                      A                      A
 Frequencies --    228.0653               257.3460               327.5497
 Red. masses --      4.3857                 5.6985                 6.4944
 Frc consts  --      0.1344                 0.2224                 0.4105
 IR Inten    --      0.6019                 2.5310                 1.4807

                     10                     11                     12
                      A                      A                      A
 Frequencies --    370.0605               418.2501               424.5854
 Red. masses --      6.2354                 3.0336                 4.1038
 Frc consts  --      0.5031                 0.3127                 0.4359
 IR Inten    --      0.0221                 2.3211                 6.2073

                     13                     14                     15
                      A                      A                      A
 Frequencies --    437.3837               485.8882               505.9363
 Red. masses --      4.2979                 4.3886                 4.9888
 Frc consts  --      0.4844                 0.6104                 0.7524
 IR Inten    --      2.4843                 3.0657                 5.5187

                     16                     17                     18
                      A                      A                      A
 Frequencies --    550.3280               582.0620               618.2955
 Red. masses --      1.3061                 4.0285                 4.5117
 Frc consts  --      0.2331                 0.8041                 1.0162
 IR Inten    --    124.8907                46.9833                24.1641

                     19                     20                     21
                      A                      A                      A
 Frequencies --    632.6643               636.5190               664.0204
 Red. masses --      5.4994                 6.1522                 5.2406
 Frc consts  --      1.2969                 1.4686                 1.3614
 IR Inten    --     11.9434                 2.2062                 1.5345

                     22                     23                     24
                      A                      A                      A
 Frequencies --    695.2849               713.9552               730.2666
 Red. masses --      4.3043                 3.4032                 1.7761
 Frc consts  --      1.2260                 1.0221                 0.5581
 IR Inten    --      4.9436                 3.9410                47.9267

                     25                     26                     27
                      A                      A                      A
 Frequencies --    748.0297               774.0429               801.1677
 Red. masses --      5.0439                 2.9403                 1.4377
 Frc consts  --      1.6629                 1.0379                 0.5437
 IR Inten    --      6.2101                11.7364                35.6126

                     28                     29                     30
                      A                      A                      A
 Frequencies --    818.2872               855.3794               869.1916
 Red. masses --      4.4255                 2.8202                 1.2591
 Frc consts  --      1.7459                 1.2158                 0.5605
 IR Inten    --     31.7667                21.6364                 0.7553

                     31                     32                     33
                      A                      A                      A
 Frequencies --    883.7168               922.6911               941.3454
 Red. masses --      1.5239                 6.2270                 1.4844
 Frc consts  --      0.7012                 3.1235                 0.7750
 IR Inten    --      9.4084                 3.8772                 1.3515

                     34                     35                     36
                      A                      A                      A
 Frequencies --    945.7581               978.0018               984.1066
 Red. masses --      1.3353                 1.3307                 1.2864
 Frc consts  --      0.7037                 0.7499                 0.7340
 IR Inten    --      0.0161                 0.1985                 0.7666

                     37                     38                     39
                      A                      A                      A
 Frequencies --   1001.0844              1022.0247              1052.5057
 Red. masses --      1.2512                 6.1833                 2.4359
 Frc consts  --      0.7388                 3.8054                 1.5899
 IR Inten    --      0.3930                 1.5286                 8.7002

                     40                     41                     42
                      A                      A                      A
 Frequencies --   1055.3793              1064.2752              1106.7792
 Red. masses --      4.0818                 2.3531                 2.5042
 Frc consts  --      2.6787                 1.5703                 1.8073
 IR Inten    --     62.8683                23.5550                 0.3802

                     43                     44                     45
                      A                      A                      A
 Frequencies --   1127.0712              1151.0747              1180.3308
 Red. masses --      2.4143                 1.3315                 2.1497
 Frc consts  --      1.8069                 1.0395                 1.7645
 IR Inten    --      2.0164                 6.7520                50.8089

                     46                     47                     48
                      A                      A                      A
 Frequencies --   1192.9934              1205.8923              1218.1253
 Red. masses --      1.1047                 1.7663                 1.5396
 Frc consts  --      0.9264                 1.5133                 1.3460
 IR Inten    --      0.2255                12.3816                 2.4598

                     49                     50                     51
                      A                      A                      A
 Frequencies --   1256.3120              1269.1992              1290.4991
 Red. masses --      2.6199                 1.5378                 1.4648
 Frc consts  --      2.4363                 1.4595                 1.4373
 IR Inten    --     13.5733                11.6095                39.6341

                     52                     53                     54
                      A                      A                      A
 Frequencies --   1320.4604              1326.5360              1351.8218
 Red. masses --      2.7893                 2.4302                 2.0716
 Frc consts  --      2.8655                 2.5196                 2.2304
 IR Inten    --     20.8503                69.8734                 0.9926

                     55                     56                     57
                      A                      A                      A
 Frequencies --   1366.1790              1389.5405              1414.4749
 Red. masses --      2.4861                 2.2018                 2.1186
 Frc consts  --      2.7339                 2.5048                 2.4974
 IR Inten    --      0.3574                25.7103                 0.3510

                     58                     59                     60
                      A                      A                      A
 Frequencies --   1454.6354              1464.4404              1497.5783
 Red. masses --      3.3614                 1.3698                 2.2448
 Frc consts  --      4.1907                 1.7308                 2.9662
 IR Inten    --     41.7065                50.6174                12.9751

                     61                     62                     63
                      A                      A                      A
 Frequencies --   1530.4344              1544.2632              1570.7430
 Red. masses --      5.4190                 2.1912                 5.4356
 Frc consts  --      7.4782                 3.0788                 7.9015
 IR Inten    --      3.2703                12.5212                 0.7311

                     64                     65                     66
                      A                      A                      A
 Frequencies --   1580.4121              1646.7417              1665.9422
 Red. masses --      4.7095                 5.7512                 5.5674
 Frc consts  --      6.9305                 9.1888                 9.1038
 IR Inten    --     22.5353                 1.0033                 5.6922

                     67                     68                     69
                      A                      A                      A
 Frequencies --   1681.4428              3063.4385              3180.6746
 Red. masses --      6.8598                 1.0847                 1.0848
 Frc consts  --     11.4268                 5.9976                 6.4658
 IR Inten    --     16.0788                19.5812                 0.9266

                     70                     71                     72
                      A                      A                      A
 Frequencies --   3189.1711              3199.0048              3208.5605
 Red. masses --      1.0882                 1.0920                 1.0965
 Frc consts  --      6.5210                 6.5844                 6.6511
 IR Inten    --      8.4085                28.8219                25.2103

                     73                     74                     75
                      A                      A                      A
 Frequencies --   3214.2623              3222.9602              3228.0802
 Red. masses --      1.0893                 1.0925                 1.0906
 Frc consts  --      6.6310                 6.6865                 6.6959
 IR Inten    --      4.7136                 7.5425                 4.2462

                     76                     77                     78
                      A                      A                      A
 Frequencies --   3240.8124              3252.1812              3656.4583
 Red. masses --      1.0974                 1.0964                 1.0655
 Frc consts  --      6.7909                 6.8323                 8.3932
 IR Inten    --      4.3585                 6.6658                58.2426

 - Thermochemistry -
 -------------------
 Temperature   298.150 Kelvin.  Pressure   1.00000 Atm.
 Atom     1 has atomic number  6 and mass  12.00000

 Molecular mass:   225.09021 amu.
 Principal axes and moments of inertia in atomic units:
                           1         2         3
     Eigenvalues --  2030.803675476.763305684.37918
           X            0.99999   0.00384  -0.00079
           Y           -0.00385   0.99979  -0.02023
           Z            0.00071   0.02023   0.99980
 This molecule is an asymmetric top.
 Rotational symmetry number  1.
 Warning -- assumption of classical behavior for rotation
           may cause significant error
 Rotational temperatures (Kelvin)      0.04265     0.01581     0.01524
 Rotational constants (GHZ):           0.88868     0.32953     0.31749
 Zero-point vibrational energy     580683.8 (Joules/Mol)
                                  138.78677 (Kcal/Mol)
 Warning -- explicit consideration of  18 degrees of freedom as
           vibrations may cause significant error
 Vibrational temperatures:     44.03    52.35    91.44   210.67   242.79
          (Kelvin)            261.94   328.14   370.26   471.27   532.43
                              601.77   610.88   629.30   699.08   727.93
                              791.80   837.46   889.59   910.26   915.81
                              955.38  1000.36  1027.22  1050.69  1076.25
                             1113.68  1152.70  1177.33  1230.70  1250.57
                             1271.47  1327.55  1354.39  1360.73  1407.13
                             1415.91  1440.34  1470.47  1514.32  1518.46
                             1531.25  1592.41  1621.60  1656.14  1698.23
                             1716.45  1735.01  1752.61  1807.55  1826.09
                             1856.74  1899.85  1908.59  1944.97  1965.63
                             1999.24  2035.11  2092.90  2107.00  2154.68
                             2201.95  2221.85  2259.95  2273.86  2369.29
                             2396.92  2419.22  4407.60  4576.28  4588.51
                             4602.65  4616.40  4624.61  4637.12  4644.49
                             4662.81  4679.16  5260.83

 Zero-point correction=                           0.221171 (Hartree/Particle)
 Thermal correction to Energy=                    0.233831
 Thermal correction to Enthalpy=                  0.234775
 Thermal correction to Gibbs Free Energy=         0.180608
 Sum of electronic and zero-point Energies=           -741.286316
 Sum of electronic and thermal Energies=              -741.273656
 Sum of electronic and thermal Enthalpies=            -741.272712
 Sum of electronic and thermal Free Energies=         -741.326879

                     E (Thermal)             CV                S
                      KCal/Mol        Cal/Mol-Kelvin    Cal/Mol-Kelvin
 Total                  146.731             51.043            114.005
 Electronic               0.000              0.000              0.000
 Translational            0.889              2.981             42.136
 Rotational               0.889              2.981             32.514
 Vibrational            144.954             45.081             39.355
 Vibration     1          0.594              1.984              5.790
 Vibration     2          0.594              1.982              5.447
 Vibration     3          0.597              1.972              4.344
 Vibration     4          0.617              1.907              2.718
 Vibration     5          0.625              1.881              2.449
 Vibration     6          0.630              1.864              2.307
 Vibration     7          0.651              1.798              1.894
 Vibration     8          0.667              1.750              1.680
 Vibration     9          0.711              1.620              1.272
 Vibration    10          0.742              1.534              1.080
 Vibration    11          0.781              1.431              0.898
 Vibration    12          0.787              1.417              0.877
 Vibration    13          0.798              1.389              0.835
 Vibration    14          0.842              1.281              0.694
 Vibration    15          0.861              1.237              0.643
 Vibration    16          0.906              1.139              0.543
 Vibration    17          0.939              1.070              0.482
 Vibration    18          0.978              0.993              0.419

 Optimization completed.
    -- Stationary point found.
 Normal termination of Gaussian 16 at Fri Dec 11 12:20:06 2020.

 ----------------------------------------------------------------------
 # B3LYP/6-311++G(d,p) empiricaldispersion=gd3bj scf=xqc pop=npa geom=c
 heck
 ----------------------------------------------------------------------

 --------------------------------------
 CID_68154759_JID_7491_Energie_neutraal
 --------------------------------------
 Structure from the checkpoint file:  "JID_7491.chk"
 Charge =  0 Multiplicity = 1

 SCF Done:  E(RB3LYP) =  -741.705685581     A.U. after   16 cycles
 Normal termination of Gaussian 16 at Fri Dec 11 12:25:40 2020.

 ----------------------------------------------------------------------
 # B3LYP/6-311++G(d,p) empiricaldispersion=gd3bj scf=xqc pop=npa geom=c
 heck
 ----------------------------------------------------------------------

 ------------------------------------
 CID_68154759_JID_7491_Energie_kation
 ------------------------------------
 Structure from the checkpoint file:  "JID_7491.chk"
 Charge =  1 Multiplicity = 2

 SCF Done:  E(UB3LYP) =  -741.403728701     A.U. after   33 cycles
 SCF Done:  E(UB3LYP) =  -741.403820274     a.u. after    8 cycles
 Normal termination of Gaussian 16 at Fri Dec 11 14:28:32 2020.
 Gaussian 16:  ES64L-G16RevA.03 25-Dec-2016

 ----------------------------------------------------------------------
 # B3LYP/6-311++G(d,p) empiricaldispersion=gd3bj scf=xqc pop=npa geom=c
 heck
 ----------------------------------------------------------------------

 -----------------------------------
 CID_68154759_JID_7491_Energie_anion
 -----------------------------------
 Structure from the checkpoint file:  "JID_7491.chk"
 Charge = -1 Multiplicity = 2

                         Standard orientation:
 ---------------------------------------------------------------------
 Center     Atomic      Atomic             Coordinates (Angstroms)
 Number     Number       Type             X           Y           Z
 ---------------------------------------------------------------------
      1          6           0        3.819334   -0.837818   -1.187467
      2          6           0        3.805415   -0.887153    0.206975
      3          6           0        2.786728   -0.257762    0.922104
      4          6           0        1.768023    0.425420    0.251137
      5          6           0        1.788425    0.475015   -1.146488
      6          6           0        2.808000   -0.152706   -1.861881
      7          6           0        0.679968    1.139682    1.061058
      8          6           0       -0.634820    1.177474    0.338464
      9          6           0       -1.337192    2.157766   -0.348636
     10          7           0       -2.496023    1.688631   -0.896767
     11          6           0       -2.544324    0.404175   -0.556359
     12          7           0       -1.409447    0.054027    0.203842
     13          7           0       -1.142630   -1.156587    0.738858
     14          6           0       -2.042188   -2.079000    0.476990
     15          6           0       -3.218740   -1.869582   -0.291990
     16          6           0       -3.474952   -0.620084   -0.806740
     17          8           0        0.532836    0.586384    2.364642
     18          1           0        4.611611   -1.329950   -1.744673
     19          1           0        4.589209   -1.417641    0.741003
     20          1           0        2.768659   -0.292849    2.005969
     21          1           0        1.000408    1.000267   -1.678499
     22          1           0        2.808378   -0.109814   -2.947653
     23          1           0        0.991840    2.177929    1.225467
     24          1           0       -1.040656    3.191848   -0.470100
     25          1           0       -1.825983   -3.051986    0.906935
     26          1           0       -3.900643   -2.696478   -0.453696
     27          1           0       -4.358817   -0.394220   -1.392730
     28          1           0        0.207939   -0.323224    2.226296
 ---------------------------------------------------------------------

 SCF Done:  E(UB3LYP) =  -741.723028657     A.U. after   28 cycles

 The electronic state is 2-A.
 Alpha  occ. eigenvalues --  -18.99658 -14.23980 -14.16910 -14.14128 -10.11975
 Alpha  occ. eigenvalues --  -10.07971 -10.07918 -10.07824 -10.07768 -10.07619
 Alpha  occ. eigenvalues --  -10.07075 -10.06966 -10.05577 -10.04538 -10.04529
 Alpha  occ. eigenvalues --  -10.01762 -10.00495  -0.91319  -0.89569  -0.79602
 Alpha  occ. eigenvalues --   -0.75798  -0.69569  -0.66319  -0.64801  -0.64151
 Alpha  occ. eigenvalues --   -0.60785  -0.55702  -0.50894  -0.50200  -0.49055
 Alpha  occ. eigenvalues --   -0.47320  -0.45490  -0.42431  -0.38989  -0.36834
 Alpha  occ. eigenvalues --   -0.36050  -0.34920  -0.34264  -0.33783  -0.32585
 Alpha  occ. eigenvalues --   -0.32225  -0.31259  -0.30641  -0.27336  -0.26660
 Alpha  occ. eigenvalues --   -0.26110  -0.25391  -0.24632  -0.23718  -0.22675
 Alpha  occ. eigenvalues --   -0.21536  -0.17651  -0.17189  -0.15947  -0.15653
 Alpha  occ. eigenvalues --   -0.14064  -0.11638  -0.10952  -0.07609   0.04579
 Alpha virt. eigenvalues --    0.06975   0.08208   0.08346   0.08755   0.09596
 Alpha virt. eigenvalues --    0.09945   0.10682   0.11254   0.11865   0.12474
 Alpha virt. eigenvalues --    0.13490   0.13790   0.14370   0.14880   0.15326

  Beta  occ. eigenvalues --  -18.99655 -14.23708 -14.16197 -14.14021 -10.11972
  Beta  occ. eigenvalues --  -10.07969 -10.07916 -10.07823 -10.07768 -10.07715
  Beta  occ. eigenvalues --  -10.07076 -10.06960 -10.05632 -10.04448 -10.04446
  Beta  occ. eigenvalues --  -10.01673  -9.99942  -0.91059  -0.89218  -0.79081
  Beta  occ. eigenvalues --   -0.75794  -0.69197  -0.66215  -0.64792  -0.63369
  Beta  occ. eigenvalues --   -0.60594  -0.55527  -0.50816  -0.49682  -0.49011
  Beta  occ. eigenvalues --   -0.46996  -0.45200  -0.42425  -0.38752  -0.36781
  Beta  occ. eigenvalues --   -0.35834  -0.34830  -0.34168  -0.33641  -0.32447
  Beta  occ. eigenvalues --   -0.31661  -0.31125  -0.30062  -0.27168  -0.26635
  Beta  occ. eigenvalues --   -0.26072  -0.25014  -0.24596  -0.23514  -0.22565
  Beta  occ. eigenvalues --   -0.19963  -0.17381  -0.15967  -0.15755  -0.15153
  Beta  occ. eigenvalues --   -0.13923  -0.11187  -0.09269  -0.06295
  Beta virt. eigenvalues --    0.06939   0.08202   0.08356   0.08708   0.09551
  Beta virt. eigenvalues --    0.09895   0.10626   0.11134   0.11673   0.11991
  Beta virt. eigenvalues --    0.12504   0.13460   0.13873   0.14521   0.14936

 Mulliken charges and spin densities:
               1          2
     1  C   -0.273429  -0.040564
     2  C   -0.508872   0.023921
     3  C   -0.090064   0.024220
     4  C    1.251753  -0.106375
     5  C   -0.595724  -0.053075
     6  C   -0.491914   0.112072
     7  C   -0.614805   0.020182
     8  C    0.672093  -0.057929
     9  C   -0.852074   0.091601
    10  N   -0.071092   0.038349
    11  C   -0.172207  -0.084378
    12  N    0.115740   0.032000
    13  N   -0.131673   0.389159
    14  C   -0.482874   0.064440
    15  C   -0.094260   0.141833
    16  C   -0.137848   0.418935
    17  O   -0.157707   0.002831
    18  H    0.117562   0.000927
    19  H    0.135859   0.005495
    20  H    0.167758  -0.000288
    21  H    0.195667   0.017898
    22  H    0.148803   0.011733
    23  H    0.214668  -0.001735
    24  H    0.098990  -0.006736
    25  H    0.082606  -0.011171
    26  H    0.114371  -0.005127
    27  H    0.125095  -0.035251
    28  H    0.233576   0.007033
 Sum of Mulliken charges =  -1.00000   1.00000

 Dipole moment (field-independent basis, Debye):
    X=              7.2037    Y=             -0.8419    Z=             -0.3998  Tot=              7.2638
 Quadrupole moment (field-independent basis, Debye-Ang):
   XX=           -137.1574   YY=           -114.9945   ZZ=           -114.5251
   XY=              2.1052   XZ=             -4.6162   YZ=              0.1562

 Summary of Natural Population Analysis:

                                       Natural Population
                Natural  -----------------------------------------------
    Atom  No    Charge         Core      Valence    Rydberg      Total
 -----------------------------------------------------------------------
      C    1   -0.11340      0.99957     2.10455    0.00928     3.11340
      C    2   -0.10387      0.99957     2.09525    0.00905     3.10387
      C    3   -0.10191      0.99951     2.09374    0.00865     3.10191
      C    4   -0.01286      0.99949     2.00274    0.01064     3.01286
      C    5   -0.09764      0.99952     2.09028    0.00785     3.09764
      C    6   -0.10164      0.99957     2.09296    0.00910     3.10164
      C    7    0.04701      0.99948     1.93740    0.01611     2.95299
      C    8    0.01410      0.99952     1.97038    0.01601     2.98590
      C    9   -0.00275      0.99954     1.99068    0.01253     3.00275
      N   10   -0.26434      0.99970     2.74939    0.01525     3.76434
      C   11    0.15510      0.99958     1.82889    0.01643     2.84490
      N   12   -0.06491      0.99956     2.55293    0.01242     3.56491
      N   13   -0.07209      0.99968     2.55687    0.01554     3.57209
      C   14    0.02183      0.99965     1.96418    0.01433     2.97817
      C   15   -0.12148      0.99958     2.11254    0.00936     3.12148
      C   16   -0.00035      0.99953     1.99184    0.00898     3.00035
      O   17   -0.37885      0.99990     3.37288    0.00607     4.37885
      H   18    0.09476      0.00000     0.40426    0.00098     0.40524
      H   19    0.09475      0.00000     0.40427    0.00098     0.40525
      H   20    0.10837      0.00000     0.39047    0.00116     0.39163
      H   21    0.11166      0.00000     0.38710    0.00124     0.38834
      H   22    0.09664      0.00000     0.40240    0.00096     0.40336
      H   23    0.09666      0.00000     0.40192    0.00141     0.40334
      H   24    0.08590      0.00000     0.41311    0.00099     0.41410
      H   25    0.08277      0.00000     0.41624    0.00100     0.41723
      H   26    0.09102      0.00000     0.40791    0.00107     0.40898
      H   27    0.09123      0.00000     0.40732    0.00145     0.40877
      H   28    0.24429      0.00000     0.25306    0.00265     0.25571
 =======================================================================
   * Total *    0.00000     16.99295    41.79553    0.21152    59.00000

 Normal termination of Gaussian 16 at Fri Dec 11 14:40:39 2020.
