 Gaussian 16, Revision A.03,

 -----------------------------------------------------------
 # opt freq B3LYP/6-31G(d) empiricaldispersion=gd3bj scf=xqc
 -----------------------------------------------------------

 -------------------------------
 CID_121656663_JID_9517_neutraal
 -------------------------------
 Symbolic Z-matrix:
 Charge =  0 Multiplicity = 1

 SCF Done:  E(RB3LYP) =  -789.088531370     A.U. after   13 cycles
 SCF Done:  E(RB3LYP) =  -789.094880174     A.U. after   12 cycles
 SCF Done:  E(RB3LYP) =  -789.095941914     A.U. after   11 cycles
 SCF Done:  E(RB3LYP) =  -789.095938411     A.U. after   12 cycles
 SCF Done:  E(RB3LYP) =  -789.096198449     A.U. after   11 cycles
 SCF Done:  E(RB3LYP) =  -789.096275782     A.U. after   10 cycles
 SCF Done:  E(RB3LYP) =  -789.096287637     A.U. after    9 cycles
 SCF Done:  E(RB3LYP) =  -789.096289332     A.U. after    8 cycles
 SCF Done:  E(RB3LYP) =  -789.096289766     A.U. after    7 cycles
 Optimization completed.
    -- Stationary point found.
 Normal termination of Gaussian 16 at Mon Dec 14 16:45:48 2020.

 --------------------------------------------------------------------
 #N Geom=AllCheck Guess=TCheck SCRF=Check GenChk RB3LYP/6-31G(d) Freq
 --------------------------------------------------------------------

 Structure from the checkpoint file:  "JID_9517.chk"
 -------------------------------
 CID_121656663_JID_9517_neutraal
 -------------------------------
 Charge =  0 Multiplicity = 1

 SCF Done:  E(RB3LYP) =  -789.096289766     A.U. after    1 cycles

  Exact polarizability: 208.643  -7.715 192.650 -19.749  -4.949 142.529
 Approx polarizability: 269.515 -13.915 303.111 -41.648 -16.749 233.981

                      1                      2                      3
                      A                      A                      A
 Frequencies --     26.7696                41.9694                67.7680
 Red. masses --      3.6124                 4.1278                 3.8376
 Frc consts  --      0.0015                 0.0043                 0.0104
 IR Inten    --      0.1782                 0.0730                 0.1027

                      4                      5                      6
                      A                      A                      A
 Frequencies --     97.2303               142.3392               148.4772
 Red. masses --      3.8007                 2.8009                 2.4929
 Frc consts  --      0.0212                 0.0334                 0.0324
 IR Inten    --      0.0037                 1.0226                 0.8314

                      7                      8                      9
                      A                      A                      A
 Frequencies --    170.2233               184.2182               205.3394
 Red. masses --      2.9214                 3.4560                 1.2685
 Frc consts  --      0.0499                 0.0691                 0.0315
 IR Inten    --      0.8974                 2.8131                 1.1827

                     10                     11                     12
                      A                      A                      A
 Frequencies --    239.0169               239.9550               246.2945
 Red. masses --      1.3305                 1.7830                 1.8889
 Frc consts  --      0.0448                 0.0605                 0.0675
 IR Inten    --     21.0739                 1.2552                 6.0268

                     13                     14                     15
                      A                      A                      A
 Frequencies --    284.2033               290.4407               293.4240
 Red. masses --      1.3304                 2.4121                 2.5103
 Frc consts  --      0.0633                 0.1199                 0.1273
 IR Inten    --     18.9824                 0.8801                10.7947

                     16                     17                     18
                      A                      A                      A
 Frequencies --    309.5718               330.5359               354.6751
 Red. masses --      2.7043                 2.5356                 2.7679
 Frc consts  --      0.1527                 0.1632                 0.2051
 IR Inten    --      0.8308                 1.8485                 2.7111

                     19                     20                     21
                      A                      A                      A
 Frequencies --    391.5707               412.4949               440.6390
 Red. masses --      2.3493                 2.4394                 2.4465
 Frc consts  --      0.2122                 0.2446                 0.2799
 IR Inten    --      1.1352                 2.7963                 5.3570

                     22                     23                     24
                      A                      A                      A
 Frequencies --    443.9090               460.6484               496.0136
 Red. masses --      3.5213                 2.5361                 4.2517
 Frc consts  --      0.4088                 0.3171                 0.6163
 IR Inten    --      4.6314                 1.7213                10.0861

                     25                     26                     27
                      A                      A                      A
 Frequencies --    518.8945               534.6654               541.2937
 Red. masses --      3.0494                 2.5553                 2.2509
 Frc consts  --      0.4838                 0.4304                 0.3886
 IR Inten    --      5.0973                16.2550                20.5562

                     28                     29                     30
                      A                      A                      A
 Frequencies --    559.8122               587.3758               607.7225
 Red. masses --      3.3517                 3.3861                 3.2897
 Frc consts  --      0.6189                 0.6883                 0.7158
 IR Inten    --      3.4823                39.2974                22.7582

                     31                     32                     33
                      A                      A                      A
 Frequencies --    653.3108               697.4984               718.1208
 Red. masses --      2.8528                 4.2683                 2.9272
 Frc consts  --      0.7174                 1.2235                 0.8894
 IR Inten    --     23.1981                 5.7019                 1.6160

                     34                     35                     36
                      A                      A                      A
 Frequencies --    742.7161               767.8427               816.5557
 Red. masses --      2.2728                 1.4355                 3.1545
 Frc consts  --      0.7387                 0.4987                 1.2392
 IR Inten    --     12.4111                54.3555                15.0952

                     37                     38                     39
                      A                      A                      A
 Frequencies --    827.9293               866.7925               876.5916
 Red. masses --      2.6465                 2.3522                 2.0948
 Frc consts  --      1.0688                 1.0412                 0.9484
 IR Inten    --      7.1799                 7.1352                31.0458

                     40                     41                     42
                      A                      A                      A
 Frequencies --    898.0952               899.6335               915.7855
 Red. masses --      1.8168                 2.4234                 1.3942
 Frc consts  --      0.8634                 1.1556                 0.6889
 IR Inten    --     64.2428                20.9266                 0.5766

                     43                     44                     45
                      A                      A                      A
 Frequencies --    934.5751               944.7807               948.0893
 Red. masses --      2.0766                 1.7848                 1.2902
 Frc consts  --      1.0686                 0.9386                 0.6833
 IR Inten    --      1.4670                42.3079                 0.6362

                     46                     47                     48
                      A                      A                      A
 Frequencies --    959.8589               960.4127               964.1412
 Red. masses --      2.1221                 1.8317                 1.5888
 Frc consts  --      1.1519                 0.9955                 0.8701
 IR Inten    --      4.3401                11.0878                 8.6188

                     49                     50                     51
                      A                      A                      A
 Frequencies --    992.8217              1007.2549              1015.6029
 Red. masses --      2.3931                 1.7424                 1.9020
 Frc consts  --      1.3898                 1.0415                 1.1559
 IR Inten    --     13.5947                 0.5215                13.7834

                     52                     53                     54
                      A                      A                      A
 Frequencies --   1041.7225              1054.5925              1065.8110
 Red. masses --      1.5548                 1.7411                 2.3858
 Frc consts  --      0.9941                 1.1409                 1.5968
 IR Inten    --     10.1661                 2.4202                 4.3149

                     55                     56                     57
                      A                      A                      A
 Frequencies --   1091.9051              1100.1671              1108.9426
 Red. masses --      1.8644                 2.0655                 2.2587
 Frc consts  --      1.3097                 1.4729                 1.6365
 IR Inten    --      3.6644                28.8713                40.8858

                     58                     59                     60
                      A                      A                      A
 Frequencies --   1112.4361              1143.3275              1164.2627
 Red. masses --      2.3262                 1.8374                 1.8565
 Frc consts  --      1.6961                 1.4152                 1.4827
 IR Inten    --      4.2266                27.2498                10.7245

                     61                     62                     63
                      A                      A                      A
 Frequencies --   1185.4752              1193.1855              1200.5385
 Red. masses --      2.4448                 1.2415                 1.2521
 Frc consts  --      2.0243                 1.0414                 1.0632
 IR Inten    --     23.2717                 0.4435                10.5177

                     64                     65                     66
                      A                      A                      A
 Frequencies --   1205.1859              1218.8245              1230.8903
 Red. masses --      1.4381                 1.7030                 1.6925
 Frc consts  --      1.2307                 1.4905                 1.5108
 IR Inten    --      5.3495                 0.5557                 0.2801

                     67                     68                     69
                      A                      A                      A
 Frequencies --   1237.2582              1254.9557              1284.6597
 Red. masses --      1.9412                 1.8619                 2.5660
 Frc consts  --      1.7508                 1.7277                 2.4951
 IR Inten    --      6.2504                 1.2508                12.0467

                     70                     71                     72
                      A                      A                      A
 Frequencies --   1290.2963              1295.9401              1313.1932
 Red. masses --      1.9715                 1.5656                 1.7873
 Frc consts  --      1.9339                 1.5492                 1.8159
 IR Inten    --      2.9849                29.0103                 3.8935

                     73                     74                     75
                      A                      A                      A
 Frequencies --   1327.9963              1350.6874              1354.7953
 Red. masses --      1.6546                 1.6628                 1.3893
 Frc consts  --      1.7192                 1.7873                 1.5025
 IR Inten    --      7.1518                 5.2690                27.9900

                     76                     77                     78
                      A                      A                      A
 Frequencies --   1362.6081              1367.1869              1382.1432
 Red. masses --      1.5060                 1.3056                 1.6547
 Frc consts  --      1.6475                 1.4378                 1.8625
 IR Inten    --     31.8869                 9.9572                27.4824

                     79                     80                     81
                      A                      A                      A
 Frequencies --   1389.4809              1400.0047              1406.7070
 Red. masses --      1.5402                 1.4168                 1.4400
 Frc consts  --      1.7520                 1.6361                 1.6788
 IR Inten    --      9.7463                 4.0106                 0.9882

                     82                     83                     84
                      A                      A                      A
 Frequencies --   1421.3796              1431.1231              1432.3112
 Red. masses --      1.2809                 1.4459                 1.2844
 Frc consts  --      1.5247                 1.7448                 1.5525
 IR Inten    --     10.1266                 9.1409                 6.7467

                     85                     86                     87
                      A                      A                      A
 Frequencies --   1456.8702              1460.2443              1498.2887
 Red. masses --      1.3257                 1.6620                 2.1255
 Frc consts  --      1.6578                 2.0880                 2.8113
 IR Inten    --      4.8270                 3.1557                53.6613

                     88                     89                     90
                      A                      A                      A
 Frequencies --   1508.0349              1510.9023              1516.0832
 Red. masses --      1.0960                 1.1037                 1.2821
 Frc consts  --      1.4685                 1.4845                 1.7363
 IR Inten    --      3.3908                 5.3333                12.3811

                     91                     92                     93
                      A                      A                      A
 Frequencies --   1516.8586              1520.9701              1528.8043
 Red. masses --      1.0621                 1.0544                 1.3853
 Frc consts  --      1.4398                 1.4372                 1.9076
 IR Inten    --      2.3233                 2.1302                10.1306

                     94                     95                     96
                      A                      A                      A
 Frequencies --   1529.6654              1538.3721              1541.8898
 Red. masses --      1.6370                 1.0778                 1.0690
 Frc consts  --      2.2568                 1.5028                 1.4973
 IR Inten    --      6.4055                 4.7614                 9.1403

                     97                     98                     99
                      A                      A                      A
 Frequencies --   1546.5276              1550.5844              1660.6215
 Red. masses --      1.0666                 1.1419                 6.4729
 Frc consts  --      1.5030                 1.6175                10.5170
 IR Inten    --     12.0136                 1.9156                11.6660

                    100                    101                    102
                      A                      A                      A
 Frequencies --   1665.3945              1697.1070              2916.2556
 Red. masses --      6.3648                 1.0888                 1.0714
 Frc consts  --     10.4008                 1.8476                 5.3687
 IR Inten    --     15.9161                26.7232                48.7896

                    103                    104                    105
                      A                      A                      A
 Frequencies --   2943.8108              2991.2095              3018.8991
 Red. masses --      1.0710                 1.0738                 1.0833
 Frc consts  --      5.4686                 5.6607                 5.8171
 IR Inten    --     46.5484                70.1457                22.2815

                    106                    107                    108
                      A                      A                      A
 Frequencies --   3033.1477              3036.2475              3041.6519
 Red. masses --      1.0714                 1.0689                 1.0615
 Frc consts  --      5.8074                 5.8057                 5.7861
 IR Inten    --     35.1326                35.4517                36.9176

                    109                    110                    111
                      A                      A                      A
 Frequencies --   3042.1894              3046.0695              3052.8996
 Red. masses --      1.0389                 1.0740                 1.0408
 Frc consts  --      5.6649                 5.8713                 5.7154
 IR Inten    --     32.0472                76.4547                15.4677

                    112                    113                    114
                      A                      A                      A
 Frequencies --   3064.2891              3080.6649              3085.9804
 Red. masses --      1.0865                 1.1032                 1.1050
 Frc consts  --      6.0110                 6.1689                 6.2001
 IR Inten    --     22.6236                41.0506                22.9634

                    115                    116                    117
                      A                      A                      A
 Frequencies --   3100.0379              3102.5356              3108.5781
 Red. masses --      1.1016                 1.0911                 1.0962
 Frc consts  --      6.2373                 6.1880                 6.2410
 IR Inten    --     42.0553                39.2870                43.5080

                    118                    119                    120
                      A                      A                      A
 Frequencies --   3109.8199              3141.0455              3145.9599
 Red. masses --      1.1002                 1.1007                 1.0985
 Frc consts  --      6.2690                 6.3983                 6.4054
 IR Inten    --     35.3312                21.8254                18.4522

                    121                    122                    123
                      A                      A                      A
 Frequencies --   3175.2736              3183.7078              3206.0674
 Red. masses --      1.0864                 1.0900                 1.0956
 Frc consts  --      6.4535                 6.5092                 6.6352
 IR Inten    --      5.3550                23.0978                29.5988

                    124                    125                    126
                      A                      A                      A
 Frequencies --   3458.8935              3541.3264              3598.6798
 Red. masses --      1.0495                 1.0918                 1.0752
 Frc consts  --      7.3977                 8.0671                 8.2036
 IR Inten    --      1.9351                 0.6308                13.9586

 - Thermochemistry -
 -------------------
 Temperature   298.150 Kelvin.  Pressure   1.00000 Atm.
 Atom     1 has atomic number  6 and mass  12.00000

 Molecular mass:   259.20485 amu.
 Principal axes and moments of inertia in atomic units:
                           1         2         3
     Eigenvalues --  2493.102248326.332049332.95310
           X            0.99995  -0.00915  -0.00400
           Y            0.00916   0.99996   0.00244
           Z            0.00398  -0.00248   0.99999
 This molecule is an asymmetric top.
 Rotational symmetry number  1.
 Warning -- assumption of classical behavior for rotation
           may cause significant error
 Rotational temperatures (Kelvin)      0.03474     0.01040     0.00928
 Rotational constants (GHZ):           0.72389     0.21675     0.19337
 Zero-point vibrational energy    1040561.8 (Joules/Mol)
                                  248.70025 (Kcal/Mol)
 Warning -- explicit consideration of  30 degrees of freedom as
           vibrations may cause significant error
 Vibrational temperatures:     38.52    60.38    97.50   139.89   204.79
          (Kelvin)            213.63   244.91   265.05   295.44   343.89
                              345.24   354.36   408.91   417.88   422.17
                              445.40   475.57   510.30   563.38   593.49
                              633.98   638.69   662.77   713.65   746.57
                              769.26   778.80   805.44   845.10   874.38
                              939.97  1003.54  1033.22  1068.60  1104.75
                             1174.84  1191.21  1247.12  1261.22  1292.16
                             1294.37  1317.61  1344.65  1359.33  1364.09
                             1381.02  1381.82  1387.18  1428.45  1449.22
                             1461.23  1498.81  1517.32  1533.46  1571.01
                             1582.90  1595.52  1600.55  1644.99  1675.11
                             1705.63  1716.73  1727.31  1733.99  1753.62
                             1770.98  1780.14  1805.60  1848.34  1856.45
                             1864.57  1889.39  1910.69  1943.34  1949.25
                             1960.49  1967.08  1988.60  1999.15  2014.29
                             2023.94  2045.05  2059.07  2060.78  2096.11
                             2100.97  2155.70  2169.73  2173.85  2181.31
                             2182.42  2188.34  2199.61  2200.85  2213.37
                             2218.44  2225.11  2230.95  2389.26  2396.13
                             2441.76  4195.84  4235.49  4303.68  4343.52
                             4364.02  4368.48  4376.26  4377.03  4382.61
                             4392.44  4408.83  4432.39  4440.04  4460.26
                             4463.86  4472.55  4474.34  4519.26  4526.33
                             4568.51  4580.65  4612.82  4976.58  5095.18
                             5177.70

 Zero-point correction=                           0.396329 (Hartree/Particle)
 Thermal correction to Energy=                    0.414082
 Thermal correction to Enthalpy=                  0.415026
 Thermal correction to Gibbs Free Energy=         0.351336
 Sum of electronic and zero-point Energies=           -788.699961
 Sum of electronic and thermal Energies=              -788.682208
 Sum of electronic and thermal Enthalpies=            -788.681263
 Sum of electronic and thermal Free Energies=         -788.744954

                     E (Thermal)             CV                S
                      KCal/Mol        Cal/Mol-Kelvin    Cal/Mol-Kelvin
 Total                  259.840             72.178            134.049
 Electronic               0.000              0.000              0.000
 Translational            0.889              2.981             42.557
 Rotational               0.889              2.981             33.626
 Vibrational            258.063             66.216             57.865
 Vibration     1          0.593              1.984              6.055
 Vibration     2          0.595              1.980              5.164
 Vibration     3          0.598              1.970              4.217
 Vibration     4          0.603              1.951              3.509
 Vibration     5          0.616              1.911              2.772
 Vibration     6          0.618              1.904              2.692
 Vibration     7          0.625              1.879              2.433
 Vibration     8          0.631              1.861              2.285
 Vibration     9          0.640              1.832              2.085
 Vibration    10          0.657              1.781              1.810
 Vibration    11          0.657              1.779              1.803
 Vibration    12          0.661              1.769              1.757
 Vibration    13          0.683              1.703              1.508
 Vibration    14          0.686              1.692              1.471
 Vibration    15          0.688              1.686              1.454
 Vibration    16          0.699              1.655              1.365
 Vibration    17          0.713              1.615              1.257
 Vibration    18          0.731              1.566              1.145
 Vibration    19          0.759              1.488              0.994
 Vibration    20          0.776              1.443              0.918
 Vibration    21          0.801              1.382              0.825
 Vibration    22          0.803              1.374              0.814
 Vibration    23          0.818              1.337              0.764
 Vibration    24          0.852              1.259              0.668
 Vibration    25          0.874              1.208              0.613
 Vibration    26          0.890              1.173              0.577
 Vibration    27          0.896              1.159              0.563
 Vibration    28          0.915              1.118              0.524
 Vibration    29          0.945              1.059              0.472
 Vibration    30          0.967              1.015              0.437

 Optimization completed.
    -- Stationary point found.
 Normal termination of Gaussian 16 at Mon Dec 14 17:13:55 2020.

 ----------------------------------------------------------------------
 # B3LYP/6-311++G(d,p) empiricaldispersion=gd3bj scf=xqc pop=npa geom=c
 heck
 ----------------------------------------------------------------------

 ---------------------------------------
 CID_121656663_JID_9517_Energie_neutraal
 ---------------------------------------
 Structure from the checkpoint file:  "JID_9517.chk"
 Charge =  0 Multiplicity = 1

 SCF Done:  E(RB3LYP) =  -789.312938224     A.U. after   15 cycles
 Normal termination of Gaussian 16 at Mon Dec 14 17:27:22 2020.

 ----------------------------------------------------------------------
 # B3LYP/6-311++G(d,p) empiricaldispersion=gd3bj scf=xqc pop=npa geom=c
 heck
 ----------------------------------------------------------------------

 -------------------------------------
 CID_121656663_JID_9517_Energie_kation
 -------------------------------------
 Structure from the checkpoint file:  "JID_9517.chk"
 Charge =  1 Multiplicity = 2

 SCF Done:  E(UB3LYP) =  -789.051940209     A.U. after   25 cycles
 Normal termination of Gaussian 16 at Mon Dec 14 17:59:52 2020.
 Gaussian 16:  ES64L-G16RevA.03 25-Dec-2016

 ----------------------------------------------------------------------
 # B3LYP/6-311++G(d,p) empiricaldispersion=gd3bj scf=xqc pop=npa geom=c
 heck
 ----------------------------------------------------------------------

 ------------------------------------
 CID_121656663_JID_9517_Energie_anion
 ------------------------------------
 Structure from the checkpoint file:  "JID_9517.chk"
 Charge = -1 Multiplicity = 2

                         Standard orientation:
 ---------------------------------------------------------------------
 Center     Atomic      Atomic             Coordinates (Angstroms)
 Number     Number       Type             X           Y           Z
 ---------------------------------------------------------------------
      1          6           0       -3.861525    0.500398    1.129736
      2          6           0       -2.971807    0.578587   -0.122097
      3          6           0       -1.528099    0.932301    0.286537
      4          7           0       -0.907778   -0.106006    1.105832
      5          6           0       -0.787540   -1.353060    0.361914
      6          6           0       -2.165927   -1.840929   -0.085374
      7          6           0       -2.928573   -0.771797   -0.885374
      8          7           0       -4.274660   -1.190942   -1.300064
      9          6           0        0.345637    0.330028    1.739712
     10          6           0        1.474153    0.735635    0.807473
     11          6           0        1.578376    2.053490    0.332858
     12          6           0        2.578892    2.451203   -0.552418
     13          6           0        3.532746    1.522428   -0.990832
     14          6           0        3.455967    0.216327   -0.535973
     15          6           0        2.439619   -0.172296    0.354688
     16          7           0        2.604414   -1.518657    0.723394
     17          6           0        3.486637   -2.147384   -0.278384
     18          6           0        4.359474   -0.973615   -0.778131
     19          6           0       -3.498527    1.677844   -1.054950
     20          1           0       -4.892124    0.236252    0.868668
     21          1           0       -3.892654    1.477886    1.625369
     22          1           0       -3.476082   -0.220796    1.855098
     23          1           0       -0.936978    1.136015   -0.626523
     24          1           0       -1.540079    1.862203    0.868330
     25          1           0       -0.332816   -2.104815    1.020991
     26          1           0       -0.130831   -1.245591   -0.525137
     27          1           0       -2.751627   -2.121240    0.799094
     28          1           0       -2.054410   -2.745196   -0.698495
     29          1           0       -2.366393   -0.584441   -1.812012
     30          1           0       -4.196710   -1.974131   -1.947478
     31          1           0       -4.777497   -1.553135   -0.490405
     32          1           0        0.095431    1.180286    2.385064
     33          1           0        0.677871   -0.481674    2.398975
     34          1           0        0.849448    2.784010    0.675795
     35          1           0        2.620699    3.479913   -0.897497
     36          1           0        4.319506    1.822575   -1.678553
     37          1           0        1.752919   -2.029407    0.917303
     38          1           0        4.069974   -2.956709    0.169650
     39          1           0        2.902853   -2.563242   -1.115546
     40          1           0        4.664276   -1.097204   -1.821785
     41          1           0        5.273683   -0.890774   -0.174210
     42          1           0       -4.502399    1.428021   -1.406866
     43          1           0       -3.535452    2.643897   -0.536760
     44          1           0       -2.851452    1.791560   -1.933516
 ---------------------------------------------------------------------

 SCF Done:  E(UB3LYP) =  -789.301113589     A.U. after   33 cycles
 SCF Done:  E(UB3LYP) =  -789.301113589     a.u. after    1 cycles

 The electronic state is 2-A.
 Alpha  occ. eigenvalues --  -14.22545 -14.21042 -14.19738 -10.11286 -10.10833
 Alpha  occ. eigenvalues --  -10.10611 -10.10029 -10.09528 -10.09448 -10.08724
 Alpha  occ. eigenvalues --  -10.08638 -10.08318 -10.08194 -10.08184 -10.08103
 Alpha  occ. eigenvalues --  -10.07699 -10.06452 -10.06213 -10.06185  -0.85501
 Alpha  occ. eigenvalues --   -0.83756  -0.79477  -0.75173  -0.71274  -0.69380
 Alpha  occ. eigenvalues --   -0.66883  -0.64652  -0.63276  -0.60087  -0.59327
 Alpha  occ. eigenvalues --   -0.57993  -0.53097  -0.52274  -0.51040  -0.49654
 Alpha  occ. eigenvalues --   -0.48018  -0.44297  -0.43316  -0.39926  -0.39562
 Alpha  occ. eigenvalues --   -0.39203  -0.38130  -0.37170  -0.36989  -0.36453
 Alpha  occ. eigenvalues --   -0.34959  -0.34350  -0.33441  -0.32917  -0.31613
 Alpha  occ. eigenvalues --   -0.30935  -0.30382  -0.29996  -0.29081  -0.28847
 Alpha  occ. eigenvalues --   -0.28509  -0.27893  -0.27233  -0.26728  -0.26668
 Alpha  occ. eigenvalues --   -0.25937  -0.24918  -0.24813  -0.23159  -0.22722
 Alpha  occ. eigenvalues --   -0.21465  -0.20565  -0.15602  -0.14867  -0.12603
 Alpha  occ. eigenvalues --   -0.10959   0.04122
 Alpha virt. eigenvalues --    0.06093   0.06203   0.06877   0.07084   0.07686
 Alpha virt. eigenvalues --    0.07862   0.08678   0.08895   0.09201   0.09319
 Alpha virt. eigenvalues --    0.09940   0.10099   0.10512   0.10791   0.11497

  Beta  occ. eigenvalues --  -14.22526 -14.21039 -14.19711 -10.11284 -10.10801
  Beta  occ. eigenvalues --  -10.10604 -10.10021 -10.09502 -10.09442 -10.08709
  Beta  occ. eigenvalues --  -10.08638 -10.08312 -10.08191 -10.08177 -10.08096
  Beta  occ. eigenvalues --  -10.07699 -10.06424 -10.06197 -10.06178  -0.85476
  Beta  occ. eigenvalues --   -0.83740  -0.79438  -0.75157  -0.71254  -0.69356
  Beta  occ. eigenvalues --   -0.66844  -0.64627  -0.63241  -0.60067  -0.59304
  Beta  occ. eigenvalues --   -0.57955  -0.53058  -0.52219  -0.50985  -0.49638
  Beta  occ. eigenvalues --   -0.47977  -0.44264  -0.43282  -0.39890  -0.39528
  Beta  occ. eigenvalues --   -0.39167  -0.38109  -0.37140  -0.36971  -0.36425
  Beta  occ. eigenvalues --   -0.34930  -0.34325  -0.33416  -0.32892  -0.31591
  Beta  occ. eigenvalues --   -0.30895  -0.30345  -0.29969  -0.29052  -0.28817
  Beta  occ. eigenvalues --   -0.28484  -0.27867  -0.27193  -0.26703  -0.26642
  Beta  occ. eigenvalues --   -0.25917  -0.24888  -0.24794  -0.23141  -0.22696
  Beta  occ. eigenvalues --   -0.21439  -0.20536  -0.15572  -0.14837  -0.12579
  Beta  occ. eigenvalues --   -0.10924
  Beta virt. eigenvalues --    0.05983   0.06553   0.06843   0.07130   0.07467
  Beta virt. eigenvalues --    0.08100   0.08176   0.08952   0.09161   0.09423
  Beta virt. eigenvalues --    0.09433   0.10148   0.10397   0.10584   0.11050

 Mulliken charges and spin densities:
               1          2
     1  C    0.189274  -0.687710
     2  C    0.686502   0.169765
     3  C   -1.362250   0.273660
     4  N    0.253373   0.057625
     5  C    0.001067  -0.263850
     6  C    0.716456  -1.214339
     7  C   -0.580118  -0.210947
     8  N   -0.389291   0.133194
     9  C   -0.202565  -0.271291
    10  C   -0.017702   0.454219
    11  C   -0.069386  -0.084381
    12  C   -0.213011  -0.142165
    13  C   -0.426073  -0.141955
    14  C    0.121050   0.138155
    15  C   -0.234360   0.337332
    16  N   -0.049040   0.088049
    17  C    0.714137  -1.072698
    18  C    0.402985  -0.803159
    19  C   -0.085835  -0.475453
    20  H   -0.022330   0.158803
    21  H    0.028307   0.111690
    22  H    0.140791   0.000294
    23  H    0.160223   0.011943
    24  H    0.252752  -0.105357
    25  H   -0.465582   0.656534
    26  H    0.770723  -0.643559
    27  H    0.036795   0.118420
    28  H   -0.808700   0.999880
    29  H   -0.250816   0.484590
    30  H    0.012727   0.230122
    31  H    0.045685   0.174841
    32  H   -0.006243   0.185575
    33  H    0.048321   0.142326
    34  H    0.010708   0.128578
    35  H    0.025445   0.127233
    36  H   -0.072659   0.215549
    37  H    0.118919   0.132767
    38  H   -0.436559   0.615541
    39  H   -0.286488   0.446442
    40  H   -0.193694   0.359541
    41  H    0.165429  -0.010225
    42  H    0.181824   0.023972
    43  H   -0.006215   0.132564
    44  H    0.095423   0.017886
 Sum of Mulliken charges =  -1.00000   1.00000

 Dipole moment (field-independent basis, Debye):
    X=              0.5393    Y=              6.5999    Z=              2.2085  Tot=              6.9805
 Quadrupole moment (field-independent basis, Debye-Ang):
   XX=           -198.3235   YY=           -175.4471   ZZ=           -156.6713
   XY=              2.4856   XZ=             -3.0796   YZ=             -5.5950

 Summary of Natural Population Analysis:

                                       Natural Population
                Natural  -----------------------------------------------
    Atom  No    Charge         Core      Valence    Rydberg      Total
 -----------------------------------------------------------------------
      C    1   -0.29081      0.99962     2.28465    0.00654     3.29081
      C    2   -0.04690      0.99955     2.03450    0.01285     3.04690
      C    3   -0.08330      0.99956     2.07285    0.01089     3.08330
      N    4   -0.27895      0.99971     2.76784    0.01139     3.77895
      C    5   -0.08486      0.99960     2.07300    0.01226     3.08486
      C    6   -0.19868      0.99960     2.18756    0.01153     3.19868
      C    7   -0.00907      0.99953     1.99566    0.01388     3.00907
      N    8   -0.42317      0.99977     2.91308    0.01033     3.92317
      C    9   -0.08710      0.99958     2.07582    0.01170     3.08710
      C   10   -0.05042      0.99945     2.04267    0.00830     3.05042
      C   11   -0.09153      0.99953     2.08381    0.00819     3.09153
      C   12   -0.11994      0.99957     2.11031    0.01006     3.11994
      C   13   -0.09657      0.99951     2.08848    0.00858     3.09657
      C   14   -0.03042      0.99947     2.02101    0.00994     3.03042
      C   15    0.09320      0.99940     1.89602    0.01138     2.90680
      N   16   -0.31977      0.99969     2.81000    0.01009     3.81977
      C   17   -0.07943      0.99964     2.06929    0.01050     3.07943
      C   18   -0.19877      0.99961     2.19081    0.00835     3.19877
      C   19   -0.28481      0.99963     2.27914    0.00605     3.28481
      H   20    0.09885      0.00000     0.40021    0.00093     0.40115
      H   21    0.09762      0.00000     0.40150    0.00087     0.40238
      H   22    0.10700      0.00000     0.39159    0.00141     0.39300
      H   23    0.08914      0.00000     0.40922    0.00164     0.41086
      H   24    0.09536      0.00000     0.40348    0.00115     0.40464
      H   25    0.09407      0.00000     0.40399    0.00194     0.40593
      H   26    0.08266      0.00000     0.41473    0.00262     0.41734
      H   27    0.09577      0.00000     0.40236    0.00187     0.40423
      H   28    0.10450      0.00000     0.39305    0.00245     0.39550
      H   29    0.09179      0.00000     0.40633    0.00188     0.40821
      H   30    0.17749      0.00000     0.32076    0.00175     0.32251
      H   31    0.17140      0.00000     0.32680    0.00180     0.32860
      H   32    0.09739      0.00000     0.40162    0.00100     0.40261
      H   33    0.09967      0.00000     0.39905    0.00128     0.40033
      H   34    0.09729      0.00000     0.40113    0.00159     0.40271
      H   35    0.09794      0.00000     0.40128    0.00078     0.40206
      H   36    0.09902      0.00000     0.40016    0.00083     0.40098
      H   37    0.19036      0.00000     0.30556    0.00408     0.30964
      H   38    0.09538      0.00000     0.40299    0.00162     0.40462
      H   39    0.08831      0.00000     0.40922    0.00247     0.41169
      H   40    0.10708      0.00000     0.39173    0.00119     0.39292
      H   41    0.10000      0.00000     0.39891    0.00109     0.40000
      H   42    0.11031      0.00000     0.38868    0.00101     0.38969
      H   43    0.09427      0.00000     0.40491    0.00082     0.40573
      H   44    0.09863      0.00000     0.40052    0.00084     0.40137
 =======================================================================
   * Total *   -0.00000     18.99202    51.77627    0.23171    71.00000

 Normal termination of Gaussian 16 at Mon Dec 14 18:41:41 2020.
