 Gaussian 16, Revision A.03,

 -----------------------------------------------------------
 # opt freq B3LYP/6-31G(d) empiricaldispersion=gd3bj scf=xqc
 -----------------------------------------------------------

 -------------------------------
 CID_143458639_JID_4524_neutraal
 -------------------------------
 Symbolic Z-matrix:
 Charge =  0 Multiplicity = 1

 SCF Done:  E(RB3LYP) =  -576.422608010     A.U. after   14 cycles
 SCF Done:  E(RB3LYP) =  -576.428881346     A.U. after   12 cycles
 SCF Done:  E(RB3LYP) =  -576.429653418     A.U. after   12 cycles
 SCF Done:  E(RB3LYP) =  -576.429936600     A.U. after   12 cycles
 SCF Done:  E(RB3LYP) =  -576.430048922     A.U. after   12 cycles
 SCF Done:  E(RB3LYP) =  -576.430093727     A.U. after   11 cycles
 SCF Done:  E(RB3LYP) =  -576.430201540     A.U. after   12 cycles
 SCF Done:  E(RB3LYP) =  -576.430269839     A.U. after   12 cycles
 SCF Done:  E(RB3LYP) =  -576.430334324     A.U. after   13 cycles
 SCF Done:  E(RB3LYP) =  -576.430345438     A.U. after    8 cycles
 SCF Done:  E(RB3LYP) =  -576.430880620     A.U. after   10 cycles
 SCF Done:  E(RB3LYP) =  -576.430881286     A.U. after    9 cycles
 SCF Done:  E(RB3LYP) =  -576.430881290     A.U. after    9 cycles
 SCF Done:  E(RB3LYP) =  -576.430881362     A.U. after    9 cycles
 SCF Done:  E(RB3LYP) =  -576.430881397     A.U. after    7 cycles
 Optimization completed.
    -- Stationary point found.
 Normal termination of Gaussian 16 at Thu Dec 10 10:05:42 2020.

 --------------------------------------------------------------------
 #N Geom=AllCheck Guess=TCheck SCRF=Check GenChk RB3LYP/6-31G(d) Freq
 --------------------------------------------------------------------

 Structure from the checkpoint file:  "JID_4524.chk"
 -------------------------------
 CID_143458639_JID_4524_neutraal
 -------------------------------
 Charge =  0 Multiplicity = 1

 SCF Done:  E(RB3LYP) =  -576.430881397     A.U. after    1 cycles

  Exact polarizability: 184.821   4.812 116.104  10.213 -10.916 101.866
 Approx polarizability: 236.131   9.227 188.680  19.197 -25.263 166.585

                      1                      2                      3
                      A                      A                      A
 Frequencies --     24.3977                40.6232                51.7014
 Red. masses --      3.5584                 4.2069                 4.1877
 Frc consts  --      0.0012                 0.0041                 0.0066
 IR Inten    --      0.1115                 0.9160                 0.2559

                      4                      5                      6
                      A                      A                      A
 Frequencies --     85.9383               125.7379               184.4654
 Red. masses --      2.2087                 3.0045                 2.2754
 Frc consts  --      0.0096                 0.0280                 0.0456
 IR Inten    --      0.1098                 0.6577                 0.4477

                      7                      8                      9
                      A                      A                      A
 Frequencies --    219.6062               240.9590               255.8262
 Red. masses --      3.0951                 2.5220                 1.9449
 Frc consts  --      0.0879                 0.0863                 0.0750
 IR Inten    --      1.7268                 4.0582                 0.4628

                     10                     11                     12
                      A                      A                      A
 Frequencies --    271.3374               339.5909               393.0548
 Red. masses --      2.8371                 2.4669                 2.3932
 Frc consts  --      0.1231                 0.1676                 0.2178
 IR Inten    --      6.5273                 2.1378                 4.8617

                     13                     14                     15
                      A                      A                      A
 Frequencies --    417.3439               435.1524               475.9308
 Red. masses --      3.0102                 3.5599                 3.1474
 Frc consts  --      0.3089                 0.3972                 0.4200
 IR Inten    --      0.4183                 0.4105                 3.8129

                     16                     17                     18
                      A                      A                      A
 Frequencies --    585.3890               604.3135               637.0918
 Red. masses --      3.7901                 4.7661                 6.1912
 Frc consts  --      0.7652                 1.0255                 1.4806
 IR Inten    --      0.6969                11.8498                 0.3080

                     19                     20                     21
                      A                      A                      A
 Frequencies --    661.2032               711.1205               744.6547
 Red. masses --      3.1826                 2.3466                 1.6465
 Frc consts  --      0.8198                 0.6991                 0.5379
 IR Inten    --      9.5827                14.5691                26.8778

                     22                     23                     24
                      A                      A                      A
 Frequencies --    773.1180               813.2677               820.9226
 Red. masses --      1.9027                 1.5771                 1.3143
 Frc consts  --      0.6701                 0.6146                 0.5219
 IR Inten    --      7.0787                 4.2026                21.7194

                     25                     26                     27
                      A                      A                      A
 Frequencies --    831.9605               861.8017               869.2296
 Red. masses --      4.0839                 1.2521                 4.0885
 Frc consts  --      1.6654                 0.5479                 1.8200
 IR Inten    --     13.2354                 0.1654                41.0214

                     28                     29                     30
                      A                      A                      A
 Frequencies --    906.6868               918.9979               967.7756
 Red. masses --      2.6139                 1.3686                 1.3791
 Frc consts  --      1.2661                 0.6810                 0.7610
 IR Inten    --      7.5899                 6.3823                 0.3517

                     31                     32                     33
                      A                      A                      A
 Frequencies --    968.5825               989.1523               993.1182
 Red. masses --      1.8553                 1.3925                 1.3304
 Frc consts  --      1.0255                 0.8027                 0.7731
 IR Inten    --      3.7837                 9.2497                 3.3333

                     34                     35                     36
                      A                      A                      A
 Frequencies --   1002.5723              1022.8850              1039.3660
 Red. masses --      1.8437                 6.1436                 3.0971
 Frc consts  --      1.0919                 3.7873                 1.9713
 IR Inten    --      3.7293                 0.3990                 5.7196

                     37                     38                     39
                      A                      A                      A
 Frequencies --   1060.5306              1082.7145              1105.9283
 Red. masses --      2.1833                 2.2018                 2.4119
 Frc consts  --      1.4468                 1.5208                 1.7380
 IR Inten    --      4.0794                26.1969                21.4752

                     40                     41                     42
                      A                      A                      A
 Frequencies --   1113.9270              1143.3062              1172.0004
 Red. masses --      1.5947                 1.7901                 2.4410
 Frc consts  --      1.1659                 1.3786                 1.9755
 IR Inten    --      7.3721                 6.4722                 1.2058

                     43                     44                     45
                      A                      A                      A
 Frequencies --   1192.5856              1195.5760              1211.2675
 Red. masses --      1.0995                 1.5808                 1.1320
 Frc consts  --      0.9213                 1.3313                 0.9785
 IR Inten    --      0.3118                16.5609                 1.1371

                     46                     47                     48
                      A                      A                      A
 Frequencies --   1234.6564              1249.5432              1283.4861
 Red. masses --      2.3481                 2.1156                 1.3304
 Frc consts  --      2.1089                 1.9462                 1.2913
 IR Inten    --      3.2841                17.3410                10.7543

                     49                     50                     51
                      A                      A                      A
 Frequencies --   1287.9250              1303.1732              1313.2026
 Red. masses --      1.2582                 1.3281                 1.3996
 Frc consts  --      1.2297                 1.3289                 1.4220
 IR Inten    --      6.7110                 1.5869                18.2932

                     52                     53                     54
                      A                      A                      A
 Frequencies --   1351.9661              1366.1287              1368.6857
 Red. masses --      1.8786                 2.2805                 1.4115
 Frc consts  --      2.0231                 2.5076                 1.5579
 IR Inten    --      8.8107                 6.5071                 5.0521

                     55                     56                     57
                      A                      A                      A
 Frequencies --   1387.7442              1404.1491              1433.8851
 Red. masses --      1.4867                 1.6118                 1.5654
 Frc consts  --      1.6869                 1.8724                 1.8963
 IR Inten    --      4.2249                17.3360                22.2582

                     58                     59                     60
                      A                      A                      A
 Frequencies --   1444.0454              1504.4743              1518.1871
 Red. masses --      1.2434                 2.1271                 1.1110
 Frc consts  --      1.5276                 2.8367                 1.5087
 IR Inten    --      3.8500                11.5332                 2.2265

                     61                     62                     63
                      A                      A                      A
 Frequencies --   1519.9140              1531.3180              1532.8816
 Red. masses --      1.0651                 1.0466                 1.0938
 Frc consts  --      1.4497                 1.4459                 1.5143
 IR Inten    --      0.8322                 6.2377                 1.0169

                     64                     65                     66
                      A                      A                      A
 Frequencies --   1537.8197              1549.6991              1650.2496
 Red. masses --      1.0694                 2.2379                 5.6828
 Frc consts  --      1.4901                 3.1665                 9.1183
 IR Inten    --      4.4528                 8.8511                 1.0930

                     67                     68                     69
                      A                      A                      A
 Frequencies --   1670.8177              1671.3263              2953.7702
 Red. masses --      5.6568                 8.6389                 1.0730
 Frc consts  --      9.3041                14.2177                 5.5156
 IR Inten    --      5.2533                 6.6017                36.2656

                     70                     71                     72
                      A                      A                      A
 Frequencies --   2972.7909              2990.7117              3035.4725
 Red. masses --      1.0707                 1.0815                 1.0605
 Frc consts  --      5.5749                 5.6992                 5.7571
 IR Inten    --     70.3288                27.1145                31.4420

                     73                     74                     75
                      A                      A                      A
 Frequencies --   3049.2438              3050.1396              3069.4804
 Red. masses --      1.0362                 1.0901                 1.1030
 Frc consts  --      5.6766                 5.9751                 6.1228
 IR Inten    --     28.1638                22.0356                18.3308

                     76                     77                     78
                      A                      A                      A
 Frequencies --   3114.5644              3117.7851              3120.5790
 Red. masses --      1.1020                 1.0916                 1.1020
 Frc consts  --      6.2983                 6.2518                 6.3225
 IR Inten    --     31.4821                37.1268                43.4617

                     79                     80                     81
                      A                      A                      A
 Frequencies --   3174.1726              3182.5101              3193.0172
 Red. masses --      1.0858                 1.0871                 1.0916
 Frc consts  --      6.4457                 6.4875                 6.5570
 IR Inten    --      7.5224                 1.1766                32.9506

                     82                     83                     84
                      A                      A                      A
 Frequencies --   3205.2463              3214.2618              3220.7486
 Red. masses --      1.0953                 1.0947                 1.0932
 Frc consts  --      6.6299                 6.6636                 6.6811
 IR Inten    --     38.4295                 9.9187                 8.9793

 - Thermochemistry -
 -------------------
 Temperature   298.150 Kelvin.  Pressure   1.00000 Atm.
 Atom     1 has atomic number  6 and mass  12.00000

 Molecular mass:   188.13135 amu.
 Principal axes and moments of inertia in atomic units:
                           1         2         3
     Eigenvalues --   749.718586547.546456674.63753
           X            1.00000  -0.00054  -0.00011
           Y            0.00053   0.99945  -0.03323
           Z            0.00013   0.03323   0.99945
 This molecule is an asymmetric top.
 Rotational symmetry number  1.
 Warning -- assumption of classical behavior for rotation
           may cause significant error
 Rotational temperatures (Kelvin)      0.11553     0.01323     0.01298
 Rotational constants (GHZ):           2.40722     0.27564     0.27039
 Zero-point vibrational energy     683919.9 (Joules/Mol)
                                  163.46079 (Kcal/Mol)
 Warning -- explicit consideration of  17 degrees of freedom as
           vibrations may cause significant error
 Vibrational temperatures:     35.10    58.45    74.39   123.65   180.91
          (Kelvin)            265.40   315.96   346.69   368.08   390.39
                              488.60   565.52   600.46   626.09   684.76
                              842.24   869.47   916.63   951.32  1023.14
                             1071.39  1112.34  1170.11  1181.12  1197.01
                             1239.94  1250.63  1304.52  1322.23  1392.41
                             1393.57  1423.17  1428.88  1442.48  1471.70
                             1495.42  1525.87  1557.78  1591.18  1602.69
                             1644.96  1686.25  1715.86  1720.17  1742.74
                             1776.40  1797.81  1846.65  1853.04  1874.98
                             1889.41  1945.18  1965.55  1969.23  1996.65
                             2020.26  2063.04  2077.66  2164.60  2184.33
                             2186.82  2203.22  2205.47  2212.58  2229.67
                             2374.34  2403.93  2404.67  4249.82  4277.18
                             4302.97  4367.37  4387.18  4388.47  4416.30
                             4481.16  4485.80  4489.82  4566.93  4578.92
                             4594.04  4611.63  4624.61  4633.94

 Zero-point correction=                           0.260491 (Hartree/Particle)
 Thermal correction to Energy=                    0.273350
 Thermal correction to Enthalpy=                  0.274294
 Thermal correction to Gibbs Free Energy=         0.219380
 Sum of electronic and zero-point Energies=           -576.170390
 Sum of electronic and thermal Energies=              -576.157531
 Sum of electronic and thermal Enthalpies=            -576.156587
 Sum of electronic and thermal Free Energies=         -576.211501

                     E (Thermal)             CV                S
                      KCal/Mol        Cal/Mol-Kelvin    Cal/Mol-Kelvin
 Total                  171.530             49.258            115.577
 Electronic               0.000              0.000              0.000
 Translational            0.889              2.981             41.602
 Rotational               0.889              2.981             31.861
 Vibrational            169.752             43.296             42.114
 Vibration     1          0.593              1.985              6.240
 Vibration     2          0.594              1.981              5.228
 Vibration     3          0.596              1.977              4.751
 Vibration     4          0.601              1.959              3.750
 Vibration     5          0.611              1.927              3.010
 Vibration     6          0.631              1.861              2.283
 Vibration     7          0.647              1.811              1.962
 Vibration     8          0.658              1.778              1.796
 Vibration     9          0.666              1.753              1.690
 Vibration    10          0.675              1.726              1.588
 Vibration    11          0.720              1.596              1.214
 Vibration    12          0.760              1.485              0.989
 Vibration    13          0.780              1.433              0.901
 Vibration    14          0.796              1.394              0.842
 Vibration    15          0.833              1.303              0.721
 Vibration    16          0.942              1.063              0.475
 Vibration    17          0.963              1.023              0.442

 Optimization completed.
    -- Stationary point found.
 Normal termination of Gaussian 16 at Thu Dec 10 10:13:16 2020.

 ----------------------------------------------------------------------
 # B3LYP/6-311++G(d,p) empiricaldispersion=gd3bj scf=xqc pop=npa geom=c
 heck
 ----------------------------------------------------------------------

 ---------------------------------------
 CID_143458639_JID_4524_Energie_neutraal
 ---------------------------------------
 Structure from the checkpoint file:  "JID_4524.chk"
 Charge =  0 Multiplicity = 1

 SCF Done:  E(RB3LYP) =  -576.582917731     A.U. after   14 cycles
 Normal termination of Gaussian 16 at Thu Dec 10 10:16:43 2020.

 ----------------------------------------------------------------------
 # B3LYP/6-311++G(d,p) empiricaldispersion=gd3bj scf=xqc pop=npa geom=c
 heck
 ----------------------------------------------------------------------

 -------------------------------------
 CID_143458639_JID_4524_Energie_kation
 -------------------------------------
 Structure from the checkpoint file:  "JID_4524.chk"
 Charge =  1 Multiplicity = 2

 SCF Done:  E(UB3LYP) =  -576.297275995     A.U. after   26 cycles
 Normal termination of Gaussian 16 at Thu Dec 10 10:26:41 2020.
 Gaussian 16:  ES64L-G16RevA.03 25-Dec-2016

 ----------------------------------------------------------------------
 # B3LYP/6-311++G(d,p) empiricaldispersion=gd3bj scf=xqc pop=npa geom=c
 heck
 ----------------------------------------------------------------------

 ------------------------------------
 CID_143458639_JID_4524_Energie_anion
 ------------------------------------
 Structure from the checkpoint file:  "JID_4524.chk"
 Charge = -1 Multiplicity = 2

                         Standard orientation:
 ---------------------------------------------------------------------
 Center     Atomic      Atomic             Coordinates (Angstroms)
 Number     Number       Type             X           Y           Z
 ---------------------------------------------------------------------
      1          6           0       -5.168845    0.605347    0.555017
      2          6           0       -4.157425   -0.409480    0.015808
      3          6           0       -2.812357    0.218891   -0.367171
      4          6           0       -1.785252   -0.765531   -0.954119
      5          7           0       -0.499483   -0.205908   -0.497129
      6          7           0       -0.728942    0.496701    0.691465
      7          6           0       -1.980933    0.758262    0.780015
      8          6           0        0.604431   -1.150971   -0.393089
      9          6           0        1.937275   -0.478810   -0.151903
     10          6           0        2.273333    0.702350   -0.822433
     11          6           0        3.522851    1.289345   -0.635555
     12          6           0        4.455682    0.701241    0.221969
     13          6           0        4.126284   -0.474401    0.895491
     14          6           0        2.871416   -1.056997    0.710452
     15          1           0       -4.806583    1.087043    1.470162
     16          1           0       -6.123224    0.122928    0.791285
     17          1           0       -5.365491    1.394859   -0.180136
     18          1           0       -3.981760   -1.196077    0.761373
     19          1           0       -4.577718   -0.907961   -0.868032
     20          1           0       -2.997340    1.037275   -1.082749
     21          1           0       -1.811514   -0.841018   -2.044028
     22          1           0       -1.942634   -1.772821   -0.525731
     23          1           0       -2.350107    1.369179    1.597160
     24          1           0        0.413345   -1.904864    0.390458
     25          1           0        0.631681   -1.689767   -1.349745
     26          1           0        1.538235    1.162593   -1.475033
     27          1           0        3.769773    2.209687   -1.158142
     28          1           0        5.429457    1.160568    0.368093
     29          1           0        4.841128   -0.934917    1.572060
     30          1           0        2.612975   -1.967738    1.245760
 ---------------------------------------------------------------------

 SCF Done:  E(UB3LYP) =  -576.567572922     A.U. after   33 cycles
 SCF Done:  E(UB3LYP) =  -576.567572922     a.u. after    1 cycles

 The electronic state is 2-A.
 Alpha  occ. eigenvalues --  -14.24726 -14.23895 -10.11241 -10.10513 -10.10149
 Alpha  occ. eigenvalues --  -10.09095 -10.08960 -10.08525 -10.08479 -10.08356
 Alpha  occ. eigenvalues --  -10.08327 -10.07893 -10.07515 -10.06430  -0.92020
 Alpha  occ. eigenvalues --   -0.77250  -0.74257  -0.71030  -0.67240  -0.65633
 Alpha  occ. eigenvalues --   -0.63747  -0.58489  -0.53736  -0.51792  -0.50375
 Alpha  occ. eigenvalues --   -0.49678  -0.45859  -0.42223  -0.41122  -0.40054
 Alpha  occ. eigenvalues --   -0.37450  -0.36733  -0.35170  -0.33980  -0.33318
 Alpha  occ. eigenvalues --   -0.32648  -0.32173  -0.31413  -0.29760  -0.28382
 Alpha  occ. eigenvalues --   -0.27302  -0.26301  -0.25998  -0.25529  -0.24751
 Alpha  occ. eigenvalues --   -0.23957  -0.23807  -0.18624  -0.16534  -0.15635
 Alpha  occ. eigenvalues --   -0.12315   0.04326
 Alpha virt. eigenvalues --    0.05527   0.06672   0.07011   0.07377   0.07542
 Alpha virt. eigenvalues --    0.07931   0.08012   0.08665   0.09023   0.09696
 Alpha virt. eigenvalues --    0.09842   0.10558   0.11361   0.11763   0.12602

  Beta  occ. eigenvalues --  -14.24713 -14.23862 -10.11231 -10.10493 -10.10149
  Beta  occ. eigenvalues --  -10.09087 -10.08950 -10.08513 -10.08474 -10.08340
  Beta  occ. eigenvalues --  -10.08323 -10.07885 -10.07488 -10.06389  -0.91982
  Beta  occ. eigenvalues --   -0.77228  -0.74231  -0.70986  -0.67207  -0.65613
  Beta  occ. eigenvalues --   -0.63699  -0.58455  -0.53666  -0.51764  -0.50343
  Beta  occ. eigenvalues --   -0.49606  -0.45823  -0.42184  -0.41073  -0.40014
  Beta  occ. eigenvalues --   -0.37424  -0.36702  -0.35132  -0.33934  -0.33293
  Beta  occ. eigenvalues --   -0.32616  -0.32142  -0.31371  -0.29710  -0.28346
  Beta  occ. eigenvalues --   -0.27257  -0.26241  -0.25960  -0.25500  -0.24708
  Beta  occ. eigenvalues --   -0.23918  -0.23736  -0.18583  -0.16515  -0.15590
  Beta  occ. eigenvalues --   -0.12250
  Beta virt. eigenvalues --    0.06099   0.06773   0.07100   0.07350   0.07430
  Beta virt. eigenvalues --    0.07890   0.08345   0.08500   0.09002   0.09459
  Beta virt. eigenvalues --    0.10023   0.10225   0.11082   0.11799   0.12124

 Mulliken charges and spin densities:
               1          2
     1  C    1.239950  -1.858281
     2  C   -0.832873   0.631898
     3  C    0.168069   0.409550
     4  C    0.386992  -1.072747
     5  N    0.449250   0.030902
     6  N   -0.475498   0.189950
     7  C    0.427007  -0.890418
     8  C    1.325026  -1.876171
     9  C    0.022350   0.888016
    10  C   -0.769375   0.794145
    11  C   -0.108710  -0.351696
    12  C    0.381583  -0.678663
    13  C    0.236738  -0.584829
    14  C   -0.978563   0.399576
    15  H   -0.075649   0.197779
    16  H   -0.571568   0.718517
    17  H   -0.293048   0.439640
    18  H   -0.131862   0.255658
    19  H   -0.362533   0.520670
    20  H   -0.039127   0.222822
    21  H   -0.428992   0.608778
    22  H    0.048957   0.087510
    23  H    0.113705   0.065991
    24  H    0.082915   0.082929
    25  H   -0.068990   0.243050
    26  H    0.016154   0.153403
    27  H   -0.079727   0.241614
    28  H   -0.300177   0.446427
    29  H   -0.305320   0.467619
    30  H   -0.076686   0.216359
 Sum of Mulliken charges =  -1.00000   1.00000

 Dipole moment (field-independent basis, Debye):
    X=              4.8074    Y=             -0.1029    Z=              0.9265  Tot=              4.8970
 Quadrupole moment (field-independent basis, Debye-Ang):
   XX=           -211.1317   YY=           -114.0814   ZZ=           -121.1168
   XY=             -2.4526   XZ=             -8.1972   YZ=             -2.5866

 Summary of Natural Population Analysis:

                                       Natural Population
                Natural  -----------------------------------------------
    Atom  No    Charge         Core      Valence    Rydberg      Total
 -----------------------------------------------------------------------
      C    1   -0.28496      0.99967     2.27981    0.00548     3.28496
      C    2   -0.18662      0.99962     2.17800    0.00899     3.18662
      C    3   -0.14399      0.99959     2.13302    0.01138     3.14399
      C    4   -0.08419      0.99961     2.07339    0.01119     3.08419
      N    5   -0.17947      0.99970     2.66598    0.01379     3.67947
      N    6   -0.12146      0.99969     2.61042    0.01135     3.62146
      C    7    0.02558      0.99963     1.95977    0.01503     2.97442
      C    8   -0.08856      0.99957     2.07634    0.01265     3.08856
      C    9   -0.02432      0.99954     2.01167    0.01311     3.02432
      C   10   -0.09334      0.99951     2.08506    0.00877     3.09334
      C   11   -0.09943      0.99956     2.09033    0.00954     3.09943
      C   12   -0.10739      0.99956     2.09706    0.01076     3.10739
      C   13   -0.11078      0.99960     2.09699    0.01420     3.11078
      C   14   -0.07479      0.99951     2.07030    0.00498     3.07479
      H   15    0.09408      0.00000     0.40477    0.00116     0.40592
      H   16    0.10258      0.00000     0.39599    0.00143     0.39742
      H   17    0.09831      0.00000     0.40027    0.00141     0.40169
      H   18    0.09476      0.00000     0.40358    0.00166     0.40524
      H   19    0.10113      0.00000     0.39665    0.00221     0.39887
      H   20    0.10476      0.00000     0.39352    0.00171     0.39524
      H   21    0.10439      0.00000     0.39352    0.00209     0.39561
      H   22    0.08404      0.00000     0.41431    0.00166     0.41596
      H   23    0.09559      0.00000     0.40328    0.00112     0.40441
      H   24    0.08812      0.00000     0.41028    0.00160     0.41188
      H   25    0.10332      0.00000     0.39533    0.00135     0.39668
      H   26    0.10708      0.00000     0.39108    0.00184     0.39292
      H   27    0.09933      0.00000     0.39984    0.00084     0.40067
      H   28    0.10021      0.00000     0.39870    0.00108     0.39979
      H   29    0.10020      0.00000     0.39869    0.00111     0.39980
      H   30    0.09587      0.00000     0.40270    0.00144     0.40413
 =======================================================================
   * Total *    0.00003     13.99438    36.83064    0.17495    50.99997

 Normal termination of Gaussian 16 at Thu Dec 10 10:39:28 2020.
