 Gaussian 16, Revision A.03,

 -----------------------------------------------------------
 # opt freq B3LYP/6-31G(d) empiricaldispersion=gd3bj scf=xqc
 -----------------------------------------------------------

 --------------------------------
 CID_114963404_JID_10307_neutraal
 --------------------------------
 Symbolic Z-matrix:
 Charge =  0 Multiplicity = 1

 SCF Done:  E(RB3LYP) =  -811.344858855     A.U. after   14 cycles
 SCF Done:  E(RB3LYP) =  -811.340606610     A.U. after   14 cycles
 SCF Done:  E(RB3LYP) =  -811.347714907     A.U. after   12 cycles
 SCF Done:  E(RB3LYP) =  -811.350338455     A.U. after   12 cycles
 SCF Done:  E(RB3LYP) =  -811.352039830     A.U. after   12 cycles
 SCF Done:  E(RB3LYP) =  -811.353491468     A.U. after   15 cycles
 SCF Done:  E(RB3LYP) =  -811.354102203     A.U. after   13 cycles
 SCF Done:  E(RB3LYP) =  -811.354348185     A.U. after   12 cycles
 SCF Done:  E(RB3LYP) =  -811.354920323     A.U. after   12 cycles
 SCF Done:  E(RB3LYP) =  -811.355047327     A.U. after   11 cycles
 SCF Done:  E(RB3LYP) =  -811.356237058     A.U. after   10 cycles
 SCF Done:  E(RB3LYP) =  -811.356248501     A.U. after   10 cycles
 SCF Done:  E(RB3LYP) =  -811.356251842     A.U. after    9 cycles
 SCF Done:  E(RB3LYP) =  -811.356252580     A.U. after    8 cycles
 SCF Done:  E(RB3LYP) =  -811.356252655     A.U. after    7 cycles
 Optimization completed.
    -- Stationary point found.
 Normal termination of Gaussian 16 at Sat Dec 12 16:14:48 2020.

 --------------------------------------------------------------------
 #N Geom=AllCheck Guess=TCheck SCRF=Check GenChk RB3LYP/6-31G(d) Freq
 --------------------------------------------------------------------

 Structure from the checkpoint file:  "JID_10307.chk"
 --------------------------------
 CID_114963404_JID_10307_neutraal
 --------------------------------
 Charge =  0 Multiplicity = 1

 SCF Done:  E(RB3LYP) =  -811.356252655     A.U. after    1 cycles

  Exact polarizability: 228.101  21.399 141.838   5.517 -25.782 168.150
 Approx polarizability: 348.152  38.724 212.431  21.789 -63.797 314.991

                      1                      2                      3
                      A                      A                      A
 Frequencies --     25.8735                41.2325                52.9243
 Red. masses --      4.1424                 2.4310                 4.5429
 Frc consts  --      0.0016                 0.0024                 0.0075
 IR Inten    --      0.3261                 0.1146                 0.4962

                      4                      5                      6
                      A                      A                      A
 Frequencies --     63.5736                77.0082                84.0336
 Red. masses --      4.9592                 5.1981                 4.5637
 Frc consts  --      0.0118                 0.0182                 0.0190
 IR Inten    --      1.4394                 2.4100                 0.2999

                      7                      8                      9
                      A                      A                      A
 Frequencies --     97.4348               127.4650               157.1348
 Red. masses --      5.3034                 4.4535                 3.5785
 Frc consts  --      0.0297                 0.0426                 0.0521
 IR Inten    --      2.1469                 1.8189                 2.4225

                     10                     11                     12
                      A                      A                      A
 Frequencies --    186.6109               208.4965               233.5092
 Red. masses --      4.9641                 3.4796                 1.6048
 Frc consts  --      0.1019                 0.0891                 0.0516
 IR Inten    --      0.7294                 0.1952                 0.0407

                     13                     14                     15
                      A                      A                      A
 Frequencies --    261.7930               292.5735               326.5538
 Red. masses --      2.3661                 1.9409                 4.7058
 Frc consts  --      0.0955                 0.0979                 0.2957
 IR Inten    --      0.2726                 1.9944                 1.4568

                     16                     17                     18
                      A                      A                      A
 Frequencies --    379.7989               391.4086               416.3595
 Red. masses --      2.5490                 3.5635                 3.0051
 Frc consts  --      0.2166                 0.3217                 0.3069
 IR Inten    --      0.7157                 0.1888                 0.2116

                     19                     20                     21
                      A                      A                      A
 Frequencies --    420.1342               441.7854               449.5436
 Red. masses --      3.0426                 3.9624                 2.7125
 Frc consts  --      0.3164                 0.4556                 0.3230
 IR Inten    --      0.0199                 0.2049                 1.2322

                     22                     23                     24
                      A                      A                      A
 Frequencies --    469.6014               486.2525               527.2666
 Red. masses --      3.2489                 3.2085                 4.7598
 Frc consts  --      0.4221                 0.4470                 0.7796
 IR Inten    --      6.4776                 1.2615                 9.6696

                     25                     26                     27
                      A                      A                      A
 Frequencies --    565.1172               605.6085               633.5636
 Red. masses --      2.9966                 3.2729                 5.4787
 Frc consts  --      0.5638                 0.7072                 1.2957
 IR Inten    --     24.8925                 2.4853                 0.7424

                     28                     29                     30
                      A                      A                      A
 Frequencies --    642.3318               660.8563               711.9736
 Red. masses --      4.8482                 5.9790                 1.9482
 Frc consts  --      1.1785                 1.5385                 0.5819
 IR Inten    --      0.3456                 0.6132                27.9372

                     31                     32                     33
                      A                      A                      A
 Frequencies --    730.8827               741.1320               751.0947
 Red. masses --      3.4581                 2.8914                 3.0353
 Frc consts  --      1.0884                 0.9357                 1.0089
 IR Inten    --      1.0669                13.4664                 1.6201

                     34                     35                     36
                      A                      A                      A
 Frequencies --    784.0597               799.5179               814.4790
 Red. masses --      1.9152                 1.1639                 2.4233
 Frc consts  --      0.6937                 0.4383                 0.9472
 IR Inten    --     35.9149                 0.8484                11.3869

                     37                     38                     39
                      A                      A                      A
 Frequencies --    834.5630               851.1971               855.3899
 Red. masses --      2.1964                 1.2161                 1.2872
 Frc consts  --      0.9013                 0.5191                 0.5549
 IR Inten    --      9.6560                 1.8172                 0.9262

                     40                     41                     42
                      A                      A                      A
 Frequencies --    861.0768               869.9018               917.9360
 Red. masses --      1.2680                 2.3784                 2.7165
 Frc consts  --      0.5539                 1.0604                 1.3486
 IR Inten    --      3.0231                 4.1490                 8.3087

                     43                     44                     45
                      A                      A                      A
 Frequencies --    931.0292               951.5063               962.1071
 Red. masses --      1.7898                 1.3891                 1.9537
 Frc consts  --      0.9141                 0.7410                 1.0655
 IR Inten    --      3.2178                 0.2906                 5.8846

                     46                     47                     48
                      A                      A                      A
 Frequencies --    968.8929               971.7463               977.5066
 Red. masses --      1.5050                 1.8060                 1.8155
 Frc consts  --      0.8324                 1.0048                 1.0221
 IR Inten    --      0.8565                 5.7807                 0.3968

                     49                     50                     51
                      A                      A                      A
 Frequencies --    985.8832               993.0455              1023.7357
 Red. masses --      2.3331                 1.2435                 6.0401
 Frc consts  --      1.3361                 0.7225                 3.7296
 IR Inten    --      2.3165                 0.2616                 0.6014

                     52                     53                     54
                      A                      A                      A
 Frequencies --   1045.8550              1060.0301              1061.5756
 Red. masses --      2.8688                 2.0565                 2.1120
 Frc consts  --      1.8488                 1.3615                 1.4023
 IR Inten    --      5.2154                 9.3764                14.6508

                     55                     56                     57
                      A                      A                      A
 Frequencies --   1082.3427              1091.3746              1095.6414
 Red. masses --      1.5106                 1.4691                 1.8726
 Frc consts  --      1.0427                 1.0310                 1.3244
 IR Inten    --      2.5509                 5.2807                 7.7763

                     58                     59                     60
                      A                      A                      A
 Frequencies --   1097.6150              1118.5013              1134.0183
 Red. masses --      1.5069                 1.5392                 1.1743
 Frc consts  --      1.0696                 1.1345                 0.8897
 IR Inten    --     24.7207                 2.2228                 1.1602

                     61                     62                     63
                      A                      A                      A
 Frequencies --   1151.7086              1173.0548              1193.6002
 Red. masses --      1.3300                 1.3263                 1.0964
 Frc consts  --      1.0394                 1.0753                 0.9203
 IR Inten    --      2.4572                21.7014                 0.0692

                     64                     65                     66
                      A                      A                      A
 Frequencies --   1201.2861              1215.7243              1220.0376
 Red. masses --      2.2612                 1.1344                 1.3594
 Frc consts  --      1.9226                 0.9879                 1.1922
 IR Inten    --      1.6796                 0.7669                 0.9525

                     67                     68                     69
                      A                      A                      A
 Frequencies --   1226.4944              1241.4293              1256.6425
 Red. masses --      2.2344                 2.3917                 1.6177
 Frc consts  --      1.9803                 2.1717                 1.5051
 IR Inten    --      3.5943                 1.0480                23.1802

                     70                     71                     72
                      A                      A                      A
 Frequencies --   1280.2973              1290.2788              1318.2108
 Red. masses --      1.4177                 1.3680                 1.7622
 Frc consts  --      1.3692                 1.3419                 1.8042
 IR Inten    --     23.0730                 0.2603                28.7915

                     73                     74                     75
                      A                      A                      A
 Frequencies --   1344.7488              1367.3773              1369.3225
 Red. masses --      2.7057                 1.3364                 1.9466
 Frc consts  --      2.8828                 1.4722                 2.1505
 IR Inten    --      0.6788                 5.8587                 0.5335

                     76                     77                     78
                      A                      A                      A
 Frequencies --   1371.6942              1378.2085              1393.2323
 Red. masses --      2.7853                 1.6174                 1.7614
 Frc consts  --      3.0877                 1.8101                 2.0144
 IR Inten    --      2.9355                 2.6797                19.8376

                     79                     80                     81
                      A                      A                      A
 Frequencies --   1421.4516              1433.8978              1470.8181
 Red. masses --      2.1210                 1.2216                 2.5707
 Frc consts  --      2.5250                 1.4799                 3.2766
 IR Inten    --      7.2404                 0.4814                 5.2914

                     82                     83                     84
                      A                      A                      A
 Frequencies --   1496.4084              1504.0875              1514.6526
 Red. masses --      2.2106                 1.1018                 1.3082
 Frc consts  --      2.9165                 1.4685                 1.7683
 IR Inten    --      5.4855                 7.0326                 4.4496

                     85                     86                     87
                      A                      A                      A
 Frequencies --   1517.3835              1525.5026              1538.0785
 Red. masses --      1.0673                 1.0419                 1.0828
 Frc consts  --      1.4479                 1.4286                 1.5092
 IR Inten    --      2.4049                 7.6834                 6.1978

                     88                     89                     90
                      A                      A                      A
 Frequencies --   1552.4434              1565.3362              1634.4377
 Red. masses --      2.3445                 2.4313                 6.2050
 Frc consts  --      3.3291                 3.5100                 9.7663
 IR Inten    --      8.4243                23.2049                 0.6377

                     91                     92                     93
                      A                      A                      A
 Frequencies --   1643.6932              1669.7520              1675.6691
 Red. masses --      5.5721                 5.6052                 5.7936
 Frc consts  --      8.8697                 9.2076                 9.5846
 IR Inten    --      1.1222                 4.2872                 0.5322

                     94                     95                     96
                      A                      A                      A
 Frequencies --   1785.3593              3043.3707              3050.4648
 Red. masses --     11.3652                 1.0603                 1.0349
 Frc consts  --     21.3441                 5.7860                 5.6741
 IR Inten    --    136.5730                35.9077                31.6842

                     97                     98                     99
                      A                      A                      A
 Frequencies --   3062.9632              3078.2770              3113.8380
 Red. masses --      1.0584                 1.1033                 1.1052
 Frc consts  --      5.8505                 6.1594                 6.3139
 IR Inten    --     16.1689                11.7291                 9.1240

                    100                    101                    102
                      A                      A                      A
 Frequencies --   3117.6948              3130.0447              3134.4412
 Red. masses --      1.1028                 1.1024                 1.0867
 Frc consts  --      6.3156                 6.3636                 6.2903
 IR Inten    --     59.6216                32.9549                12.7353

                    103                    104                    105
                      A                      A                      A
 Frequencies --   3153.7578              3164.5243              3167.2396
 Red. masses --      1.0551                 1.0883                 1.0865
 Frc consts  --      6.1830                 6.4214                 6.4214
 IR Inten    --     12.0590                 9.4575                13.1921

                    106                    107                    108
                      A                      A                      A
 Frequencies --   3180.3618              3181.7175              3185.4321
 Red. masses --      1.0854                 1.0887                 1.0938
 Frc consts  --      6.4684                 6.4936                 6.5392
 IR Inten    --      4.1385                15.2643                17.8985

                    109                    110                    111
                      A                      A                      A
 Frequencies --   3193.0202              3196.9345              3211.1102
 Red. masses --      1.0877                 1.0919                 1.0940
 Frc consts  --      6.5338                 6.5750                 6.6461
 IR Inten    --      0.2901                28.9542                13.6122

                    112                    113                    114
                      A                      A                      A
 Frequencies --   3211.8801              3218.3239              3236.2542
 Red. masses --      1.0930                 1.0960                 1.1168
 Frc consts  --      6.6436                 6.6886                 6.8914
 IR Inten    --      4.7187                13.0156                10.5498

 - Thermochemistry -
 -------------------
 Temperature   298.150 Kelvin.  Pressure   1.00000 Atm.
 Atom     1 has atomic number  6 and mass  12.00000

 Molecular mass:   264.15142 amu.
 Principal axes and moments of inertia in atomic units:
                           1         2         3
     Eigenvalues --  3441.244285839.471067218.94677
           X            0.99989   0.01296  -0.00707
           Y           -0.01314   0.99959  -0.02557
           Z            0.00673   0.02566   0.99965
 This molecule is an asymmetric top.
 Rotational symmetry number  1.
 Warning -- assumption of classical behavior for rotation
           may cause significant error
 Rotational temperatures (Kelvin)      0.02517     0.01483     0.01200
 Rotational constants (GHZ):           0.52444     0.30906     0.25000
 Zero-point vibrational energy     893463.5 (Joules/Mol)
                                  213.54289 (Kcal/Mol)
 Warning -- explicit consideration of  26 degrees of freedom as
           vibrations may cause significant error
 Vibrational temperatures:     37.23    59.32    76.15    91.47   110.80
          (Kelvin)            120.91   140.19   183.39   226.08   268.49
                              299.98   335.97   376.66   420.95   469.84
                              546.45   563.15   599.05   604.48   635.63
                              646.79   675.65   699.61   758.62   813.08
                              871.34   911.56   924.17   950.82  1024.37
                             1051.58  1066.32  1080.66  1128.09  1150.33
                             1171.85  1200.75  1224.68  1230.72  1238.90
                             1251.59  1320.71  1339.54  1369.01  1384.26
                             1394.02  1398.13  1406.41  1418.47  1428.77
                             1472.93  1504.75  1525.15  1527.37  1557.25
                             1570.24  1576.38  1579.22  1609.27  1631.60
                             1657.05  1687.76  1717.32  1728.38  1749.16
                             1755.36  1764.65  1786.14  1808.03  1842.06
                             1856.42  1896.61  1934.79  1967.35  1970.15
                             1973.56  1982.93  2004.55  2045.15  2063.06
                             2116.18  2153.00  2164.05  2179.25  2183.18
                             2194.86  2212.95  2233.62  2252.17  2351.59
                             2364.91  2402.40  2410.91  2568.73  4378.73
                             4388.94  4406.92  4428.95  4480.12  4485.67
                             4503.44  4509.76  4537.55  4553.04  4556.95
                             4575.83  4577.78  4583.13  4594.04  4599.68
                             4620.07  4621.18  4630.45  4656.25

 Zero-point correction=                           0.340302 (Hartree/Particle)
 Thermal correction to Energy=                    0.358146
 Thermal correction to Enthalpy=                  0.359090
 Thermal correction to Gibbs Free Energy=         0.293428
 Sum of electronic and zero-point Energies=           -811.015950
 Sum of electronic and thermal Energies=              -810.998107
 Sum of electronic and thermal Enthalpies=            -810.997162
 Sum of electronic and thermal Free Energies=         -811.062825

                     E (Thermal)             CV                S
                      KCal/Mol        Cal/Mol-Kelvin    Cal/Mol-Kelvin
 Total                  224.740             70.021            138.198
 Electronic               0.000              0.000              0.000
 Translational            0.889              2.981             42.613
 Rotational               0.889              2.981             33.339
 Vibrational            222.963             64.060             62.246
 Vibration     1          0.593              1.985              6.123
 Vibration     2          0.594              1.981              5.199
 Vibration     3          0.596              1.976              4.705
 Vibration     4          0.597              1.972              4.343
 Vibration     5          0.599              1.964              3.966
 Vibration     6          0.601              1.960              3.794
 Vibration     7          0.603              1.951              3.505
 Vibration     8          0.611              1.926              2.984
 Vibration     9          0.621              1.895              2.584
 Vibration    10          0.632              1.858              2.261
 Vibration    11          0.642              1.828              2.057
 Vibration    12          0.654              1.790              1.852
 Vibration    13          0.669              1.743              1.650
 Vibration    14          0.688              1.688              1.459
 Vibration    15          0.710              1.622              1.277
 Vibration    16          0.750              1.513              1.040
 Vibration    17          0.759              1.489              0.995
 Vibration    18          0.780              1.435              0.904
 Vibration    19          0.783              1.426              0.892
 Vibration    20          0.802              1.379              0.821
 Vibration    21          0.808              1.362              0.797
 Vibration    22          0.827              1.317              0.739
 Vibration    23          0.842              1.281              0.693
 Vibration    24          0.882              1.190              0.593
 Vibration    25          0.921              1.107              0.514
 Vibration    26          0.964              1.020              0.440

 Optimization completed.
    -- Stationary point found.
 Normal termination of Gaussian 16 at Sat Dec 12 16:43:13 2020.

 ----------------------------------------------------------------------
 # B3LYP/6-311++G(d,p) empiricaldispersion=gd3bj scf=xqc pop=npa geom=c
 heck
 ----------------------------------------------------------------------

 ----------------------------------------
 CID_114963404_JID_10307_Energie_neutraal
 ----------------------------------------
 Structure from the checkpoint file:  "JID_10307.chk"
 Charge =  0 Multiplicity = 1

 SCF Done:  E(RB3LYP) =  -811.566180768     A.U. after   15 cycles
 Normal termination of Gaussian 16 at Sat Dec 12 16:55:30 2020.

 ----------------------------------------------------------------------
 # B3LYP/6-311++G(d,p) empiricaldispersion=gd3bj scf=xqc pop=npa geom=c
 heck
 ----------------------------------------------------------------------

 --------------------------------------
 CID_114963404_JID_10307_Energie_kation
 --------------------------------------
 Structure from the checkpoint file:  "JID_10307.chk"
 Charge =  1 Multiplicity = 2

 SCF Done:  E(UB3LYP) =  -811.276461999     A.U. after   24 cycles
 Normal termination of Gaussian 16 at Sat Dec 12 17:23:37 2020.
 Gaussian 16:  ES64L-G16RevA.03 25-Dec-2016

 ----------------------------------------------------------------------
 # B3LYP/6-311++G(d,p) empiricaldispersion=gd3bj scf=xqc pop=npa geom=c
 heck
 ----------------------------------------------------------------------

 -------------------------------------
 CID_114963404_JID_10307_Energie_anion
 -------------------------------------
 Structure from the checkpoint file:  "JID_10307.chk"
 Charge = -1 Multiplicity = 2

                         Standard orientation:
 ---------------------------------------------------------------------
 Center     Atomic      Atomic             Coordinates (Angstroms)
 Number     Number       Type             X           Y           Z
 ---------------------------------------------------------------------
      1          6           0        4.295430    0.562807    0.482682
      2          6           0        4.001257   -0.828020   -0.099955
      3          6           0        2.524801   -1.148687   -0.163771
      4          6           0        1.736845   -0.701728   -1.232656
      5          6           0        0.382781   -1.009618   -1.309485
      6          6           0       -0.228771   -1.778816   -0.312198
      7          6           0        0.543479   -2.199072    0.773550
      8          6           0        1.902071   -1.889427    0.844599
      9          6           0       -1.685366   -2.189317   -0.443038
     10          6           0       -2.622162   -1.002876   -0.653760
     11          8           0       -2.933530   -0.647144   -1.777714
     12          6           0       -3.197819   -0.292583    0.542749
     13          6           0       -2.565331   -0.312621    1.910470
     14          6           0       -2.537071    0.960127    1.106793
     15          6           0       -1.271114    1.514812    0.534383
     16          6           0       -0.098647    1.567040    1.293561
     17          6           0        1.056285    2.150644    0.775652
     18          6           0        1.053552    2.683693   -0.513235
     19          6           0       -0.109287    2.625719   -1.283405
     20          6           0       -1.264860    2.046949   -0.762031
     21          1           0        3.822740    1.344712   -0.120184
     22          1           0        5.373727    0.756186    0.512225
     23          1           0        3.904551    0.646905    1.502702
     24          1           0        4.430746   -0.891052   -1.107858
     25          1           0        4.512704   -1.587628    0.503847
     26          1           0        2.194315   -0.108848   -2.020740
     27          1           0       -0.209569   -0.658941   -2.148764
     28          1           0        0.086059   -2.798221    1.557814
     29          1           0        2.490163   -2.245519    1.687559
     30          1           0       -1.806484   -2.835358   -1.319473
     31          1           0       -1.991159   -2.751255    0.445114
     32          1           0       -4.282774   -0.239391    0.484104
     33          1           0       -3.212877   -0.371581    2.780447
     34          1           0       -1.623538   -0.843657    2.012290
     35          1           0       -3.253285    1.723777    1.408281
     36          1           0       -0.094282    1.147959    2.295536
     37          1           0        1.958344    2.185928    1.377678
     38          1           0        1.954322    3.137821   -0.917425
     39          1           0       -0.116313    3.029584   -2.292155
     40          1           0       -2.165580    1.981580   -1.364714
 ---------------------------------------------------------------------

 SCF Done:  E(UB3LYP) =  -811.562189998     A.U. after   33 cycles
 SCF Done:  E(UB3LYP) =  -811.562189998     a.u. after    1 cycles

 The electronic state is 2-A.
 Alpha  occ. eigenvalues --  -18.97333 -10.11769 -10.07705 -10.07567 -10.07419
 Alpha  occ. eigenvalues --  -10.07212 -10.07148 -10.07077 -10.07026 -10.06926
 Alpha  occ. eigenvalues --  -10.06838 -10.06731 -10.06713 -10.06610 -10.06560
 Alpha  occ. eigenvalues --  -10.06546 -10.06338 -10.06165 -10.06129 -10.05866
 Alpha  occ. eigenvalues --   -0.90982  -0.76974  -0.75340  -0.74239  -0.69419
 Alpha  occ. eigenvalues --   -0.65128  -0.64494  -0.64295  -0.63721  -0.59281
 Alpha  occ. eigenvalues --   -0.53790  -0.52530  -0.51694  -0.50232  -0.49971
 Alpha  occ. eigenvalues --   -0.47203  -0.46426  -0.42961  -0.40087  -0.39470
 Alpha  occ. eigenvalues --   -0.38170  -0.37770  -0.35476  -0.35180  -0.34907
 Alpha  occ. eigenvalues --   -0.34195  -0.32761  -0.32595  -0.31922  -0.31521
 Alpha  occ. eigenvalues --   -0.31230  -0.29782  -0.29341  -0.28176  -0.27628
 Alpha  occ. eigenvalues --   -0.27094  -0.26550  -0.25100  -0.24848  -0.24246
 Alpha  occ. eigenvalues --   -0.23788  -0.23585  -0.22927  -0.22558  -0.20362
 Alpha  occ. eigenvalues --   -0.18412  -0.15296  -0.14672  -0.14268  -0.13584
 Alpha  occ. eigenvalues --   -0.11578   0.04088
 Alpha virt. eigenvalues --    0.05919   0.07218   0.07474   0.08064   0.08357
 Alpha virt. eigenvalues --    0.08661   0.08892   0.08970   0.09333   0.09581
 Alpha virt. eigenvalues --    0.10019   0.10482   0.10515   0.10717   0.11096

  Beta  occ. eigenvalues --  -18.97104 -10.11497 -10.07660 -10.07547 -10.07415
  Beta  occ. eigenvalues --  -10.07209 -10.07150 -10.07050 -10.06954 -10.06948
  Beta  occ. eigenvalues --  -10.06776 -10.06714 -10.06692 -10.06580 -10.06560
  Beta  occ. eigenvalues --  -10.06554 -10.06311 -10.06155 -10.06144 -10.05866
  Beta  occ. eigenvalues --   -0.90519  -0.76893  -0.75259  -0.74186  -0.69314
  Beta  occ. eigenvalues --   -0.65023  -0.64427  -0.64272  -0.63664  -0.59096
  Beta  occ. eigenvalues --   -0.53593  -0.52444  -0.51616  -0.50200  -0.49920
  Beta  occ. eigenvalues --   -0.47094  -0.46340  -0.42817  -0.39938  -0.39302
  Beta  occ. eigenvalues --   -0.38045  -0.37715  -0.35366  -0.35094  -0.34858
  Beta  occ. eigenvalues --   -0.34140  -0.32685  -0.32525  -0.31878  -0.31331
  Beta  occ. eigenvalues --   -0.31191  -0.29549  -0.29250  -0.28021  -0.27460
  Beta  occ. eigenvalues --   -0.26995  -0.26438  -0.25047  -0.24638  -0.23896
  Beta  occ. eigenvalues --   -0.23688  -0.23429  -0.22874  -0.22252  -0.20291
  Beta  occ. eigenvalues --   -0.18065  -0.15213  -0.14512  -0.14105  -0.13358
  Beta  occ. eigenvalues --   -0.11354
  Beta virt. eigenvalues --    0.06236   0.07098   0.07562   0.07893   0.08253
  Beta virt. eigenvalues --    0.08646   0.08990   0.09082   0.09120   0.09554
  Beta virt. eigenvalues --    0.09774   0.10355   0.10727   0.10792   0.11078

 Mulliken charges and spin densities:
               1          2
     1  C    0.198818  -0.744166
     2  C   -0.626624  -0.006073
     3  C    0.756557   0.182826
     4  C   -0.787915   0.498612
     5  C   -0.442736   0.093753
     6  C    1.787634  -0.663062
     7  C   -0.403250  -0.088728
     8  C   -0.552645  -0.137711
     9  C   -0.770711  -0.132881
    10  C    0.189118   0.144786
    11  O   -0.299971   0.094521
    12  C   -0.370669   0.308020
    13  C    0.694738  -1.094631
    14  C   -0.532311  -0.016869
    15  C    1.358847  -0.225770
    16  C   -0.341081   0.108805
    17  C   -0.000687  -0.126226
    18  C   -0.335113   0.012287
    19  C   -0.688523   0.087233
    20  C   -0.342785  -0.080202
    21  H    0.138519   0.001426
    22  H   -0.324175   0.455548
    23  H    0.061068   0.076128
    24  H   -0.019246   0.165510
    25  H   -0.106515   0.249861
    26  H    0.062421   0.103459
    27  H    0.158909   0.029294
    28  H   -0.109062   0.237408
    29  H   -0.005063   0.156939
    30  H    0.078273   0.120264
    31  H    0.115593   0.038234
    32  H   -0.129989   0.390479
    33  H   -0.255209   0.425631
    34  H    0.343061  -0.207367
    35  H   -0.187534   0.428426
    36  H    0.136079   0.029938
    37  H    0.097343   0.042056
    38  H    0.090090   0.050764
    39  H    0.136204   0.011495
    40  H    0.228543  -0.020019
 Sum of Mulliken charges =  -1.00000   1.00000

 Dipole moment (field-independent basis, Debye):
    X=              2.2222    Y=              0.7843    Z=              0.2934  Tot=              2.3747
 Quadrupole moment (field-independent basis, Debye-Ang):
   XX=           -200.5178   YY=           -151.8073   ZZ=           -146.6154
   XY=              3.1989   XZ=             -1.5476   YZ=             -7.1370

 Summary of Natural Population Analysis:

                                       Natural Population
                Natural  -----------------------------------------------
    Atom  No    Charge         Core      Valence    Rydberg      Total
 -----------------------------------------------------------------------
      C    1   -0.27984      0.99966     2.27518    0.00500     3.27984
      C    2   -0.19654      0.99961     2.18762    0.00931     3.19654
      C    3   -0.01202      0.99950     2.00259    0.00993     3.01202
      C    4   -0.09229      0.99951     2.08340    0.00938     3.09229
      C    5   -0.09401      0.99951     2.08558    0.00892     3.09401
      C    6   -0.00619      0.99949     1.99713    0.00957     3.00619
      C    7   -0.10002      0.99951     2.09140    0.00912     3.10002
      C    8   -0.10447      0.99951     2.09599    0.00897     3.10447
      C    9   -0.23925      0.99956     2.23076    0.00893     3.23925
      C   10    0.32625      0.99963     1.65249    0.02162     2.67375
      O   11   -0.27709      0.99987     3.27108    0.00614     4.27709
      C   12   -0.14855      0.99954     2.13720    0.01182     3.14855
      C   13   -0.19597      0.99960     2.18779    0.00857     3.19597
      C   14   -0.10553      0.99955     2.09404    0.01193     3.10553
      C   15   -0.01560      0.99949     2.00582    0.01029     3.01560
      C   16   -0.08961      0.99951     2.08173    0.00837     3.08961
      C   17   -0.10188      0.99956     2.09328    0.00904     3.10188
      C   18   -0.10314      0.99956     2.09471    0.00886     3.10314
      C   19   -0.10407      0.99957     2.09546    0.00904     3.10407
      C   20   -0.09320      0.99951     2.08458    0.00911     3.09320
      H   21    0.09773      0.00000     0.40109    0.00118     0.40227
      H   22    0.09582      0.00000     0.40289    0.00129     0.40418
      H   23    0.09547      0.00000     0.40349    0.00105     0.40453
      H   24    0.09797      0.00000     0.40097    0.00106     0.40203
      H   25    0.09708      0.00000     0.40179    0.00113     0.40292
      H   26    0.09624      0.00000     0.40247    0.00129     0.40376
      H   27    0.10813      0.00000     0.39047    0.00140     0.39187
      H   28    0.09634      0.00000     0.40270    0.00095     0.40366
      H   29    0.09522      0.00000     0.40351    0.00127     0.40478
      H   30    0.11336      0.00000     0.38533    0.00130     0.38664
      H   31    0.10335      0.00000     0.39557    0.00108     0.39665
      H   32    0.11598      0.00000     0.38215    0.00187     0.38402
      H   33    0.10192      0.00000     0.39706    0.00102     0.39808
      H   34    0.10646      0.00000     0.39211    0.00144     0.39354
      H   35    0.11023      0.00000     0.38800    0.00177     0.38977
      H   36    0.10021      0.00000     0.39845    0.00134     0.39979
      H   37    0.09884      0.00000     0.39976    0.00140     0.40116
      H   38    0.09640      0.00000     0.40264    0.00096     0.40360
      H   39    0.09693      0.00000     0.40228    0.00079     0.40307
      H   40    0.10933      0.00000     0.38945    0.00123     0.39067
 =======================================================================
   * Total *   -0.00000     19.99126    50.79001    0.21873    71.00000

 Normal termination of Gaussian 16 at Sat Dec 12 18:02:08 2020.
