 Gaussian 16, Revision A.03,

 -----------------------------------------------------------
 # opt freq B3LYP/6-31G(d) empiricaldispersion=gd3bj scf=xqc
 -----------------------------------------------------------

 -------------------------------
 CID_117110287_JID_3041_neutraal
 -------------------------------
 Symbolic Z-matrix:
 Charge =  0 Multiplicity = 1

 SCF Done:  E(RB3LYP) =  -589.050424708     A.U. after   15 cycles
 SCF Done:  E(RB3LYP) =  -589.065203916     A.U. after   13 cycles
 SCF Done:  E(RB3LYP) =  -589.066661482     A.U. after   12 cycles
 SCF Done:  E(RB3LYP) =  -589.066834493     A.U. after   11 cycles
 SCF Done:  E(RB3LYP) =  -589.066897860     A.U. after   11 cycles
 SCF Done:  E(RB3LYP) =  -589.066916180     A.U. after   11 cycles
 SCF Done:  E(RB3LYP) =  -589.066922435     A.U. after    9 cycles
 SCF Done:  E(RB3LYP) =  -589.066924273     A.U. after    8 cycles
 SCF Done:  E(RB3LYP) =  -589.066924528     A.U. after    8 cycles
 SCF Done:  E(RB3LYP) =  -589.066924616     A.U. after    7 cycles
 Optimization completed.
    -- Stationary point found.
 Normal termination of Gaussian 16 at Sun Dec 13 20:00:45 2020.

 --------------------------------------------------------------------
 #N Geom=AllCheck Guess=TCheck SCRF=Check GenChk RB3LYP/6-31G(d) Freq
 --------------------------------------------------------------------

 Structure from the checkpoint file:  "JID_3041.chk"
 -------------------------------
 CID_117110287_JID_3041_neutraal
 -------------------------------
 Charge =  0 Multiplicity = 1

 SCF Done:  E(RB3LYP) =  -589.066924616     A.U. after    1 cycles

  Exact polarizability: 190.905  -3.005 116.552   3.046   4.609  55.891
 Approx polarizability: 287.994  -7.212 205.922  10.279  14.529  86.401

 ******    1 imaginary frequencies (negative Signs) ******

                      1                      2                      3
                      A                      A                      A
 Frequencies --    -30.5939                78.3372                92.8278
 Red. masses --      1.1020                 2.9169                 3.5155
 Frc consts  --      0.0006                 0.0105                 0.0178
 IR Inten    --      0.3044                 3.9820                 5.4439

                      4                      5                      6
                      A                      A                      A
 Frequencies --    133.7459               178.3649               202.5845
 Red. masses --      3.8557                 1.0780                 3.5296
 Frc consts  --      0.0406                 0.0202                 0.0853
 IR Inten    --      1.2534                 0.3903                 4.1816

                      7                      8                      9
                      A                      A                      A
 Frequencies --    242.0754               263.5747               325.3538
 Red. masses --      3.3216                 3.8189                 2.5994
 Frc consts  --      0.1147                 0.1563                 0.1621
 IR Inten    --      2.0761                 2.1409                14.8728

                     10                     11                     12
                      A                      A                      A
 Frequencies --    348.3009               376.3109               402.2399
 Red. masses --      2.4584                 2.0657                 4.0108
 Frc consts  --      0.1757                 0.1723                 0.3823
 IR Inten    --     16.0856                 4.7938                12.0024

                     13                     14                     15
                      A                      A                      A
 Frequencies --    425.8162               435.5803               462.3005
 Red. masses --      5.0694                 3.1774                 4.5941
 Frc consts  --      0.5416                 0.3552                 0.5785
 IR Inten    --      0.3751                 5.1000                 5.5370

                     16                     17                     18
                      A                      A                      A
 Frequencies --    500.8254               623.1802               628.1105
 Red. masses --      3.8446                 4.0174                 5.7764
 Frc consts  --      0.5682                 0.9192                 1.3427
 IR Inten    --     23.7323                20.3424                 0.2567

                     19                     20                     21
                      A                      A                      A
 Frequencies --    695.8072               704.4459               709.6682
 Red. masses --      4.6499                 1.3152                 2.1817
 Frc consts  --      1.3264                 0.3845                 0.6474
 IR Inten    --     13.8293                21.5135               152.5824

                     22                     23                     24
                      A                      A                      A
 Frequencies --    751.8442               759.6391               771.0132
 Red. masses --      2.5327                 4.4377                 4.9412
 Frc consts  --      0.8435                 1.5088                 1.7306
 IR Inten    --    138.1876                 8.9447                 1.9241

                     25                     26                     27
                      A                      A                      A
 Frequencies --    810.1832               833.9098               885.1594
 Red. masses --      3.6057                 1.6428                 1.4741
 Frc consts  --      1.3945                 0.6731                 0.6805
 IR Inten    --      7.8302                53.2656                12.2473

                     28                     29                     30
                      A                      A                      A
 Frequencies --    895.8992              1029.5723              1034.3283
 Red. masses --      2.6871                 6.9727                 5.0854
 Frc consts  --      1.2707                 4.3548                 3.2055
 IR Inten    --     12.9613                24.8242                46.2043

                     31                     32                     33
                      A                      A                      A
 Frequencies --   1087.1256              1135.8763              1159.7540
 Red. masses --      1.5349                 1.4888                 1.3218
 Frc consts  --      1.0688                 1.1318                 1.0475
 IR Inten    --      9.3773                 5.0100                 3.5619

                     34                     35                     36
                      A                      A                      A
 Frequencies --   1170.3696              1188.4246              1193.6161
 Red. masses --      1.9143                 1.2698                 1.7731
 Frc consts  --      1.5450                 1.0567                 1.4883
 IR Inten    --    111.9263                 6.3577                58.0463

                     37                     38                     39
                      A                      A                      A
 Frequencies --   1231.7379              1246.0333              1271.8584
 Red. masses --      1.5952                 2.9218                 1.8085
 Frc consts  --      1.4260                 2.6728                 1.7236
 IR Inten    --     44.5823                33.8402               124.5359

                     40                     41                     42
                      A                      A                      A
 Frequencies --   1301.4965              1369.9147              1393.7194
 Red. masses --      4.3272                 3.5725                 5.5848
 Frc consts  --      4.3186                 3.9501                 6.3916
 IR Inten    --      9.4865                12.5237                90.7737

                     43                     44                     45
                      A                      A                      A
 Frequencies --   1427.7953              1468.3848              1486.8389
 Red. masses --      3.5338                 2.1532                 1.6265
 Frc consts  --      4.2445                 2.7353                 2.1185
 IR Inten    --     25.2849                 2.3667                 7.8859

                     46                     47                     48
                      A                      A                      A
 Frequencies --   1493.3745              1502.1850              1516.7403
 Red. masses --      1.2523                 1.0430                 1.0526
 Frc consts  --      1.6455                 1.3867                 1.4267
 IR Inten    --      4.3905                 6.8576                 5.2078

                     49                     50                     51
                      A                      A                      A
 Frequencies --   1536.6602              1541.6908              1551.8517
 Red. masses --      1.0818                 1.6031                 2.0873
 Frc consts  --      1.5051                 2.2449                 2.9617
 IR Inten    --      0.1260                68.9649                36.5672

                     52                     53                     54
                      A                      A                      A
 Frequencies --   1569.5703              1602.7035              1666.5712
 Red. masses --      6.3627                 5.5431                 1.2863
 Frc consts  --      9.2353                 8.3890                 2.1050
 IR Inten    --     45.6242                 0.3811                64.2341

                     55                     56                     57
                      A                      A                      A
 Frequencies --   1708.6128              3034.6490              3074.9440
 Red. masses --      4.9473                 1.0314                 1.0322
 Frc consts  --      8.5095                 5.5962                 5.7503
 IR Inten    --     29.5897                60.3287                58.9399

                     58                     59                     60
                      A                      A                      A
 Frequencies --   3100.6617              3144.1603              3147.3093
 Red. masses --      1.1068                 1.1057                 1.1034
 Frc consts  --      6.2696                 6.4400                 6.4395
 IR Inten    --     27.5567                12.9950                40.7474

                     61                     62                     63
                      A                      A                      A
 Frequencies --   3170.2520              3181.8593              3223.9292
 Red. masses --      1.1052                 1.0903                 1.0919
 Frc consts  --      6.5443                 6.5035                 6.6863
 IR Inten    --      9.3580                20.6389                 3.8907

                     64                     65                     66
                      A                      A                      A
 Frequencies --   3278.4843              3533.7649              3636.8577
 Red. masses --      1.0967                 1.0476                 1.0974
 Frc consts  --      6.9453                 7.7078                 8.5517
 IR Inten    --      1.7522                14.8574                12.6109

 - Thermochemistry -
 -------------------
 Temperature   298.150 Kelvin.  Pressure   1.00000 Atm.
 Atom     1 has atomic number  6 and mass  12.00000

 Molecular mass:   177.09021 amu.
 Principal axes and moments of inertia in atomic units:
                           1         2         3
     Eigenvalues --   867.759653802.244284526.56227
           X            0.99998   0.00402  -0.00487
           Y           -0.00410   0.99986  -0.01608
           Z            0.00480   0.01610   0.99986
 This molecule is an asymmetric top.
 Rotational symmetry number  1.
 Warning -- assumption of classical behavior for rotation
           may cause significant error
 Rotational temperatures (Kelvin)      0.09981     0.02278     0.01913
 Rotational constants (GHZ):           2.07977     0.47465     0.39870
    1 imaginary frequencies ignored.
 Zero-point vibrational energy     514099.8 (Joules/Mol)
                                  122.87280 (Kcal/Mol)
 Warning -- explicit consideration of  15 degrees of freedom as
           vibrations may cause significant error
 Vibrational temperatures:    112.71   133.56   192.43   256.63   291.47
          (Kelvin)            348.29   379.23   468.11   501.13   541.43
                              578.73   612.65   626.70   665.15   720.58
                              896.62   903.71  1001.11  1013.54  1021.05
                             1081.74  1092.95  1109.32  1165.67  1199.81
                             1273.55  1289.00  1481.32  1488.17  1564.13
                             1634.27  1668.63  1683.90  1709.88  1717.35
                             1772.20  1792.76  1829.92  1872.56  1971.00
                             2005.25  2054.28  2112.68  2139.23  2148.63
                             2161.31  2182.25  2210.91  2218.15  2232.77
                             2258.26  2305.93  2397.82  2458.31  4366.18
                             4424.16  4461.16  4523.75  4528.28  4561.29
                             4577.99  4638.52  4717.01  5084.30  5232.63

 Zero-point correction=                           0.195810 (Hartree/Particle)
 Thermal correction to Energy=                    0.206854
 Thermal correction to Enthalpy=                  0.207799
 Thermal correction to Gibbs Free Energy=         0.159201
 Sum of electronic and zero-point Energies=           -588.871114
 Sum of electronic and thermal Energies=              -588.860070
 Sum of electronic and thermal Enthalpies=            -588.859126
 Sum of electronic and thermal Free Energies=         -588.907724

                     E (Thermal)             CV                S
                      KCal/Mol        Cal/Mol-Kelvin    Cal/Mol-Kelvin
 Total                  129.803             43.298            102.282
 Electronic               0.000              0.000              0.000
 Translational            0.889              2.981             41.422
 Rotational               0.889              2.981             31.080
 Vibrational            128.026             37.337             29.781
 Vibration     1          0.600              1.964              3.932
 Vibration     2          0.602              1.954              3.600
 Vibration     3          0.613              1.920              2.891
 Vibration     4          0.629              1.869              2.345
 Vibration     5          0.639              1.836              2.109
 Vibration     6          0.658              1.776              1.788
 Vibration     7          0.670              1.740              1.638
 Vibration     8          0.709              1.625              1.283
 Vibration     9          0.726              1.579              1.174
 Vibration    10          0.747              1.521              1.054
 Vibration    11          0.768              1.465              0.954
 Vibration    12          0.788              1.414              0.872
 Vibration    13          0.796              1.393              0.841
 Vibration    14          0.820              1.334              0.759
 Vibration    15          0.856              1.248              0.656

                           ! Non-Optimized Parameters !
 Normal termination of Gaussian 16 at Sun Dec 13 20:06:08 2020.

 ----------------------------------------------------------------------
 # B3LYP/6-311++G(d,p) empiricaldispersion=gd3bj scf=xqc pop=npa geom=c
 heck
 ----------------------------------------------------------------------

 ---------------------------------------
 CID_117110287_JID_3041_Energie_neutraal
 ---------------------------------------
 Structure from the checkpoint file:  "JID_3041.chk"
 Charge =  0 Multiplicity = 1

 SCF Done:  E(RB3LYP) =  -589.230805318     A.U. after   15 cycles
 Normal termination of Gaussian 16 at Sun Dec 13 20:08:28 2020.

 ----------------------------------------------------------------------
 # B3LYP/6-311++G(d,p) empiricaldispersion=gd3bj scf=xqc pop=npa geom=c
 heck
 ----------------------------------------------------------------------

 -------------------------------------
 CID_117110287_JID_3041_Energie_kation
 -------------------------------------
 Structure from the checkpoint file:  "JID_3041.chk"
 Charge =  1 Multiplicity = 2

 SCF Done:  E(UB3LYP) =  -588.970205386     A.U. after   22 cycles
 Normal termination of Gaussian 16 at Sun Dec 13 20:13:14 2020.
 Gaussian 16:  ES64L-G16RevA.03 25-Dec-2016

 ----------------------------------------------------------------------
 # B3LYP/6-311++G(d,p) empiricaldispersion=gd3bj scf=xqc pop=npa geom=c
 heck
 ----------------------------------------------------------------------

 ------------------------------------
 CID_117110287_JID_3041_Energie_anion
 ------------------------------------
 Structure from the checkpoint file:  "JID_3041.chk"
 Charge = -1 Multiplicity = 2

                         Standard orientation:
 ---------------------------------------------------------------------
 Center     Atomic      Atomic             Coordinates (Angstroms)
 Number     Number       Type             X           Y           Z
 ---------------------------------------------------------------------
      1          6           0        4.320465   -0.420959    0.116527
      2          7           0        2.898148   -0.147385    0.064225
      3          6           0        2.294825    1.064799    0.187123
      4          6           0        0.923433    0.834280    0.056611
      5          6           0       -0.243770    1.638116    0.074527
      6          6           0       -1.470475    1.028727   -0.093435
      7          6           0       -1.543749   -0.399043   -0.287643
      8          6           0       -0.432140   -1.199416   -0.320719
      9          6           0        0.832781   -0.585337   -0.146782
     10          7           0        2.049238   -1.172115   -0.140122
     11          8           0       -2.804235   -0.940393   -0.482181
     12          6           0       -3.458027   -1.298284    0.739445
     13          7           0       -2.687370    1.721750   -0.043168
     14          1           0        4.523038   -1.161488    0.894418
     15          1           0        4.851878    0.505077    0.343103
     16          1           0        4.660746   -0.814061   -0.845638
     17          1           0        2.866682    1.965581    0.353367
     18          1           0       -0.181317    2.713900    0.217503
     19          1           0       -0.528200   -2.267296   -0.483834
     20          1           0       -2.886038   -2.067497    1.273189
     21          1           0       -3.584822   -0.424204    1.389562
     22          1           0       -4.436745   -1.696889    0.461653
     23          1           0       -2.606819    2.706611   -0.266080
     24          1           0       -3.404696    1.270353   -0.600260
 ---------------------------------------------------------------------

 SCF Done:  E(UB3LYP) =  -589.218453855     A.U. after   33 cycles
 SCF Done:  E(UB3LYP) =  -589.218453855     a.u. after    1 cycles

 The electronic state is 2-A.
 Alpha  occ. eigenvalues --  -19.03720 -14.28068 -14.20557 -14.20491 -10.11908
 Alpha  occ. eigenvalues --  -10.10959 -10.10549 -10.09654 -10.08672 -10.07715
 Alpha  occ. eigenvalues --  -10.05996 -10.05558 -10.05227  -0.95121  -0.93683
 Alpha  occ. eigenvalues --   -0.80526  -0.74400  -0.70077  -0.66981  -0.62325
 Alpha  occ. eigenvalues --   -0.60640  -0.57202  -0.51143  -0.48874  -0.46318
 Alpha  occ. eigenvalues --   -0.42686  -0.41159  -0.39639  -0.38393  -0.37128
 Alpha  occ. eigenvalues --   -0.36026  -0.35152  -0.33097  -0.32631  -0.31592
 Alpha  occ. eigenvalues --   -0.30885  -0.29629  -0.28961  -0.26400  -0.25286
 Alpha  occ. eigenvalues --   -0.23952  -0.19138  -0.18093  -0.17567  -0.16704
 Alpha  occ. eigenvalues --   -0.11270  -0.08362   0.04496
 Alpha virt. eigenvalues --    0.06030   0.06957   0.07238   0.08551   0.09501
 Alpha virt. eigenvalues --    0.10138   0.10606   0.10866   0.11386   0.12988
 Alpha virt. eigenvalues --    0.13285   0.13554   0.14168   0.14561   0.15493

  Beta  occ. eigenvalues --  -19.03727 -14.27939 -14.20518 -14.20413 -10.11881
  Beta  occ. eigenvalues --  -10.10915 -10.10515 -10.09641 -10.08618 -10.07738
  Beta  occ. eigenvalues --  -10.06011 -10.05464 -10.05152  -0.95101  -0.93507
  Beta  occ. eigenvalues --   -0.80469  -0.74289  -0.69952  -0.66866  -0.62218
  Beta  occ. eigenvalues --   -0.60526  -0.57133  -0.50979  -0.48824  -0.46219
  Beta  occ. eigenvalues --   -0.42621  -0.41075  -0.39550  -0.38303  -0.36834
  Beta  occ. eigenvalues --   -0.35956  -0.35111  -0.33034  -0.32553  -0.31524
  Beta  occ. eigenvalues --   -0.30822  -0.29505  -0.28863  -0.26320  -0.25145
  Beta  occ. eigenvalues --   -0.23882  -0.18835  -0.18021  -0.17506  -0.16416
  Beta  occ. eigenvalues --   -0.10883  -0.07955
  Beta virt. eigenvalues --    0.06813   0.07287   0.07836   0.07964   0.09220
  Beta virt. eigenvalues --    0.09968   0.10140   0.10775   0.11345   0.12019
  Beta virt. eigenvalues --    0.13106   0.13380   0.13863   0.14237   0.14644

 Mulliken charges and spin densities:
               1          2
     1  C    0.932124  -1.238215
     2  N    0.193544   0.061106
     3  C    0.273400  -0.006037
     4  C    1.504898  -0.662125
     5  C   -0.288516  -0.086651
     6  C   -0.477677  -0.123306
     7  C    0.138421  -0.230158
     8  C    0.025207   0.086054
     9  C   -0.638131  -0.260527
    10  N   -0.470428   0.255346
    11  O   -0.219419   0.016737
    12  C    0.125866  -0.441339
    13  N   -0.331377  -0.007140
    14  H   -0.246900   0.423763
    15  H   -0.692188   0.841750
    16  H    0.018522   0.143980
    17  H   -0.602814   0.770933
    18  H   -0.124259   0.250283
    19  H    0.104160   0.049752
    20  H    0.102411   0.019098
    21  H    0.056312   0.101360
    22  H   -0.193848   0.338495
    23  H   -0.205137   0.450387
    24  H    0.015831   0.246454
 Sum of Mulliken charges =  -1.00000   1.00000

 Dipole moment (field-independent basis, Debye):
    X=             -3.3664    Y=             -2.4289    Z=             -0.4808  Tot=              4.1789
 Quadrupole moment (field-independent basis, Debye-Ang):
   XX=           -159.9567   YY=           -111.5281   ZZ=            -98.6428
   XY=              0.1333   XZ=            -10.4899   YZ=             -1.4031

 Summary of Natural Population Analysis:

                                       Natural Population
                Natural  -----------------------------------------------
    Atom  No    Charge         Core      Valence    Rydberg      Total
 -----------------------------------------------------------------------
      C    1   -0.17156      0.99964     2.16362    0.00831     3.17156
      N    2   -0.07477      0.99967     2.56284    0.01225     3.57477
      C    3   -0.00750      0.99952     1.99620    0.01178     3.00750
      C    4   -0.06604      0.99951     2.05790    0.00862     3.06604
      C    5   -0.11352      0.99950     2.10540    0.00862     3.11352
      C    6    0.06245      0.99946     1.92665    0.01143     2.93755
      C    7    0.14169      0.99935     1.84484    0.01412     2.85831
      C    8   -0.10225      0.99947     2.09472    0.00806     3.10225
      C    9    0.05705      0.99952     1.93076    0.01267     2.94295
      N   10   -0.15806      0.99971     2.64696    0.01140     3.65806
      O   11   -0.30009      0.99987     3.28947    0.01075     4.30009
      C   12   -0.09867      0.99959     2.08983    0.00924     3.09867
      N   13   -0.40458      0.99972     2.89403    0.01082     3.90458
      H   14    0.10387      0.00000     0.39413    0.00200     0.39613
      H   15    0.10248      0.00000     0.39499    0.00253     0.39752
      H   16    0.09737      0.00000     0.40146    0.00116     0.40263
      H   17    0.10330      0.00000     0.39541    0.00129     0.39670
      H   18    0.09718      0.00000     0.40137    0.00144     0.40282
      H   19    0.10365      0.00000     0.39491    0.00144     0.39635
      H   20    0.08103      0.00000     0.41790    0.00107     0.41897
      H   21    0.08768      0.00000     0.41105    0.00127     0.41232
      H   22    0.08685      0.00000     0.41184    0.00131     0.41315
      H   23    0.18447      0.00000     0.31263    0.00290     0.31553
      H   24    0.18795      0.00000     0.30961    0.00244     0.31205
 =======================================================================
   * Total *   -0.00000     12.99453    33.84853    0.15695    47.00000

 Normal termination of Gaussian 16 at Sun Dec 13 20:20:28 2020.
