 Gaussian 16, Revision A.03,

 -----------------------------------------------------------
 # opt freq B3LYP/6-31G(d) empiricaldispersion=gd3bj scf=xqc
 -----------------------------------------------------------

 ------------------------------
 CID_81494793_JID_6348_neutraal
 ------------------------------
 Symbolic Z-matrix:
 Charge =  0 Multiplicity = 1

 SCF Done:  E(RB3LYP) =  -642.630198623     A.U. after   13 cycles
 SCF Done:  E(RB3LYP) =  -642.642583983     A.U. after   11 cycles
 SCF Done:  E(RB3LYP) =  -642.643476016     A.U. after   10 cycles
 SCF Done:  E(RB3LYP) =  -642.644694897     A.U. after   10 cycles
 SCF Done:  E(RB3LYP) =  -642.644653613     A.U. after   10 cycles
 SCF Done:  E(RB3LYP) =  -642.644862302     A.U. after   10 cycles
 SCF Done:  E(RB3LYP) =  -642.644975775     A.U. after    9 cycles
 SCF Done:  E(RB3LYP) =  -642.644996738     A.U. after    9 cycles
 SCF Done:  E(RB3LYP) =  -642.645005282     A.U. after    8 cycles
 SCF Done:  E(RB3LYP) =  -642.645006401     A.U. after    7 cycles
 SCF Done:  E(RB3LYP) =  -642.645006673     A.U. after    6 cycles
 SCF Done:  E(RB3LYP) =  -642.645006765     A.U. after    6 cycles
 Optimization completed.
    -- Stationary point found.
 Normal termination of Gaussian 16 at Thu Dec 10 22:21:26 2020.

 --------------------------------------------------------------------
 #N Geom=AllCheck Guess=TCheck SCRF=Check GenChk RB3LYP/6-31G(d) Freq
 --------------------------------------------------------------------

 Structure from the checkpoint file:  "JID_6348.chk"
 ------------------------------
 CID_81494793_JID_6348_neutraal
 ------------------------------
 Charge =  0 Multiplicity = 1

 SCF Done:  E(RB3LYP) =  -642.645006765     A.U. after    1 cycles

  Exact polarizability: 172.651  -2.208 153.856   0.455  -0.296 138.753
 Approx polarizability: 224.249  -1.991 216.980  -1.005  -2.203 212.017

                      1                      2                      3
                      A                      A                      A
 Frequencies --     52.6504                62.4119               102.1933
 Red. masses --      2.9389                 2.7784                 2.6973
 Frc consts  --      0.0048                 0.0064                 0.0166
 IR Inten    --      0.2048                 0.0363                 0.0775

                      4                      5                      6
                      A                      A                      A
 Frequencies --    112.4648               134.5080               144.4760
 Red. masses --      2.1733                 3.0498                 2.0989
 Frc consts  --      0.0162                 0.0325                 0.0258
 IR Inten    --      0.1295                 0.0424                 0.0705

                      7                      8                      9
                      A                      A                      A
 Frequencies --    161.8589               191.9454               204.3204
 Red. masses --      2.6288                 1.5315                 2.0970
 Frc consts  --      0.0406                 0.0332                 0.0516
 IR Inten    --      0.2811                 0.2262                 0.4210

                     10                     11                     12
                      A                      A                      A
 Frequencies --    225.1212               232.5761               268.4926
 Red. masses --      1.5863                 1.1196                 1.9907
 Frc consts  --      0.0474                 0.0357                 0.0846
 IR Inten    --      0.5954                 0.0227                 1.0412

                     13                     14                     15
                      A                      A                      A
 Frequencies --    278.9069               300.1783               319.1033
 Red. masses --      3.5471                 1.9717                 2.0843
 Frc consts  --      0.1626                 0.1047                 0.1250
 IR Inten    --      1.0361                 2.3913                 0.1465

                     16                     17                     18
                      A                      A                      A
 Frequencies --    344.9354               353.4374               390.4610
 Red. masses --      2.3620                 2.8301                 2.2026
 Frc consts  --      0.1656                 0.2083                 0.1979
 IR Inten    --      0.5742                 0.3620                 0.6404

                     19                     20                     21
                      A                      A                      A
 Frequencies --    450.7893               477.8971               494.2745
 Red. masses --      2.3565                 2.1043                 2.9387
 Frc consts  --      0.2821                 0.2832                 0.4230
 IR Inten    --      1.2804                 0.3024                 9.7883

                     22                     23                     24
                      A                      A                      A
 Frequencies --    536.7922               581.8344               604.2024
 Red. masses --      2.9589                 2.7484                 3.0060
 Frc consts  --      0.5023                 0.5482                 0.6466
 IR Inten    --      2.8610                 0.4971                 5.6363

                     25                     26                     27
                      A                      A                      A
 Frequencies --    675.6243               720.1200               731.3628
 Red. masses --      3.3725                 3.5400                 2.2235
 Frc consts  --      0.9070                 1.0816                 0.7007
 IR Inten    --      0.4390                 7.2777                26.2727

                     28                     29                     30
                      A                      A                      A
 Frequencies --    758.2934               780.8474               793.6174
 Red. masses --      1.6476                 1.6387                 1.6417
 Frc consts  --      0.5582                 0.5887                 0.6092
 IR Inten    --      8.2986                16.6899                 6.0066

                     31                     32                     33
                      A                      A                      A
 Frequencies --    811.1112               817.3914               826.0714
 Red. masses --      1.2199                 2.0390                 1.8107
 Frc consts  --      0.4729                 0.8027                 0.7280
 IR Inten    --      3.8045                 7.7854                18.9764

                     34                     35                     36
                      A                      A                      A
 Frequencies --    856.1502               865.8902               898.8926
 Red. masses --      1.8277                 2.0614                 2.5438
 Frc consts  --      0.7893                 0.9106                 1.2110
 IR Inten    --      2.7285                 0.3389                 0.7232

                     37                     38                     39
                      A                      A                      A
 Frequencies --    908.5669               913.0714               926.6151
 Red. masses --      1.8927                 2.2664                 2.8412
 Frc consts  --      0.9206                 1.1133                 1.4373
 IR Inten    --      3.8569                 0.6638                 0.9647

                     40                     41                     42
                      A                      A                      A
 Frequencies --    935.9904               961.2247               971.9857
 Red. masses --      2.0656                 2.0203                 1.8737
 Frc consts  --      1.0662                 1.0998                 1.0429
 IR Inten    --      3.7726                 1.7030                 0.0562

                     43                     44                     45
                      A                      A                      A
 Frequencies --    984.6440               995.4345              1025.0119
 Red. masses --      1.8463                 1.9906                 1.8957
 Frc consts  --      1.0546                 1.1621                 1.1735
 IR Inten    --      1.2346                 3.2602                 2.0763

                     46                     47                     48
                      A                      A                      A
 Frequencies --   1041.7439              1049.1358              1061.2229
 Red. masses --      1.8129                 2.0205                 1.5807
 Frc consts  --      1.1592                 1.3103                 1.0488
 IR Inten    --      0.9624                 2.0442                 0.1958

                     49                     50                     51
                      A                      A                      A
 Frequencies --   1069.4418              1071.5682              1093.2575
 Red. masses --      2.2311                 2.3277                 2.0009
 Frc consts  --      1.5035                 1.5747                 1.4091
 IR Inten    --     11.1473                 0.7662                 5.8121

                     52                     53                     54
                      A                      A                      A
 Frequencies --   1111.2586              1127.9013              1136.4562
 Red. masses --      1.8304                 1.3439                 1.7059
 Frc consts  --      1.3318                 1.0073                 1.2981
 IR Inten    --      1.7310                 1.6522                 6.7343

                     55                     56                     57
                      A                      A                      A
 Frequencies --   1159.1656              1165.4548              1174.1680
 Red. masses --      1.5843                 1.2093                 2.2047
 Frc consts  --      1.2542                 0.9678                 1.7908
 IR Inten    --      2.6275                 0.0748                12.5902

                     58                     59                     60
                      A                      A                      A
 Frequencies --   1179.8783              1193.5563              1216.9348
 Red. masses --      2.1616                 1.7433                 2.5744
 Frc consts  --      1.7730                 1.4632                 2.2462
 IR Inten    --     14.7724                 2.5730                18.3823

                     61                     62                     63
                      A                      A                      A
 Frequencies --   1222.1824              1234.9238              1246.7519
 Red. masses --      1.6326                 1.9748                 1.8853
 Frc consts  --      1.4368                 1.7744                 1.7266
 IR Inten    --      8.6669                 2.6741                 3.6419

                     64                     65                     66
                      A                      A                      A
 Frequencies --   1279.0071              1281.2634              1294.8176
 Red. masses --      1.4250                 1.3008                 1.3237
 Frc consts  --      1.3734                 1.2581                 1.3076
 IR Inten    --      0.3707                 0.6499                 0.1770

                     67                     68                     69
                      A                      A                      A
 Frequencies --   1298.2744              1312.8609              1325.6866
 Red. masses --      1.3209                 1.3359                 1.4053
 Frc consts  --      1.3118                 1.3566                 1.4551
 IR Inten    --      1.5301                 1.6727                 4.2665

                     70                     71                     72
                      A                      A                      A
 Frequencies --   1333.3799              1347.2839              1348.7222
 Red. masses --      1.3071                 1.4663                 1.3635
 Frc consts  --      1.3692                 1.5682                 1.4613
 IR Inten    --      2.1049                 1.0862                 0.3656

                     73                     74                     75
                      A                      A                      A
 Frequencies --   1352.1675              1374.2227              1380.7286
 Red. masses --      1.3212                 1.4091                 1.4480
 Frc consts  --      1.4232                 1.5678                 1.6264
 IR Inten    --      2.0968                 0.0897                 3.4986

                     76                     77                     78
                      A                      A                      A
 Frequencies --   1384.5751              1387.0191              1397.8755
 Red. masses --      1.4817                 1.3505                 1.3667
 Frc consts  --      1.6736                 1.5308                 1.5735
 IR Inten    --      0.6748                 8.8983                 7.8130

                     79                     80                     81
                      A                      A                      A
 Frequencies --   1403.5517              1425.0658              1437.0929
 Red. masses --      1.3557                 1.3735                 1.2511
 Frc consts  --      1.5735                 1.6434                 1.5224
 IR Inten    --      4.3771                 5.4897                10.7809

                     82                     83                     84
                      A                      A                      A
 Frequencies --   1439.6187              1442.5266              1500.4754
 Red. masses --      1.2492                 1.2578                 1.1853
 Frc consts  --      1.5254                 1.5421                 1.5723
 IR Inten    --      5.4393                13.6245                 8.9898

                     85                     86                     87
                      A                      A                      A
 Frequencies --   1512.6907              1515.5735              1520.3442
 Red. masses --      1.0714                 1.0671                 1.0715
 Frc consts  --      1.4444                 1.4442                 1.4592
 IR Inten    --      1.3167                 0.9798                 4.4802

                     88                     89                     90
                      A                      A                      A
 Frequencies --   1524.6516              1526.2828              1529.4735
 Red. masses --      1.0788                 1.0722                 1.0570
 Frc consts  --      1.4774                 1.4716                 1.4568
 IR Inten    --      7.7539                 1.2602                 1.7218

                     91                     92                     93
                      A                      A                      A
 Frequencies --   1532.0735              1535.2387              1537.6505
 Red. masses --      1.0492                 1.0574                 1.0689
 Frc consts  --      1.4510                 1.4684                 1.4891
 IR Inten    --      5.7826                 4.1888                 3.7524

                     94                     95                     96
                      A                      A                      A
 Frequencies --   1539.8364              1546.7834              1570.2883
 Red. masses --      1.0665                 1.0802                 1.0840
 Frc consts  --      1.4898                 1.5227                 1.5748
 IR Inten    --      2.2940                12.0447                 8.1598

                     97                     98                     99
                      A                      A                      A
 Frequencies --   2966.3589              3026.6243              3043.2936
 Red. masses --      1.0824                 1.0635                 1.0376
 Frc consts  --      5.6118                 5.7399                 5.6620
 IR Inten    --     46.1756                20.0200                26.6864

                    100                    101                    102
                      A                      A                      A
 Frequencies --   3048.8876              3049.4510              3049.8818
 Red. masses --      1.0664                 1.0490                 1.0488
 Frc consts  --      5.8406                 5.7472                 5.7481
 IR Inten    --     24.4740                12.7127                 3.6033

                    103                    104                    105
                      A                      A                      A
 Frequencies --   3051.0381              3052.1091              3057.7790
 Red. masses --      1.0648                 1.0777                 1.0614
 Frc consts  --      5.8398                 5.9147                 5.8469
 IR Inten    --     37.0826                 1.3937                14.9642

                    106                    107                    108
                      A                      A                      A
 Frequencies --   3058.6712              3061.4014              3064.8512
 Red. masses --      1.0738                 1.0886                 1.0850
 Frc consts  --      5.9189                 6.0109                 6.0050
 IR Inten    --     55.9093                52.1950                37.3238

                    109                    110                    111
                      A                      A                      A
 Frequencies --   3067.4778              3091.7406              3093.1011
 Red. masses --      1.0734                 1.0859                 1.0973
 Frc consts  --      5.9508                 6.1159                 6.1852
 IR Inten    --     89.7633               102.8102                 5.6972

                    112                    113                    114
                      A                      A                      A
 Frequencies --   3099.2154              3105.6971              3107.4172
 Red. masses --      1.0882                 1.1075                 1.1005
 Frc consts  --      6.1581                 6.2936                 6.2607
 IR Inten    --     49.6848                42.1287                15.0621

                    115                    116                    117
                      A                      A                      A
 Frequencies --   3110.9042              3112.9872              3119.5644
 Red. masses --      1.1010                 1.1005                 1.1013
 Frc consts  --      6.2778                 6.2832                 6.3146
 IR Inten    --     66.8590                40.7264                31.3724

                    118                    119                    120
                      A                      A                      A
 Frequencies --   3121.4090              3122.3013              3139.3816
 Red. masses --      1.1002                 1.1012                 1.0906
 Frc consts  --      6.3159                 6.3253                 6.3332
 IR Inten    --     38.1753                55.9490                37.7206

                    121                    122                    123
                      A                      A                      A
 Frequencies --   3158.8239              3179.2097              3485.3848
 Red. masses --      1.0934                 1.0880                 1.0740
 Frc consts  --      6.4280                 6.4790                 7.6872
 IR Inten    --      0.7125                20.7989                 0.7376

 - Thermochemistry -
 -------------------
 Temperature   298.150 Kelvin.  Pressure   1.00000 Atm.
 Atom     1 has atomic number  6 and mass  12.00000

 Molecular mass:   221.21435 amu.
 Principal axes and moments of inertia in atomic units:
                           1         2         3
     Eigenvalues --  2574.094473879.573444897.38584
           X            0.99995   0.00619   0.00720
           Y           -0.00625   0.99995   0.00759
           Z           -0.00716  -0.00764   0.99995
 This molecule is an asymmetric top.
 Rotational symmetry number  1.
 Warning -- assumption of classical behavior for rotation
           may cause significant error
 Rotational temperatures (Kelvin)      0.03365     0.02233     0.01769
 Rotational constants (GHZ):           0.70112     0.46519     0.36851
 Zero-point vibrational energy    1055828.9 (Joules/Mol)
                                  252.34917 (Kcal/Mol)
 Warning -- explicit consideration of  24 degrees of freedom as
           vibrations may cause significant error
 Vibrational temperatures:     75.75    89.80   147.03   161.81   193.53
          (Kelvin)            207.87   232.88   276.17   293.97   323.90
                              334.63   386.30   401.28   431.89   459.12
                              496.29   508.52   561.79   648.59   687.59
                              711.15   772.32   837.13   869.31   972.07
                             1036.09  1052.27  1091.02  1123.47  1141.84
                             1167.01  1176.04  1188.53  1231.81  1245.82
                             1293.31  1307.23  1313.71  1333.19  1346.68
                             1382.99  1398.47  1416.68  1432.21  1474.76
                             1498.84  1509.47  1526.86  1538.69  1541.75
                             1572.95  1598.85  1622.80  1635.11  1667.78
                             1676.83  1689.37  1697.58  1717.26  1750.90
                             1758.45  1776.78  1793.80  1840.21  1843.45
                             1862.95  1867.93  1888.91  1907.37  1918.44
                             1938.44  1940.51  1945.47  1977.20  1986.56
                             1992.09  1995.61  2011.23  2019.40  2050.35
                             2067.66  2071.29  2075.47  2158.85  2176.42
                             2180.57  2187.44  2193.63  2195.98  2200.57
                             2204.31  2208.87  2212.34  2215.48  2225.48
                             2259.29  4267.93  4354.64  4378.62  4386.67
                             4387.48  4388.10  4389.76  4391.30  4399.46
                             4400.75  4404.67  4409.64  4413.42  4448.33
                             4450.28  4459.08  4468.41  4470.88  4475.90
                             4478.89  4488.36  4491.01  4492.30  4516.87
                             4544.84  4574.17  5014.69

 Zero-point correction=                           0.402144 (Hartree/Particle)
 Thermal correction to Energy=                    0.418194
 Thermal correction to Enthalpy=                  0.419139
 Thermal correction to Gibbs Free Energy=         0.360047
 Sum of electronic and zero-point Energies=           -642.242863
 Sum of electronic and thermal Energies=              -642.226812
 Sum of electronic and thermal Enthalpies=            -642.225868
 Sum of electronic and thermal Free Energies=         -642.284960

                     E (Thermal)             CV                S
                      KCal/Mol        Cal/Mol-Kelvin    Cal/Mol-Kelvin
 Total                  262.421             65.027            124.369
 Electronic               0.000              0.000              0.000
 Translational            0.889              2.981             42.085
 Rotational               0.889              2.981             32.259
 Vibrational            260.644             59.065             50.026
 Vibration     1          0.596              1.977              4.715
 Vibration     2          0.597              1.972              4.379
 Vibration     3          0.604              1.947              3.412
 Vibration     4          0.607              1.939              3.226
 Vibration     5          0.613              1.919              2.881
 Vibration     6          0.616              1.909              2.744
 Vibration     7          0.622              1.889              2.528
 Vibration     8          0.634              1.851              2.209
 Vibration     9          0.640              1.834              2.094
 Vibration    10          0.650              1.803              1.918
 Vibration    11          0.653              1.791              1.859
 Vibration    12          0.673              1.731              1.606
 Vibration    13          0.679              1.713              1.540
 Vibration    14          0.693              1.673              1.416
 Vibration    15          0.705              1.637              1.315
 Vibration    16          0.723              1.586              1.189
 Vibration    17          0.730              1.568              1.151
 Vibration    18          0.758              1.491              0.998
 Vibration    19          0.810              1.359              0.793
 Vibration    20          0.834              1.299              0.716
 Vibration    21          0.850              1.263              0.673
 Vibration    22          0.892              1.169              0.572
 Vibration    23          0.939              1.071              0.482
 Vibration    24          0.963              1.023              0.442

 Optimization completed.
    -- Stationary point found.
 Normal termination of Gaussian 16 at Thu Dec 10 22:40:44 2020.

 ----------------------------------------------------------------------
 # B3LYP/6-311++G(d,p) empiricaldispersion=gd3bj scf=xqc pop=npa geom=c
 heck
 ----------------------------------------------------------------------

 --------------------------------------
 CID_81494793_JID_6348_Energie_neutraal
 --------------------------------------
 Structure from the checkpoint file:  "JID_6348.chk"
 Charge =  0 Multiplicity = 1

 SCF Done:  E(RB3LYP) =  -642.815858928     A.U. after   14 cycles
 Normal termination of Gaussian 16 at Thu Dec 10 22:49:51 2020.

 ----------------------------------------------------------------------
 # B3LYP/6-311++G(d,p) empiricaldispersion=gd3bj scf=xqc pop=npa geom=c
 heck
 ----------------------------------------------------------------------

 ------------------------------------
 CID_81494793_JID_6348_Energie_kation
 ------------------------------------
 Structure from the checkpoint file:  "JID_6348.chk"
 Charge =  1 Multiplicity = 2

 SCF Done:  E(UB3LYP) =  -642.531117896     A.U. after   19 cycles
 Normal termination of Gaussian 16 at Thu Dec 10 23:07:49 2020.
 Gaussian 16:  ES64L-G16RevA.03 25-Dec-2016

 ----------------------------------------------------------------------
 # B3LYP/6-311++G(d,p) empiricaldispersion=gd3bj scf=xqc pop=npa geom=c
 heck
 ----------------------------------------------------------------------

 -----------------------------------
 CID_81494793_JID_6348_Energie_anion
 -----------------------------------
 Structure from the checkpoint file:  "JID_6348.chk"
 Charge = -1 Multiplicity = 2

                         Standard orientation:
 ---------------------------------------------------------------------
 Center     Atomic      Atomic             Coordinates (Angstroms)
 Number     Number       Type             X           Y           Z
 ---------------------------------------------------------------------
      1          6           0       -2.689067    1.914483   -0.870514
      2          6           0       -1.202933    1.782751   -1.211382
      3          6           0       -0.374968    0.883979   -0.268331
      4          6           0        1.042237    0.651631   -0.931232
      5          6           0        2.453047    0.604531   -0.277001
      6          6           0        2.486844    0.069939    1.167471
      7          6           0        2.005976   -1.404424    1.011592
      8          6           0        1.898402   -1.589264   -0.524749
      9          6           0        3.020627   -0.637440   -1.017141
     10          6           0        0.691764   -0.853165   -1.158255
     11          6           0       -0.710702   -0.643877   -0.519596
     12          7           0       -1.055841   -1.474366    0.624803
     13          6           0       -2.475164   -1.494349    0.985638
     14          6           0       -3.415090   -2.180179   -0.015488
     15          6           0       -0.470436    1.357566    1.183651
     16          6           0        0.166663    2.726976    1.438302
     17          1           0       -3.170374    0.932215   -0.795402
     18          1           0       -3.214658    2.479777   -1.648154
     19          1           0       -2.848927    2.436677    0.078440
     20          1           0       -1.110852    1.380296   -2.229762
     21          1           0       -0.744826    2.780098   -1.246045
     22          1           0        1.128971    1.235258   -1.854348
     23          1           0        3.018699    1.531801   -0.408173
     24          1           0        1.893359    0.646601    1.873885
     25          1           0        3.522622    0.104092    1.525812
     26          1           0        1.056939   -1.580254    1.516857
     27          1           0        2.745255   -2.104629    1.416666
     28          1           0        1.989436   -2.632428   -0.842850
     29          1           0        4.018281   -0.925378   -0.665530
     30          1           0        3.046673   -0.525522   -2.107002
     31          1           0        0.615584   -1.158370   -2.207634
     32          1           0       -1.474902   -0.715313   -1.310239
     33          1           0       -0.738896   -2.426054    0.448332
     34          1           0       -2.560700   -1.991094    1.960263
     35          1           0       -2.791519   -0.457325    1.140399
     36          1           0       -3.131696   -3.230513   -0.158161
     37          1           0       -4.449925   -2.158485    0.346028
     38          1           0       -3.395401   -1.692042   -0.995730
     39          1           0       -1.528795    1.403582    1.468441
     40          1           0       -0.040758    0.601491    1.841756
     41          1           0        1.214937    2.747141    1.121538
     42          1           0       -0.355237    3.522823    0.895329
     43          1           0        0.134382    2.981172    2.503878
 ---------------------------------------------------------------------

 SCF Done:  E(UB3LYP) =  -642.801065566     A.U. after   28 cycles

 The electronic state is 2-A.
 Alpha  occ. eigenvalues --  -14.19447 -10.09356 -10.08933 -10.07541 -10.07189
 Alpha  occ. eigenvalues --  -10.07002 -10.06480 -10.06337 -10.06293 -10.06244
 Alpha  occ. eigenvalues --  -10.06212 -10.06181 -10.06076 -10.06009 -10.05958
 Alpha  occ. eigenvalues --  -10.05380  -0.81180  -0.77205  -0.72128  -0.66850
 Alpha  occ. eigenvalues --   -0.65030  -0.63682  -0.61583  -0.60656  -0.55869
 Alpha  occ. eigenvalues --   -0.54279  -0.52595  -0.50653  -0.48778  -0.45334
 Alpha  occ. eigenvalues --   -0.43734  -0.40922  -0.40579  -0.38533  -0.38112
 Alpha  occ. eigenvalues --   -0.36513  -0.35066  -0.34833  -0.33659  -0.32835
 Alpha  occ. eigenvalues --   -0.31397  -0.30948  -0.30061  -0.29643  -0.28717
 Alpha  occ. eigenvalues --   -0.28140  -0.27116  -0.27082  -0.25794  -0.25137
 Alpha  occ. eigenvalues --   -0.24906  -0.24638  -0.24355  -0.23636  -0.22904
 Alpha  occ. eigenvalues --   -0.22667  -0.21618  -0.19932  -0.18927  -0.18419
 Alpha  occ. eigenvalues --   -0.17093  -0.11861   0.04312
 Alpha virt. eigenvalues --    0.06265   0.06544   0.07115   0.08130   0.08174
 Alpha virt. eigenvalues --    0.08761   0.08970   0.09176   0.10190   0.10692
 Alpha virt. eigenvalues --    0.10954   0.11084   0.11314   0.11875   0.12374

  Beta  occ. eigenvalues --  -14.19439 -10.09345 -10.08924 -10.07543 -10.07182
  Beta  occ. eigenvalues --  -10.06991 -10.06465 -10.06325 -10.06289 -10.06230
  Beta  occ. eigenvalues --  -10.06201 -10.06160 -10.06068 -10.05972 -10.05949
  Beta  occ. eigenvalues --  -10.05371  -0.81159  -0.77182  -0.72110  -0.66828
  Beta  occ. eigenvalues --   -0.65003  -0.63645  -0.61554  -0.60628  -0.55836
  Beta  occ. eigenvalues --   -0.54242  -0.52552  -0.50602  -0.48741  -0.45299
  Beta  occ. eigenvalues --   -0.43704  -0.40885  -0.40541  -0.38503  -0.38092
  Beta  occ. eigenvalues --   -0.36495  -0.35038  -0.34809  -0.33633  -0.32810
  Beta  occ. eigenvalues --   -0.31372  -0.30920  -0.30028  -0.29615  -0.28687
  Beta  occ. eigenvalues --   -0.28114  -0.27078  -0.27048  -0.25772  -0.25114
  Beta  occ. eigenvalues --   -0.24884  -0.24611  -0.24330  -0.23615  -0.22883
  Beta  occ. eigenvalues --   -0.22645  -0.21594  -0.19913  -0.18906  -0.18395
  Beta  occ. eigenvalues --   -0.17074  -0.11847
  Beta virt. eigenvalues --    0.06236   0.06918   0.07126   0.07592   0.08565
  Beta virt. eigenvalues --    0.08669   0.09075   0.09285   0.09475   0.10533
  Beta virt. eigenvalues --    0.11012   0.11262   0.11396   0.11642   0.12126

 Mulliken charges and spin densities:
               1          2
     1  C    0.614206  -1.245299
     2  C   -0.667633   0.303174
     3  C    0.735603  -0.024017
     4  C    0.366109  -0.409570
     5  C   -0.092068   0.314514
     6  C    0.012665  -0.519907
     7  C    0.151500  -0.595928
     8  C   -0.199198   0.310980
     9  C   -0.203874  -0.534280
    10  C    0.575824  -0.844044
    11  C   -0.541386  -0.244207
    12  N    0.045510   0.052173
    13  C   -0.324610   0.246810
    14  C    0.832060  -1.327738
    15  C   -0.953628   0.597760
    16  C   -0.351602  -0.445292
    17  H    0.212423  -0.056118
    18  H   -0.196619   0.342969
    19  H   -0.042064   0.179991
    20  H   -0.185913   0.325166
    21  H   -0.001529   0.157526
    22  H    0.050144   0.195857
    23  H   -0.140112   0.351371
    24  H    0.218932  -0.100019
    25  H   -0.022251   0.181132
    26  H    0.050891   0.079333
    27  H   -0.069073   0.240419
    28  H   -0.525966   0.748691
    29  H   -0.134725   0.295779
    30  H   -0.067884   0.207943
    31  H   -0.334328   0.559233
    32  H    0.607955  -0.397088
    33  H    0.236163  -0.014483
    34  H   -0.205569   0.376655
    35  H    0.209505  -0.078070
    36  H   -0.242555   0.383033
    37  H   -0.188952   0.325993
    38  H   -0.529185   0.660462
    39  H   -0.006047   0.114855
    40  H    0.192152  -0.028335
    41  H    0.045209   0.110614
    42  H    0.067859   0.062224
    43  H    0.002061   0.139737
 Sum of Mulliken charges =  -1.00000   1.00000

 Dipole moment (field-independent basis, Debye):
    X=              1.1663    Y=              3.1265    Z=              2.8229  Tot=              4.3708
 Quadrupole moment (field-independent basis, Debye-Ang):
   XX=           -172.4421   YY=           -158.6856   ZZ=           -145.1219
   XY=             -2.4240   XZ=             -1.9272   YZ=             -0.9408

 Summary of Natural Population Analysis:

                                       Natural Population
                Natural  -----------------------------------------------
    Atom  No    Charge         Core      Valence    Rydberg      Total
 -----------------------------------------------------------------------
      C    1   -0.28826      0.99965     2.28330    0.00531     3.28826
      C    2   -0.18816      0.99959     2.17827    0.01029     3.18816
      C    3   -0.02976      0.99952     2.01469    0.01555     3.02976
      C    4   -0.10024      0.99955     2.08760    0.01309     3.10024
      C    5   -0.10969      0.99959     2.09835    0.01175     3.10969
      C    6   -0.19395      0.99962     2.18613    0.00819     3.19395
      C    7   -0.20195      0.99962     2.19372    0.00860     3.20195
      C    8   -0.10855      0.99959     2.09654    0.01242     3.10855
      C    9   -0.18619      0.99962     2.17767    0.00890     3.18619
      C   10   -0.10700      0.99957     2.09469    0.01275     3.10700
      C   11   -0.00197      0.99951     1.98674    0.01572     3.00197
      N   12   -0.34279      0.99973     2.83175    0.01131     3.84279
      C   13   -0.08614      0.99963     2.07585    0.01065     3.08614
      C   14   -0.29583      0.99966     2.29152    0.00465     3.29583
      C   15   -0.19876      0.99958     2.19008    0.00910     3.19876
      C   16   -0.28554      0.99966     2.28161    0.00427     3.28554
      H   17    0.09834      0.00000     0.40045    0.00121     0.40166
      H   18    0.09975      0.00000     0.39949    0.00076     0.40025
      H   19    0.09480      0.00000     0.40428    0.00092     0.40520
      H   20    0.09779      0.00000     0.40091    0.00130     0.40221
      H   21    0.09654      0.00000     0.40240    0.00106     0.40346
      H   22    0.10106      0.00000     0.39743    0.00151     0.39894
      H   23    0.10078      0.00000     0.39825    0.00097     0.39922
      H   24    0.10016      0.00000     0.39871    0.00113     0.39984
      H   25    0.09543      0.00000     0.40352    0.00106     0.40457
      H   26    0.11258      0.00000     0.38564    0.00178     0.38742
      H   27    0.09602      0.00000     0.40296    0.00103     0.40398
      H   28    0.10327      0.00000     0.39518    0.00155     0.39673
      H   29    0.09802      0.00000     0.40091    0.00107     0.40198
      H   30    0.10010      0.00000     0.39871    0.00120     0.39990
      H   31    0.10241      0.00000     0.39602    0.00157     0.39759
      H   32    0.08538      0.00000     0.41190    0.00272     0.41462
      H   33    0.17450      0.00000     0.32292    0.00259     0.32550
      H   34    0.08954      0.00000     0.40953    0.00093     0.41046
      H   35    0.09040      0.00000     0.40800    0.00160     0.40960
      H   36    0.09673      0.00000     0.40175    0.00152     0.40327
      H   37    0.09868      0.00000     0.40019    0.00113     0.40132
      H   38    0.09839      0.00000     0.40033    0.00128     0.40161
      H   39    0.09673      0.00000     0.40158    0.00169     0.40327
      H   40    0.10691      0.00000     0.39149    0.00160     0.39309
      H   41    0.09878      0.00000     0.40020    0.00102     0.40122
      H   42    0.09564      0.00000     0.40348    0.00088     0.40436
      H   43    0.09605      0.00000     0.40323    0.00072     0.40395
 =======================================================================
   * Total *   -0.00000     15.99368    45.80795    0.19837    62.00000

 Normal termination of Gaussian 16 at Thu Dec 10 23:31:23 2020.
