 Gaussian 16, Revision A.03,

 -----------------------------------------------------------
 # opt freq B3LYP/6-31G(d) empiricaldispersion=gd3bj scf=xqc
 -----------------------------------------------------------

 -------------------------------
 CID_154184619_JID_3748_neutraal
 -------------------------------
 Symbolic Z-matrix:
 Charge =  0 Multiplicity = 1

 SCF Done:  E(RB3LYP) =  -596.574234894     A.U. after   15 cycles
 SCF Done:  E(RB3LYP) =  -596.577778551     A.U. after   12 cycles
 SCF Done:  E(RB3LYP) =  -596.578324925     A.U. after   12 cycles
 SCF Done:  E(RB3LYP) =  -596.578753791     A.U. after   12 cycles
 SCF Done:  E(RB3LYP) =  -596.578989325     A.U. after   12 cycles
 SCF Done:  E(RB3LYP) =  -596.579290915     A.U. after   14 cycles
 SCF Done:  E(RB3LYP) =  -596.579372291     A.U. after   14 cycles
 SCF Done:  E(RB3LYP) =  -596.579031116     A.U. after   14 cycles
 SCF Done:  E(RB3LYP) =  -596.580365497     A.U. after   12 cycles
 SCF Done:  E(RB3LYP) =  -596.582280799     A.U. after   14 cycles
 SCF Done:  E(RB3LYP) =  -596.583660545     A.U. after    8 cycles
 SCF Done:  E(RB3LYP) =  -596.583664694     A.U. after   10 cycles
 SCF Done:  E(RB3LYP) =  -596.583666598     A.U. after   10 cycles
 SCF Done:  E(RB3LYP) =  -596.583666713     A.U. after    7 cycles
 SCF Done:  E(RB3LYP) =  -596.583666909     A.U. after    7 cycles
 Optimization completed.
    -- Stationary point found.
 Normal termination of Gaussian 16 at Mon Dec 14 16:43:01 2020.

 --------------------------------------------------------------------
 #N Geom=AllCheck Guess=TCheck SCRF=Check GenChk RB3LYP/6-31G(d) Freq
 --------------------------------------------------------------------

 Structure from the checkpoint file:  "JID_3748.chk"
 -------------------------------
 CID_154184619_JID_3748_neutraal
 -------------------------------
 Charge =  0 Multiplicity = 1

 SCF Done:  E(RB3LYP) =  -596.583666909     A.U. after    1 cycles

  Exact polarizability: 119.647   0.924 115.526  -1.540   0.503  97.687
 Approx polarizability: 150.555   2.846 170.453  -7.289   3.528 156.970

                      1                      2                      3
                      A                      A                      A
 Frequencies --     38.2398                67.4498                79.2679
 Red. masses --      2.9227                 5.0965                 3.8703
 Frc consts  --      0.0025                 0.0137                 0.0143
 IR Inten    --      3.2625                 1.6097                 1.1193

                      4                      5                      6
                      A                      A                      A
 Frequencies --    103.1727               112.3191               144.9414
 Red. masses --      1.4467                 1.9600                 3.8984
 Frc consts  --      0.0091                 0.0146                 0.0483
 IR Inten    --      1.0053                 1.7419                 4.0210

                      7                      8                      9
                      A                      A                      A
 Frequencies --    205.6702               233.8225               251.5442
 Red. masses --      1.7577                 2.7084                 1.3539
 Frc consts  --      0.0438                 0.0872                 0.0505
 IR Inten    --      0.4369                 1.3868                 0.0262

                     10                     11                     12
                      A                      A                      A
 Frequencies --    285.5860               297.9555               324.6434
 Red. masses --      1.6982                 1.7299                 2.4250
 Frc consts  --      0.0816                 0.0905                 0.1506
 IR Inten    --      1.3421                 0.2257                 1.7629

                     13                     14                     15
                      A                      A                      A
 Frequencies --    336.1560               364.8262               418.3995
 Red. masses --      2.7027                 2.7488                 3.1131
 Frc consts  --      0.1799                 0.2156                 0.3211
 IR Inten    --      2.3692                 2.1253                 8.3877

                     16                     17                     18
                      A                      A                      A
 Frequencies --    455.2556               475.0437               483.6196
 Red. masses --      3.4518                 2.0848                 2.8121
 Frc consts  --      0.4215                 0.2772                 0.3875
 IR Inten    --      2.3878                 0.7461                 5.9441

                     19                     20                     21
                      A                      A                      A
 Frequencies --    519.1081               529.6200               579.7265
 Red. masses --      3.0534                 2.2618                 3.1204
 Frc consts  --      0.4848                 0.3738                 0.6179
 IR Inten    --     12.4750                 0.7334                 4.8852

                     22                     23                     24
                      A                      A                      A
 Frequencies --    602.0085               702.9440               738.8526
 Red. masses --      3.8185                 3.3105                 3.3278
 Frc consts  --      0.8154                 0.9638                 1.0704
 IR Inten    --      7.9757                 9.7048                 2.9878

                     25                     26                     27
                      A                      A                      A
 Frequencies --    740.6490               786.0354               846.0343
 Red. masses --      1.2862                 2.2207                 3.4948
 Frc consts  --      0.4157                 0.8084                 1.4738
 IR Inten    --    103.0140                 7.7031                 1.8522

                     28                     29                     30
                      A                      A                      A
 Frequencies --    868.9317               906.8451               932.3085
 Red. masses --      1.9533                 1.8268                 2.0691
 Frc consts  --      0.8689                 0.8852                 1.0596
 IR Inten    --      4.5551                 0.8809                 3.0030

                     31                     32                     33
                      A                      A                      A
 Frequencies --    945.6380               971.1614               988.5610
 Red. masses --      1.9681                 1.4329                 2.0353
 Frc consts  --      1.0369                 0.7963                 1.1719
 IR Inten    --      8.0873                 2.4629                 6.4169

                     34                     35                     36
                      A                      A                      A
 Frequencies --   1016.8989              1025.4310              1044.0870
 Red. masses --      1.6381                 1.6144                 1.7157
 Frc consts  --      0.9980                 1.0002                 1.1020
 IR Inten    --      4.7313                 6.8116                 3.7273

                     37                     38                     39
                      A                      A                      A
 Frequencies --   1066.9525              1097.4150              1121.7763
 Red. masses --      1.7678                 2.6124                 2.2001
 Frc consts  --      1.1857                 1.8536                 1.6312
 IR Inten    --      0.1223                 5.5299                25.2173

                     40                     41                     42
                      A                      A                      A
 Frequencies --   1168.0487              1193.3145              1215.4816
 Red. masses --      1.5297                 1.9364                 1.9832
 Frc consts  --      1.2296                 1.6246                 1.7263
 IR Inten    --      0.6297                49.7658                 6.9721

                     43                     44                     45
                      A                      A                      A
 Frequencies --   1233.7618              1244.1435              1268.1909
 Red. masses --      2.3789                 1.3135                 1.5602
 Frc consts  --      2.1334                 1.1979                 1.4784
 IR Inten    --     68.1460                 0.4695                 1.9156

                     46                     47                     48
                      A                      A                      A
 Frequencies --   1298.4523              1337.1751              1353.1965
 Red. masses --      2.0818                 1.8313                 1.7455
 Frc consts  --      2.0679                 1.9292                 1.8831
 IR Inten    --     24.8576                39.9698                31.9183

                     49                     50                     51
                      A                      A                      A
 Frequencies --   1371.0665              1395.7141              1399.6054
 Red. masses --      1.3876                 1.6818                 1.6010
 Frc consts  --      1.5369                 1.9303                 1.8478
 IR Inten    --     12.1489                25.6205                29.0918

                     52                     53                     54
                      A                      A                      A
 Frequencies --   1413.9629              1423.6479              1431.7303
 Red. masses --      1.3302                 1.4877                 1.2634
 Frc consts  --      1.5669                 1.7766                 1.5258
 IR Inten    --     34.9737                17.7480                 4.2296

                     55                     56                     57
                      A                      A                      A
 Frequencies --   1451.0546              1471.5390              1489.8623
 Red. masses --      1.2406                 1.1083                 1.5077
 Frc consts  --      1.5391                 1.4140                 1.9717
 IR Inten    --     12.4873                15.5327                64.9140

                     58                     59                     60
                      A                      A                      A
 Frequencies --   1493.8579              1500.3831              1504.3104
 Red. masses --      1.0621                 1.3089                 1.0513
 Frc consts  --      1.3965                 1.7360                 1.4017
 IR Inten    --     13.4992                11.2759                11.5516

                     61                     62                     63
                      A                      A                      A
 Frequencies --   1517.0335              1524.0252              1532.7026
 Red. masses --      1.0625                 1.0513                 1.0837
 Frc consts  --      1.4407                 1.4386                 1.4999
 IR Inten    --      5.2493                 2.5269                 3.9923

                     64                     65                     66
                      A                      A                      A
 Frequencies --   1537.7269              1549.5566              1789.5459
 Red. masses --      1.0569                 1.0628                 9.3078
 Frc consts  --      1.4725                 1.5036                17.5624
 IR Inten    --      1.9479                12.3543               432.8400

                     67                     68                     69
                      A                      A                      A
 Frequencies --   1808.1775              3037.9348              3042.4050
 Red. masses --      9.5777                 1.0604                 1.0452
 Frc consts  --     18.4499                 5.7660                 5.7003
 IR Inten    --     96.5024                18.7923                 2.5555

                     70                     71                     72
                      A                      A                      A
 Frequencies --   3046.5416              3051.2341              3054.1314
 Red. masses --      1.0463                 1.0501                 1.0472
 Frc consts  --      5.7215                 5.7599                 5.7549
 IR Inten    --     29.3643                 6.5178                17.1070

                     73                     74                     75
                      A                      A                      A
 Frequencies --   3055.5325              3057.4848              3076.5014
 Red. masses --      1.0702                 1.0731                 1.0963
 Frc consts  --      5.8869                 5.9103                 6.1137
 IR Inten    --     25.9873                 4.6626                39.3141

                     76                     77                     78
                      A                      A                      A
 Frequencies --   3086.1767              3107.8813              3111.0378
 Red. masses --      1.0987                 1.1020                 1.0987
 Frc consts  --      6.1655                 6.2715                 6.2654
 IR Inten    --     19.3369                 1.3696                10.4495

                     79                     80                     81
                      A                      A                      A
 Frequencies --   3113.6230              3118.4272              3119.4553
 Red. masses --      1.1013                 1.0980                 1.0993
 Frc consts  --      6.2904                 6.2908                 6.3029
 IR Inten    --     58.0618                 8.4522                45.0013

                     82                     83                     84
                      A                      A                      A
 Frequencies --   3144.0007              3169.2560              3588.6174
 Red. masses --      1.0993                 1.1022                 1.0756
 Frc consts  --      6.4020                 6.5226                 8.1610
 IR Inten    --     19.7217                 8.9957                43.5851

 - Thermochemistry -
 -------------------
 Temperature   298.150 Kelvin.  Pressure   1.00000 Atm.
 Atom     1 has atomic number  6 and mass  12.00000

 Molecular mass:   183.12593 amu.
 Principal axes and moments of inertia in atomic units:
                           1         2         3
     Eigenvalues --  1780.614802871.027933821.12750
           X            0.99951  -0.02291   0.02114
           Y            0.02294   0.99974  -0.00141
           Z           -0.02110   0.00189   0.99978
 This molecule is an asymmetric top.
 Rotational symmetry number  1.
 Warning -- assumption of classical behavior for rotation
           may cause significant error
 Rotational temperatures (Kelvin)      0.04864     0.03017     0.02267
 Rotational constants (GHZ):           1.01355     0.62860     0.47231
 Zero-point vibrational energy     691479.9 (Joules/Mol)
                                  165.26765 (Kcal/Mol)
 Warning -- explicit consideration of  22 degrees of freedom as
           vibrations may cause significant error
 Vibrational temperatures:     55.02    97.05   114.05   148.44   161.60
          (Kelvin)            208.54   295.91   336.42   361.92   410.89
                              428.69   467.09   483.65   524.90   601.98
                              655.01   683.48   695.82   746.88   762.01
                              834.10   866.16  1011.38  1063.04  1065.63
                             1130.93  1217.25  1250.20  1304.75  1341.38
                             1360.56  1397.28  1422.32  1463.09  1475.37
                             1502.21  1535.11  1578.94  1613.99  1680.56
                             1716.91  1748.81  1775.11  1790.04  1824.64
                             1868.18  1923.90  1946.95  1972.66  2008.12
                             2013.72  2034.38  2048.31  2059.94  2087.74
                             2117.22  2143.58  2149.33  2158.72  2164.37
                             2182.67  2192.73  2205.22  2212.45  2229.47
                             2574.76  2601.56  4370.91  4377.34  4383.29
                             4390.05  4394.21  4396.23  4399.04  4426.40
                             4440.32  4471.55  4476.09  4479.81  4486.72
                             4488.20  4523.52  4559.85  5163.22

 Zero-point correction=                           0.263371 (Hartree/Particle)
 Thermal correction to Energy=                    0.277163
 Thermal correction to Enthalpy=                  0.278107
 Thermal correction to Gibbs Free Energy=         0.222953
 Sum of electronic and zero-point Energies=           -596.320296
 Sum of electronic and thermal Energies=              -596.306504
 Sum of electronic and thermal Enthalpies=            -596.305560
 Sum of electronic and thermal Free Energies=         -596.360714

                     E (Thermal)             CV                S
                      KCal/Mol        Cal/Mol-Kelvin    Cal/Mol-Kelvin
 Total                  173.922             52.328            116.081
 Electronic               0.000              0.000              0.000
 Translational            0.889              2.981             41.521
 Rotational               0.889              2.981             31.347
 Vibrational            172.145             46.366             43.213
 Vibration     1          0.594              1.982              5.348
 Vibration     2          0.598              1.970              4.226
 Vibration     3          0.600              1.963              3.909
 Vibration     4          0.605              1.947              3.393
 Vibration     5          0.607              1.939              3.228
 Vibration     6          0.616              1.908              2.738
 Vibration     7          0.640              1.832              2.082
 Vibration     8          0.654              1.789              1.849
 Vibration     9          0.664              1.760              1.720
 Vibration    10          0.683              1.700              1.500
 Vibration    11          0.691              1.678              1.428
 Vibration    12          0.709              1.626              1.287
 Vibration    13          0.717              1.603              1.230
 Vibration    14          0.738              1.545              1.101
 Vibration    15          0.781              1.430              0.897
 Vibration    16          0.814              1.349              0.780
 Vibration    17          0.832              1.305              0.724
 Vibration    18          0.840              1.286              0.700
 Vibration    19          0.874              1.208              0.612
 Vibration    20          0.885              1.184              0.588
 Vibration    21          0.936              1.075              0.486
 Vibration    22          0.960              1.028              0.446

 Optimization completed.
    -- Stationary point found.
 Normal termination of Gaussian 16 at Mon Dec 14 16:51:24 2020.

 ----------------------------------------------------------------------
 # B3LYP/6-311++G(d,p) empiricaldispersion=gd3bj scf=xqc pop=npa geom=c
 heck
 ----------------------------------------------------------------------

 ---------------------------------------
 CID_154184619_JID_3748_Energie_neutraal
 ---------------------------------------
 Structure from the checkpoint file:  "JID_3748.chk"
 Charge =  0 Multiplicity = 1

 SCF Done:  E(RB3LYP) =  -596.759447663     A.U. after   14 cycles
 Normal termination of Gaussian 16 at Mon Dec 14 16:55:08 2020.

 ----------------------------------------------------------------------
 # B3LYP/6-311++G(d,p) empiricaldispersion=gd3bj scf=xqc pop=npa geom=c
 heck
 ----------------------------------------------------------------------

 -------------------------------------
 CID_154184619_JID_3748_Energie_kation
 -------------------------------------
 Structure from the checkpoint file:  "JID_3748.chk"
 Charge =  1 Multiplicity = 2

 SCF Done:  E(UB3LYP) =  -596.436942825     A.U. after   28 cycles
 Normal termination of Gaussian 16 at Mon Dec 14 17:05:11 2020.
 Gaussian 16:  ES64L-G16RevA.03 25-Dec-2016

 ----------------------------------------------------------------------
 # B3LYP/6-311++G(d,p) empiricaldispersion=gd3bj scf=xqc pop=npa geom=c
 heck
 ----------------------------------------------------------------------

 ------------------------------------
 CID_154184619_JID_3748_Energie_anion
 ------------------------------------
 Structure from the checkpoint file:  "JID_3748.chk"
 Charge = -1 Multiplicity = 2

                         Standard orientation:
 ---------------------------------------------------------------------
 Center     Atomic      Atomic             Coordinates (Angstroms)
 Number     Number       Type             X           Y           Z
 ---------------------------------------------------------------------
      1          6           0       -3.768346   -0.237460   -0.824709
      2          6           0       -2.573174   -0.129601    0.100410
      3          8           0       -2.656677    0.402940    1.193318
      4          6           0       -1.266493   -0.724225   -0.411175
      5          6           0       -0.072346   -0.439944    0.515902
      6          6           0        1.259603   -1.108822    0.088309
      7          6           0        1.816548   -0.354622   -1.135087
      8          6           0        2.048886    1.131574   -0.847785
      9          6           0        0.931355    1.818141   -0.071979
     10          8           0        0.820087    3.037722   -0.045983
     11          7           0        0.111428    1.004238    0.663537
     12          6           0        2.246236   -1.033402    1.269630
     13          6           0        1.049922   -2.587742   -0.269949
     14          1           0       -4.674627    0.068929   -0.299229
     15          1           0       -3.881598   -1.257516   -1.209679
     16          1           0       -3.616928    0.417760   -1.692246
     17          1           0       -1.433090   -1.804201   -0.519841
     18          1           0       -1.081386   -0.343991   -1.424320
     19          1           0       -0.340187   -0.824316    1.507429
     20          1           0        1.114555   -0.462698   -1.972321
     21          1           0        2.752548   -0.825077   -1.460770
     22          1           0        2.201767    1.702606   -1.767826
     23          1           0        2.960201    1.267364   -0.251589
     24          1           0       -0.635726    1.487783    1.148808
     25          1           0        1.905823   -1.673130    2.092066
     26          1           0        3.239562   -1.381230    0.963427
     27          1           0        2.342502   -0.017437    1.660393
     28          1           0        0.476171   -2.714467   -1.193896
     29          1           0        2.019956   -3.074828   -0.418779
     30          1           0        0.530031   -3.123901    0.533527
 ---------------------------------------------------------------------

 SCF Done:  E(UB3LYP) =  -596.752239108     A.U. after   33 cycles
 SCF Done:  E(UB3LYP) =  -596.752239108     a.u. after    1 cycles

 The electronic state is 2-A.
 Alpha  occ. eigenvalues --  -19.01711 -18.98548 -14.23159 -10.17230 -10.16409
 Alpha  occ. eigenvalues --  -10.11970 -10.09568 -10.08225 -10.08073 -10.07704
 Alpha  occ. eigenvalues --  -10.07445 -10.06584 -10.06048  -0.95122  -0.93647
 Alpha  occ. eigenvalues --   -0.83070  -0.73215  -0.68982  -0.66472  -0.63146
 Alpha  occ. eigenvalues --   -0.59383  -0.56799  -0.54927  -0.50310  -0.44070
 Alpha  occ. eigenvalues --   -0.42571  -0.40672  -0.38475  -0.38178  -0.36570
 Alpha  occ. eigenvalues --   -0.36046  -0.35172  -0.34679  -0.32409  -0.32120
 Alpha  occ. eigenvalues --   -0.31837  -0.30995  -0.29929  -0.29248  -0.28396
 Alpha  occ. eigenvalues --   -0.28251  -0.27336  -0.25843  -0.24826  -0.23747
 Alpha  occ. eigenvalues --   -0.23206  -0.22319  -0.16389  -0.15553  -0.15246
 Alpha  occ. eigenvalues --    0.04128
 Alpha virt. eigenvalues --    0.06254   0.06649   0.07896   0.08081   0.08979
 Alpha virt. eigenvalues --    0.09761   0.09942   0.10609   0.10959   0.11230
 Alpha virt. eigenvalues --    0.11617   0.11952   0.12525   0.13816   0.13939

  Beta  occ. eigenvalues --  -19.01660 -18.98547 -14.23157 -10.17231 -10.16326
  Beta  occ. eigenvalues --  -10.11963 -10.09566 -10.08217 -10.08046 -10.07682
  Beta  occ. eigenvalues --  -10.07407 -10.06562 -10.05999  -0.95008  -0.93643
  Beta  occ. eigenvalues --   -0.83063  -0.73196  -0.68917  -0.66401  -0.63084
  Beta  occ. eigenvalues --   -0.59317  -0.56736  -0.54871  -0.50286  -0.43920
  Beta  occ. eigenvalues --   -0.42523  -0.40620  -0.38420  -0.38126  -0.36515
  Beta  occ. eigenvalues --   -0.35973  -0.35064  -0.34617  -0.32369  -0.32069
  Beta  occ. eigenvalues --   -0.31800  -0.30952  -0.29879  -0.29198  -0.28360
  Beta  occ. eigenvalues --   -0.28207  -0.27271  -0.25644  -0.24785  -0.23704
  Beta  occ. eigenvalues --   -0.23171  -0.22292  -0.16353  -0.15529  -0.15232
  Beta virt. eigenvalues --    0.06535   0.07133   0.07426   0.08320   0.08654
  Beta virt. eigenvalues --    0.09469   0.10240   0.10366   0.10991   0.11362
  Beta virt. eigenvalues --    0.11584   0.11828   0.12310   0.12944   0.14076

 Mulliken charges and spin densities:
               1          2
     1  C    0.831296  -1.514576
     2  C    0.016901   0.263781
     3  O   -0.275264   0.012837
     4  C   -0.526375  -0.070136
     5  C    1.027970  -0.921521
     6  C   -1.785176   2.273267
     7  C    0.797950  -1.194777
     8  C   -0.456005   0.047354
     9  C    0.120789  -0.201648
    10  O   -0.362183   0.007095
    11  N   -0.267036   0.039946
    12  C    0.237641  -0.741517
    13  C    1.103676  -1.644338
    14  H   -0.002220   0.169326
    15  H   -0.760469   0.945690
    16  H   -0.026683   0.181591
    17  H    0.078754   0.107837
    18  H    0.104570   0.082418
    19  H    0.138620   0.109379
    20  H   -0.079508   0.238026
    21  H   -0.187390   0.370947
    22  H    0.091432   0.120717
    23  H    0.117324   0.070057
    24  H    0.335965   0.007766
    25  H    0.033024   0.110553
    26  H   -0.153328   0.317951
    27  H    0.106240   0.055405
    28  H   -0.600761   0.767780
    29  H   -0.451705   0.613563
    30  H   -0.208046   0.375229
 Sum of Mulliken charges =  -1.00000   1.00000

 Dipole moment (field-independent basis, Debye):
    X=              2.2137    Y=              3.5903    Z=              1.9895  Tot=              4.6635
 Quadrupole moment (field-independent basis, Debye-Ang):
   XX=           -137.4005   YY=           -144.5257   ZZ=           -112.4680
   XY=             -4.3953   XZ=             -0.9969   YZ=             -9.4554

 Summary of Natural Population Analysis:

                                       Natural Population
                Natural  -----------------------------------------------
    Atom  No    Charge         Core      Valence    Rydberg      Total
 -----------------------------------------------------------------------
      C    1   -0.33364      0.99962     2.32854    0.00548     3.33364
      C    2    0.31161      0.99969     1.66841    0.02029     2.68839
      O    3   -0.29704      0.99987     3.29090    0.00627     4.29704
      C    4   -0.24657      0.99955     2.23817    0.00886     3.24657
      C    5   -0.00373      0.99953     1.98925    0.01495     3.00373
      C    6   -0.04378      0.99955     2.03031    0.01391     3.04378
      C    7   -0.19141      0.99958     2.18166    0.01017     3.19141
      C    8   -0.23508      0.99959     2.22626    0.00923     3.23508
      C    9    0.34473      0.99966     1.63328    0.02234     2.65527
      O   10   -0.33038      0.99988     3.32463    0.00588     4.33038
      N   11   -0.32321      0.99966     2.81435    0.00921     3.82321
      C   12   -0.28629      0.99962     2.27956    0.00711     3.28629
      C   13   -0.28567      0.99962     2.27812    0.00793     3.28567
      H   14    0.10834      0.00000     0.39076    0.00091     0.39166
      H   15    0.11661      0.00000     0.37886    0.00453     0.38339
      H   16    0.11014      0.00000     0.38891    0.00095     0.38986
      H   17    0.12528      0.00000     0.37119    0.00353     0.37472
      H   18    0.10982      0.00000     0.38858    0.00161     0.39018
      H   19    0.10408      0.00000     0.39417    0.00175     0.39592
      H   20    0.09995      0.00000     0.39859    0.00146     0.40005
      H   21    0.10414      0.00000     0.39468    0.00117     0.39586
      H   22    0.11170      0.00000     0.38733    0.00097     0.38830
      H   23    0.10947      0.00000     0.38951    0.00102     0.39053
      H   24    0.20477      0.00000     0.29291    0.00231     0.29523
      H   25    0.10151      0.00000     0.39766    0.00083     0.39849
      H   26    0.10109      0.00000     0.39807    0.00084     0.39891
      H   27    0.10207      0.00000     0.39690    0.00103     0.39793
      H   28    0.10544      0.00000     0.39247    0.00210     0.39456
      H   29    0.10402      0.00000     0.39426    0.00172     0.39598
      H   30    0.10207      0.00000     0.39657    0.00137     0.39793
 =======================================================================
   * Total *    0.00000     12.99543    36.83484    0.16974    50.00000

 Normal termination of Gaussian 16 at Mon Dec 14 17:16:51 2020.
