 Gaussian 16, Revision A.03,

 -----------------------------------------------------------
 # opt freq B3LYP/6-31G(d) empiricaldispersion=gd3bj scf=xqc
 -----------------------------------------------------------

 ------------------------------
 CID_91986892_JID_1717_neutraal
 ------------------------------
 Symbolic Z-matrix:
 Charge =  0 Multiplicity = 1

 SCF Done:  E(RB3LYP) =  -517.891859289     A.U. after   15 cycles
 SCF Done:  E(RB3LYP) =  -517.897091663     A.U. after   13 cycles
 SCF Done:  E(RB3LYP) =  -517.898666973     A.U. after   13 cycles
 SCF Done:  E(RB3LYP) =  -517.898926982     A.U. after   13 cycles
 SCF Done:  E(RB3LYP) =  -517.899607009     A.U. after   12 cycles
 SCF Done:  E(RB3LYP) =  -517.899874502     A.U. after   12 cycles
 SCF Done:  E(RB3LYP) =  -517.899973895     A.U. after   11 cycles
 SCF Done:  E(RB3LYP) =  -517.899978485     A.U. after    9 cycles
 SCF Done:  E(RB3LYP) =  -517.899987229     A.U. after    9 cycles
 SCF Done:  E(RB3LYP) =  -517.899987904     A.U. after    8 cycles
 Optimization completed.
    -- Stationary point found.
 Normal termination of Gaussian 16 at Tue Dec  8 20:52:35 2020.

 --------------------------------------------------------------------
 #N Geom=AllCheck Guess=TCheck SCRF=Check GenChk RB3LYP/6-31G(d) Freq
 --------------------------------------------------------------------

 Structure from the checkpoint file:  "JID_1717.chk"
 ------------------------------
 CID_91986892_JID_1717_neutraal
 ------------------------------
 Charge =  0 Multiplicity = 1

 SCF Done:  E(RB3LYP) =  -517.899987904     A.U. after    1 cycles

  Exact polarizability: 110.657  -7.204  94.572  -3.883   6.942  75.440
 Approx polarizability: 162.779 -11.168 145.302  -6.757  18.639 111.398

                      1                      2                      3
                      A                      A                      A
 Frequencies --     63.6088                95.8608               155.8562
 Red. masses --      3.7590                 4.3454                 2.6356
 Frc consts  --      0.0090                 0.0235                 0.0377
 IR Inten    --      0.2267                 3.0514                 0.7358

                      4                      5                      6
                      A                      A                      A
 Frequencies --    230.2641               248.0368               256.2784
 Red. masses --      1.2286                 1.3841                 3.0391
 Frc consts  --      0.0384                 0.0502                 0.1176
 IR Inten    --      0.1192                 0.0290                 1.1514

                      7                      8                      9
                      A                      A                      A
 Frequencies --    278.6856               306.5785               355.0695
 Red. masses --      2.2469                 2.6083                 2.2315
 Frc consts  --      0.1028                 0.1444                 0.1658
 IR Inten    --      1.1446                 0.6419                 1.1728

                     10                     11                     12
                      A                      A                      A
 Frequencies --    369.7785               415.4470               441.6234
 Red. masses --      2.8182                 3.0900                 2.5596
 Frc consts  --      0.2270                 0.3142                 0.2941
 IR Inten    --      0.3044                 0.7059                 0.5458

                     13                     14                     15
                      A                      A                      A
 Frequencies --    471.8576               495.1546               512.6164
 Red. masses --      3.3955                 3.9644                 5.8375
 Frc consts  --      0.4454                 0.5727                 0.9038
 IR Inten    --      1.1349                 6.8013                17.5872

                     16                     17                     18
                      A                      A                      A
 Frequencies --    603.3720               638.3282               716.6741
 Red. masses --      3.0729                 3.5983                 4.4862
 Frc consts  --      0.6591                 0.8638                 1.3576
 IR Inten    --      0.9144                 4.0191                 4.2635

                     19                     20                     21
                      A                      A                      A
 Frequencies --    761.1241               812.6229               888.7098
 Red. masses --      3.7959                 2.3403                 2.6300
 Frc consts  --      1.2956                 0.9106                 1.2238
 IR Inten    --     23.6695                 1.5651                 5.7774

                     22                     23                     24
                      A                      A                      A
 Frequencies --    923.3140               931.7606               977.0068
 Red. masses --      1.4025                 2.0100                 1.5702
 Frc consts  --      0.7045                 1.0281                 0.8831
 IR Inten    --     39.4945                 5.6935                15.7636

                     25                     26                     27
                      A                      A                      A
 Frequencies --   1011.0534              1034.6838              1045.4752
 Red. masses --      1.4441                 1.6789                 1.8385
 Frc consts  --      0.8697                 1.0590                 1.1839
 IR Inten    --     38.7107                30.2026                 2.1119

                     28                     29                     30
                      A                      A                      A
 Frequencies --   1106.6280              1122.0745              1145.6219
 Red. masses --      2.3735                 1.5388                 2.8849
 Frc consts  --      1.7126                 1.1415                 2.2308
 IR Inten    --      3.8273                18.6758                34.9522

                     31                     32                     33
                      A                      A                      A
 Frequencies --   1167.7378              1171.7875              1240.3831
 Red. masses --      1.8761                 1.3943                 2.7997
 Frc consts  --      1.5073                 1.1279                 2.5379
 IR Inten    --     40.6425                 4.6767                85.6983

                     34                     35                     36
                      A                      A                      A
 Frequencies --   1252.6527              1266.7245              1306.7152
 Red. masses --      1.8052                 2.3871                 1.5264
 Frc consts  --      1.6690                 2.2568                 1.5357
 IR Inten    --     39.0718                29.0573               111.8318

                     37                     38                     39
                      A                      A                      A
 Frequencies --   1322.1565              1345.1624              1364.4479
 Red. masses --      1.7578                 1.5498                 1.3128
 Frc consts  --      1.8105                 1.6523                 1.4400
 IR Inten    --     12.9847                12.3475                16.6372

                     40                     41                     42
                      A                      A                      A
 Frequencies --   1383.3699              1415.4316              1428.4094
 Red. masses --      1.3667                 1.4991                 2.2337
 Frc consts  --      1.5410                 1.7695                 2.6853
 IR Inten    --     16.6331                32.0973                21.6169

                     43                     44                     45
                      A                      A                      A
 Frequencies --   1438.3040              1461.9036              1483.6716
 Red. masses --      1.3158                 2.0683                 1.2642
 Frc consts  --      1.6037                 2.6044                 1.6396
 IR Inten    --     17.3795               125.6353                13.4429

                     46                     47                     48
                      A                      A                      A
 Frequencies --   1488.0511              1517.0278              1518.0168
 Red. masses --      1.1255                 1.0703                 1.0589
 Frc consts  --      1.4684                 1.4513                 1.4377
 IR Inten    --      7.9001                 5.3831                11.3883

                     49                     50                     51
                      A                      A                      A
 Frequencies --   1526.8622              1542.5713              1545.4389
 Red. masses --      1.0473                 1.0614                 1.0524
 Frc consts  --      1.4385                 1.4881                 1.4809
 IR Inten    --      9.1630                 1.4629                 5.0085

                     52                     53                     54
                      A                      A                      A
 Frequencies --   1658.0499              1713.4082              2970.8479
 Red. masses --      2.1081                 6.2964                 1.0578
 Frc consts  --      3.4146                10.8908                 5.5004
 IR Inten    --    185.5063               358.0509                63.1190

                     55                     56                     57
                      A                      A                      A
 Frequencies --   3015.9587              3040.7098              3044.1274
 Red. masses --      1.0709                 1.0630                 1.0710
 Frc consts  --      5.7392                 5.7905                 5.8475
 IR Inten    --    233.2757                18.9184                24.7236

                     58                     59                     60
                      A                      A                      A
 Frequencies --   3055.9160              3056.6165              3076.9043
 Red. masses --      1.0745                 1.0420                 1.0809
 Frc consts  --      5.9123                 5.7361                 6.0291
 IR Inten    --     33.4311                11.5457                28.4499

                     61                     62                     63
                      A                      A                      A
 Frequencies --   3079.2706              3101.2084              3120.0348
 Red. masses --      1.0951                 1.0953                 1.1028
 Frc consts  --      6.1180                 6.2066                 6.3253
 IR Inten    --     46.8498                12.7259                 2.5848

                     64                     65                     66
                      A                      A                      A
 Frequencies --   3121.2828              3137.5716              3170.8796
 Red. masses --      1.1019                 1.1034                 1.0918
 Frc consts  --      6.3248                 6.3997                 6.4676
 IR Inten    --     64.4192                20.5685                 5.8864

 - Thermochemistry -
 -------------------
 Temperature   298.150 Kelvin.  Pressure   1.00000 Atm.
 Atom     1 has atomic number  6 and mass  12.00000

 Molecular mass:   155.09463 amu.
 Principal axes and moments of inertia in atomic units:
                           1         2         3
     Eigenvalues --  1027.367852105.482822444.42956
           X            0.99983  -0.01838  -0.00192
           Y            0.01827   0.99872  -0.04714
           Z            0.00278   0.04710   0.99889
 This molecule is an asymmetric top.
 Rotational symmetry number  1.
 Warning -- assumption of classical behavior for rotation
           may cause significant error
 Rotational temperatures (Kelvin)      0.08431     0.04114     0.03543
 Rotational constants (GHZ):           1.75667     0.85716     0.73831
 Zero-point vibrational energy     544090.2 (Joules/Mol)
                                  130.04068 (Kcal/Mol)
 Warning -- explicit consideration of  16 degrees of freedom as
           vibrations may cause significant error
 Vibrational temperatures:     91.52   137.92   224.24   331.30   356.87
          (Kelvin)            368.73   400.97   441.10   510.87   532.03
                              597.74   635.40   678.90   712.42   737.54
                              868.12   918.41  1031.13  1095.09  1169.18
                             1278.66  1328.44  1340.60  1405.69  1454.68
                             1488.68  1504.21  1592.19  1614.41  1648.29
                             1680.11  1685.94  1784.63  1802.29  1822.53
                             1880.07  1902.29  1935.39  1963.14  1990.36
                             2036.49  2055.16  2069.40  2103.35  2134.67
                             2140.97  2182.66  2184.09  2196.81  2219.42
                             2223.54  2385.56  2465.21  4274.39  4339.29
                             4374.90  4379.82  4396.78  4397.79  4426.98
                             4430.38  4461.95  4489.03  4490.83  4514.27
                             4562.19

 Zero-point correction=                           0.207233 (Hartree/Particle)
 Thermal correction to Energy=                    0.217657
 Thermal correction to Enthalpy=                  0.218601
 Thermal correction to Gibbs Free Energy=         0.171706
 Sum of electronic and zero-point Energies=           -517.692755
 Sum of electronic and thermal Energies=              -517.682331
 Sum of electronic and thermal Enthalpies=            -517.681387
 Sum of electronic and thermal Free Energies=         -517.728282

                     E (Thermal)             CV                S
                      KCal/Mol        Cal/Mol-Kelvin    Cal/Mol-Kelvin
 Total                  136.582             40.520             98.699
 Electronic               0.000              0.000              0.000
 Translational            0.889              2.981             41.026
 Rotational               0.889              2.981             30.048
 Vibrational            134.804             34.559             27.624
 Vibration     1          0.597              1.972              4.342
 Vibration     2          0.603              1.952              3.537
 Vibration     3          0.620              1.896              2.599
 Vibration     4          0.652              1.795              1.877
 Vibration     5          0.662              1.766              1.744
 Vibration     6          0.666              1.752              1.687
 Vibration     7          0.679              1.713              1.542
 Vibration     8          0.697              1.661              1.381
 Vibration     9          0.731              1.565              1.144
 Vibration    10          0.742              1.534              1.081
 Vibration    11          0.779              1.437              0.908
 Vibration    12          0.801              1.379              0.822
 Vibration    13          0.829              1.312              0.732
 Vibration    14          0.851              1.261              0.670
 Vibration    15          0.868              1.222              0.627
 Vibration    16          0.962              1.025              0.444

                           ! Non-Optimized Parameters !
 Normal termination of Gaussian 16 at Tue Dec  8 20:58:40 2020.

 ----------------------------------------------------------------------
 # B3LYP/6-311++G(d,p) empiricaldispersion=gd3bj scf=xqc pop=npa geom=c
 heck
 ----------------------------------------------------------------------

 --------------------------------------
 CID_91986892_JID_1717_Energie_neutraal
 --------------------------------------
 Structure from the checkpoint file:  "JID_1717.chk"
 Charge =  0 Multiplicity = 1

 SCF Done:  E(RB3LYP) =  -518.053925183     A.U. after   15 cycles
 Normal termination of Gaussian 16 at Tue Dec  8 21:01:10 2020.

 ----------------------------------------------------------------------
 # B3LYP/6-311++G(d,p) empiricaldispersion=gd3bj scf=xqc pop=npa geom=c
 heck
 ----------------------------------------------------------------------

 ------------------------------------
 CID_91986892_JID_1717_Energie_kation
 ------------------------------------
 Structure from the checkpoint file:  "JID_1717.chk"
 Charge =  1 Multiplicity = 2

 SCF Done:  E(UB3LYP) =  -517.749401881     A.U. after   29 cycles
 Normal termination of Gaussian 16 at Tue Dec  8 21:06:53 2020.
 Gaussian 16:  ES64L-G16RevA.03 25-Dec-2016

 ----------------------------------------------------------------------
 # B3LYP/6-311++G(d,p) empiricaldispersion=gd3bj scf=xqc pop=npa geom=c
 heck
 ----------------------------------------------------------------------

 -----------------------------------
 CID_91986892_JID_1717_Energie_anion
 -----------------------------------
 Structure from the checkpoint file:  "JID_1717.chk"
 Charge = -1 Multiplicity = 2

                         Standard orientation:
 ---------------------------------------------------------------------
 Center     Atomic      Atomic             Coordinates (Angstroms)
 Number     Number       Type             X           Y           Z
 ---------------------------------------------------------------------
      1          6           0        2.053098   -1.110935    1.382305
      2          6           0        1.825496   -0.543751   -0.022138
      3          6           0        0.689405   -1.296068   -0.751017
      4          6           0       -0.702292   -0.841814   -0.352338
      5          8           0       -1.684662   -1.550950   -0.660083
      6          6           0       -0.855395    0.444014    0.301749
      7          6           0       -2.121266    0.921111    0.497632
      8          8           0       -3.236247    0.285834    0.177314
      9          6           0        0.369004    1.223064    0.767070
     10          7           0        1.587884    0.908605    0.025202
     11          6           0        1.612025    1.532982   -1.292264
     12          1           0        2.435250   -2.134794    1.314278
     13          1           0        1.126275   -1.148485    1.965768
     14          1           0        2.780385   -0.499648    1.925068
     15          1           0        2.751844   -0.683042   -0.592385
     16          1           0        0.760484   -1.133591   -1.835177
     17          1           0        0.754135   -2.379428   -0.603861
     18          1           0       -2.300549    1.900026    0.943364
     19          1           0       -2.931554   -0.595244   -0.210580
     20          1           0        0.560174    1.021558    1.828480
     21          1           0        0.187576    2.301308    0.689436
     22          1           0        0.768119    1.257074   -1.949312
     23          1           0        1.596972    2.621721   -1.173225
     24          1           0        2.542518    1.261616   -1.802111
 ---------------------------------------------------------------------

 SCF Done:  E(UB3LYP) =  -518.055001511     A.U. after   31 cycles

 The electronic state is 2-A.
 Alpha  occ. eigenvalues --  -18.98133 -18.92466 -14.17671 -10.07512 -10.06407
 Alpha  occ. eigenvalues --  -10.06397 -10.06372 -10.06213 -10.04344 -10.02550
 Alpha  occ. eigenvalues --  -10.00426  -0.90853  -0.85369  -0.80202  -0.65164
 Alpha  occ. eigenvalues --   -0.63429  -0.58205  -0.55541  -0.51595  -0.47349
 Alpha  occ. eigenvalues --   -0.44819  -0.39313  -0.35408  -0.34669  -0.34079
 Alpha  occ. eigenvalues --   -0.32131  -0.31228  -0.28681  -0.28182  -0.27518
 Alpha  occ. eigenvalues --   -0.26521  -0.25730  -0.25238  -0.23805  -0.22991
 Alpha  occ. eigenvalues --   -0.22217  -0.21787  -0.21006  -0.18851  -0.09100
 Alpha  occ. eigenvalues --   -0.08643  -0.08093   0.05449
 Alpha virt. eigenvalues --    0.07794   0.09068   0.09595   0.11182   0.11437
 Alpha virt. eigenvalues --    0.11874   0.12663   0.13394   0.13899   0.14755
 Alpha virt. eigenvalues --    0.15453   0.15723   0.15786   0.17052   0.18138

  Beta  occ. eigenvalues --  -18.97895 -18.92103 -14.17670 -10.07497 -10.06396
  Beta  occ. eigenvalues --  -10.06381 -10.05951 -10.05723 -10.04337 -10.02586
  Beta  occ. eigenvalues --  -10.00572  -0.90326  -0.84653  -0.80180  -0.65108
  Beta  occ. eigenvalues --   -0.63180  -0.58011  -0.55342  -0.51350  -0.46726
  Beta  occ. eigenvalues --   -0.44583  -0.39071  -0.35241  -0.34538  -0.33970
  Beta  occ. eigenvalues --   -0.31810  -0.31066  -0.28519  -0.27997  -0.27305
  Beta  occ. eigenvalues --   -0.26131  -0.25210  -0.25002  -0.23132  -0.22359
  Beta  occ. eigenvalues --   -0.22046  -0.21611  -0.20731  -0.17240  -0.09009
  Beta  occ. eigenvalues --   -0.08417  -0.06820
  Beta virt. eigenvalues --    0.08016   0.09127   0.09786   0.11117   0.11577
  Beta virt. eigenvalues --    0.11866   0.12106   0.12687   0.13613   0.13989
  Beta virt. eigenvalues --    0.14836   0.15591   0.15743   0.15875   0.17052

 Mulliken charges and spin densities:
               1          2
     1  C   -0.306826  -0.308169
     2  C   -0.263736   0.254589
     3  C    0.136028  -0.449258
     4  C   -0.223019   0.144913
     5  O   -0.472432   0.141971
     6  C    1.016828  -0.044365
     7  C   -0.295007   0.304494
     8  O   -0.281134   0.047271
     9  C   -1.297683   0.067485
    10  N    0.190464  -0.012204
    11  C    0.220370  -0.552912
    12  H    0.092354   0.018366
    13  H    0.119131   0.036503
    14  H    0.125420   0.008969
    15  H   -0.387145   0.568768
    16  H   -0.099976   0.273628
    17  H    0.161454  -0.004713
    18  H    0.112869  -0.013857
    19  H    0.310678  -0.003418
    20  H    0.144145  -0.002310
    21  H    0.086962   0.042991
    22  H    0.085583   0.053991
    23  H   -0.083757   0.196066
    24  H   -0.091570   0.231200
 Sum of Mulliken charges =  -1.00000   1.00000

 Dipole moment (field-independent basis, Debye):
    X=              2.6297    Y=              1.0544    Z=              2.6741  Tot=              3.8959
 Quadrupole moment (field-independent basis, Debye-Ang):
   XX=           -109.6746   YY=            -86.6774   ZZ=            -84.6940
   XY=             -3.5045   XZ=              2.8199   YZ=             -2.2897

 Summary of Natural Population Analysis:

                                       Natural Population
                Natural  -----------------------------------------------
    Atom  No    Charge         Core      Valence    Rydberg      Total
 -----------------------------------------------------------------------
      C    1   -0.29005      0.99965     2.28407    0.00633     3.29005
      C    2   -0.00468      0.99960     1.99028    0.01479     3.00468
      C    3   -0.23962      0.99958     2.22937    0.01067     3.23962
      C    4    0.31836      0.99956     1.66150    0.02058     2.68164
      O    5   -0.31729      0.99986     3.31131    0.00612     4.31729
      C    6   -0.18694      0.99946     2.17797    0.00951     3.18694
      C    7    0.22807      0.99948     1.75412    0.01834     2.77193
      O    8   -0.32743      0.99988     3.32023    0.00732     4.32743
      C    9   -0.08242      0.99960     2.06962    0.01320     3.08242
      N   10   -0.28381      0.99973     2.77001    0.01407     3.78381
      C   11   -0.17762      0.99964     2.16920    0.00878     3.17762
      H   12    0.09632      0.00000     0.40301    0.00068     0.40368
      H   13    0.10109      0.00000     0.39803    0.00088     0.39891
      H   14    0.09809      0.00000     0.40080    0.00111     0.40191
      H   15    0.09219      0.00000     0.40631    0.00150     0.40781
      H   16    0.11208      0.00000     0.38607    0.00185     0.38792
      H   17    0.10528      0.00000     0.39360    0.00112     0.39472
      H   18    0.06223      0.00000     0.43640    0.00138     0.43777
      H   19    0.24850      0.00000     0.24760    0.00390     0.25150
      H   20    0.08679      0.00000     0.41190    0.00131     0.41321
      H   21    0.09266      0.00000     0.40596    0.00138     0.40734
      H   22    0.08608      0.00000     0.41241    0.00150     0.41392
      H   23    0.09015      0.00000     0.40878    0.00107     0.40985
      H   24    0.09198      0.00000     0.40684    0.00118     0.40802
 =======================================================================
   * Total *    0.00000     10.99604    30.85538    0.14857    42.00000

 Normal termination of Gaussian 16 at Tue Dec  8 21:13:13 2020.
