 Gaussian 16, Revision A.03,

 -----------------------------------------------------------
 # opt freq B3LYP/6-31G(d) empiricaldispersion=gd3bj scf=xqc
 -----------------------------------------------------------

 ------------------------------
 CID_81786285_JID_5806_neutraal
 ------------------------------
 Symbolic Z-matrix:
 Charge =  0 Multiplicity = 1

 SCF Done:  E(RB3LYP) =  -691.441489252     A.U. after   14 cycles
 SCF Done:  E(RB3LYP) =  -691.447464042     A.U. after   12 cycles
 SCF Done:  E(RB3LYP) =  -691.447876284     A.U. after   11 cycles
 SCF Done:  E(RB3LYP) =  -691.447175998     A.U. after   12 cycles
 SCF Done:  E(RB3LYP) =  -691.448013309     A.U. after   12 cycles
 SCF Done:  E(RB3LYP) =  -691.448103519     A.U. after   10 cycles
 SCF Done:  E(RB3LYP) =  -691.448176776     A.U. after   11 cycles
 SCF Done:  E(RB3LYP) =  -691.448227735     A.U. after   12 cycles
 SCF Done:  E(RB3LYP) =  -691.448268122     A.U. after   12 cycles
 SCF Done:  E(RB3LYP) =  -691.448287105     A.U. after   12 cycles
 SCF Done:  E(RB3LYP) =  -691.448290639     A.U. after    7 cycles
 SCF Done:  E(RB3LYP) =  -691.448290675     A.U. after    7 cycles
 SCF Done:  E(RB3LYP) =  -691.448290690     A.U. after    6 cycles
 SCF Done:  E(RB3LYP) =  -691.448290711     A.U. after    7 cycles
 SCF Done:  E(RB3LYP) =  -691.448290730     A.U. after    6 cycles
 Optimization completed.
    -- Stationary point found.
 Normal termination of Gaussian 16 at Thu Dec 10 17:31:37 2020.

 --------------------------------------------------------------------
 #N Geom=AllCheck Guess=TCheck SCRF=Check GenChk RB3LYP/6-31G(d) Freq
 --------------------------------------------------------------------

 Structure from the checkpoint file:  "JID_5806.chk"
 ------------------------------
 CID_81786285_JID_5806_neutraal
 ------------------------------
 Charge =  0 Multiplicity = 1

 SCF Done:  E(RB3LYP) =  -691.448290730     A.U. after    1 cycles

  Exact polarizability: 151.655  -7.385 132.827 -11.334 -12.199  99.763
 Approx polarizability: 209.677  -4.561 214.085 -25.636 -33.191 152.346

                      1                      2                      3
                      A                      A                      A
 Frequencies --     15.5780                38.0445                54.4814
 Red. masses --      1.0136                 5.9926                 3.7965
 Frc consts  --      0.0001                 0.0051                 0.0066
 IR Inten    --      0.2809                 0.3820                 1.0805

                      4                      5                      6
                      A                      A                      A
 Frequencies --     78.1583               128.9907               143.0487
 Red. masses --      4.0180                 1.2496                 2.5370
 Frc consts  --      0.0145                 0.0123                 0.0306
 IR Inten    --      0.2637                 0.0914                 1.5212

                      7                      8                      9
                      A                      A                      A
 Frequencies --    168.5076               194.7168               208.1089
 Red. masses --      2.8557                 5.0443                 3.1165
 Frc consts  --      0.0478                 0.1127                 0.0795
 IR Inten    --      1.2313                 6.3280                 1.7816

                     10                     11                     12
                      A                      A                      A
 Frequencies --    238.9516               302.4588               319.8098
 Red. masses --      3.4176                 3.2427                 3.2561
 Frc consts  --      0.1150                 0.1748                 0.1962
 IR Inten    --      1.2976                 1.6163                 4.5465

                     13                     14                     15
                      A                      A                      A
 Frequencies --    340.9456               378.3135               408.8161
 Red. masses --      3.3075                 4.1112                 2.5517
 Frc consts  --      0.2265                 0.3467                 0.2513
 IR Inten    --      7.5517                30.7484                24.8182

                     16                     17                     18
                      A                      A                      A
 Frequencies --    426.8560               448.3875               458.6087
 Red. masses --      1.9375                 3.4174                 2.8039
 Frc consts  --      0.2080                 0.4048                 0.3474
 IR Inten    --     28.6077                 3.3204                 8.6299

                     19                     20                     21
                      A                      A                      A
 Frequencies --    506.0666               534.3862               572.6501
 Red. masses --      3.8353                 4.2059                 4.1467
 Frc consts  --      0.5787                 0.7076                 0.8012
 IR Inten    --      2.0626                 3.6557                 9.5282

                     22                     23                     24
                      A                      A                      A
 Frequencies --    631.2310               688.5019               719.5503
 Red. masses --      4.8613                 3.2221                 4.8896
 Frc consts  --      1.1413                 0.8999                 1.4916
 IR Inten    --      5.5897                 2.4729                 4.9535

                     25                     26                     27
                      A                      A                      A
 Frequencies --    756.8543               779.3459               797.1360
 Red. masses --      3.2683                 4.3074                 4.7377
 Frc consts  --      1.1030                 1.5414                 1.7737
 IR Inten    --      2.4624                 2.3218                 2.0231

                     28                     29                     30
                      A                      A                      A
 Frequencies --    829.1410               837.4100               899.9039
 Red. masses --      1.6786                 2.0294                 1.3944
 Frc consts  --      0.6799                 0.8385                 0.6653
 IR Inten    --      7.9974                21.2374                 1.1481

                     31                     32                     33
                      A                      A                      A
 Frequencies --    920.4553               952.0055               954.9680
 Red. masses --      3.0363                 2.1640                 1.4438
 Frc consts  --      1.5157                 1.1556                 0.7758
 IR Inten    --      0.7348                 2.6455                 0.4869

                     34                     35                     36
                      A                      A                      A
 Frequencies --    981.9264              1019.0719              1026.0093
 Red. masses --      2.3281                 2.8657                 2.0540
 Frc consts  --      1.3225                 1.7534                 1.2740
 IR Inten    --      0.6455                21.1797                 6.9593

                     37                     38                     39
                      A                      A                      A
 Frequencies --   1059.0487              1075.0097              1081.0438
 Red. masses --      2.6532                 1.5234                 2.4691
 Frc consts  --      1.7533                 1.0372                 1.7001
 IR Inten    --      6.8159                 9.4495                13.8815

                     40                     41                     42
                      A                      A                      A
 Frequencies --   1113.5699              1159.1525              1176.4517
 Red. masses --      3.2112                 2.2331                 1.5098
 Frc consts  --      2.3461                 1.7678                 1.2312
 IR Inten    --      4.5423                82.4491                10.5218

                     43                     44                     45
                      A                      A                      A
 Frequencies --   1185.5404              1205.5403              1223.6744
 Red. masses --      1.2730                 1.8390                 1.5821
 Frc consts  --      1.0541                 1.5747                 1.3958
 IR Inten    --      1.2159                70.3504                 1.6276

                     46                     47                     48
                      A                      A                      A
 Frequencies --   1228.2150              1238.2416              1279.7551
 Red. masses --      1.6159                 1.7117                 2.3520
 Frc consts  --      1.4362                 1.5463                 2.2696
 IR Inten    --     11.4109                34.5724               130.0074

                     49                     50                     51
                      A                      A                      A
 Frequencies --   1291.7514              1306.5731              1331.8298
 Red. masses --      2.3821                 1.6245                 1.9528
 Frc consts  --      2.3419                 1.6339                 2.0409
 IR Inten    --    219.3403                16.5216                 3.2334

                     52                     53                     54
                      A                      A                      A
 Frequencies --   1351.5941              1374.1945              1442.9020
 Red. masses --      1.9848                 3.1319                 1.2459
 Frc consts  --      2.1363                 3.4846                 1.5282
 IR Inten    --     33.1263                 2.4868                 0.2136

                     55                     56                     57
                      A                      A                      A
 Frequencies --   1444.4652              1468.1465              1494.2828
 Red. masses --      1.4679                 2.9585                 1.2436
 Frc consts  --      1.8045                 3.7571                 1.6360
 IR Inten    --     45.4378                 2.3029                 8.2947

                     58                     59                     60
                      A                      A                      A
 Frequencies --   1508.1689              1513.5480              1518.4972
 Red. masses --      1.1057                 1.0477                 1.0487
 Frc consts  --      1.4818                 1.4141                 1.4247
 IR Inten    --      1.0374                 6.3300                 5.4923

                     61                     62                     63
                      A                      A                      A
 Frequencies --   1522.6966              1524.4943              1526.4181
 Red. masses --      1.0562                 1.1153                 1.1219
 Frc consts  --      1.4428                 1.5271                 1.5401
 IR Inten    --      8.5773                 2.5078                11.9794

                     64                     65                     66
                      A                      A                      A
 Frequencies --   1544.6614              1642.2606              1677.3840
 Red. masses --      2.7953                 6.5034                 6.6002
 Frc consts  --      3.9296                10.3341                10.9414
 IR Inten    --     22.9007                 0.5589                 1.1318

                     67                     68                     69
                      A                      A                      A
 Frequencies --   1798.6351              3040.5271              3054.9108
 Red. masses --     10.9607                 1.0412                 1.0607
 Frc consts  --     20.8918                 5.6713                 5.8325
 IR Inten    --    215.2588                35.7670                30.0420

                     70                     71                     72
                      A                      A                      A
 Frequencies --   3080.9558              3081.9715              3092.5473
 Red. masses --      1.0296                 1.0689                 1.0936
 Frc consts  --      5.7583                 5.9822                 6.1624
 IR Inten    --     32.0263                14.9068                32.3740

                     73                     74                     75
                      A                      A                      A
 Frequencies --   3097.9176              3126.2439              3132.4183
 Red. masses --      1.0950                 1.1026                 1.1070
 Frc consts  --      6.1914                 6.3492                 6.3994
 IR Inten    --     22.8493                15.7393                26.8624

                     76                     77                     78
                      A                      A                      A
 Frequencies --   3158.3267              3173.3574              3186.4579
 Red. masses --      1.1080                 1.0869                 1.0903
 Frc consts  --      6.5117                 6.4487                 6.5224
 IR Inten    --     17.0139                11.2972                14.9510

                     79                     80                     81
                      A                      A                      A
 Frequencies --   3191.3044              3191.7303              3641.7210
 Red. masses --      1.1072                 1.0945                 1.0648
 Frc consts  --      6.6440                 6.5691                 8.3205
 IR Inten    --      9.7600                28.2728                93.2706

 - Thermochemistry -
 -------------------
 Temperature   298.150 Kelvin.  Pressure   1.00000 Atm.
 Atom     1 has atomic number  6 and mass  12.00000

 Molecular mass:   206.09429 amu.
 Principal axes and moments of inertia in atomic units:
                           1         2         3
     Eigenvalues --  2004.557203983.149614322.14154
           X            0.99953  -0.02921   0.00959
           Y            0.02895   0.99923   0.02646
           Z           -0.01036  -0.02617   0.99960
 This molecule is an asymmetric top.
 Rotational symmetry number  1.
 Warning -- assumption of classical behavior for rotation
           may cause significant error
 Rotational temperatures (Kelvin)      0.04321     0.02175     0.02004
 Rotational constants (GHZ):           0.90032     0.45309     0.41756
 Zero-point vibrational energy     629938.7 (Joules/Mol)
                                  150.55897 (Kcal/Mol)
 Warning -- explicit consideration of  21 degrees of freedom as
           vibrations may cause significant error
 Vibrational temperatures:     22.41    54.74    78.39   112.45   185.59
          (Kelvin)            205.82   242.44   280.15   299.42   343.80
                              435.17   460.13   490.54   544.31   588.20
                              614.15   645.13   659.84   728.12   768.86
                              823.92   908.20   990.60  1035.27  1088.94
                             1121.30  1146.90  1192.95  1204.85  1294.76
                             1324.33  1369.72  1373.99  1412.77  1466.22
                             1476.20  1523.73  1546.70  1555.38  1602.18
                             1667.76  1692.65  1705.73  1734.50  1760.59
                             1767.13  1781.55  1841.28  1858.54  1879.87
                             1916.21  1944.64  1977.16  2076.01  2078.26
                             2112.34  2149.94  2169.92  2177.66  2184.78
                             2190.82  2193.41  2196.18  2222.42  2362.85
                             2413.38  2587.83  4374.64  4395.34  4432.81
                             4434.27  4449.49  4457.21  4497.97  4506.85
                             4544.13  4565.75  4584.60  4591.58  4592.19
                             5239.62

 Zero-point correction=                           0.239931 (Hartree/Particle)
 Thermal correction to Energy=                    0.254327
 Thermal correction to Enthalpy=                  0.255271
 Thermal correction to Gibbs Free Energy=         0.196919
 Sum of electronic and zero-point Energies=           -691.208360
 Sum of electronic and thermal Energies=              -691.193964
 Sum of electronic and thermal Enthalpies=            -691.193020
 Sum of electronic and thermal Free Energies=         -691.251372

                     E (Thermal)             CV                S
                      KCal/Mol        Cal/Mol-Kelvin    Cal/Mol-Kelvin
 Total                  159.592             53.715            122.812
 Electronic               0.000              0.000              0.000
 Translational            0.889              2.981             41.874
 Rotational               0.889              2.981             31.912
 Vibrational            157.815             47.753             49.026
 Vibration     1          0.593              1.986              7.130
 Vibration     2          0.594              1.982              5.358
 Vibration     3          0.596              1.976              4.648
 Vibration     4          0.599              1.964              3.937
 Vibration     5          0.611              1.924              2.961
 Vibration     6          0.616              1.910              2.763
 Vibration     7          0.625              1.881              2.452
 Vibration     8          0.635              1.847              2.182
 Vibration     9          0.641              1.828              2.060
 Vibration    10          0.657              1.781              1.811
 Vibration    11          0.694              1.669              1.403
 Vibration    12          0.706              1.636              1.311
 Vibration    13          0.720              1.594              1.208
 Vibration    14          0.749              1.516              1.046
 Vibration    15          0.773              1.451              0.931
 Vibration    16          0.789              1.412              0.869
 Vibration    17          0.807              1.364              0.801
 Vibration    18          0.817              1.342              0.770
 Vibration    19          0.861              1.237              0.643
 Vibration    20          0.889              1.174              0.577
 Vibration    21          0.929              1.090              0.499

                           ! Non-Optimized Parameters !
 Normal termination of Gaussian 16 at Thu Dec 10 17:41:28 2020.

 ----------------------------------------------------------------------
 # B3LYP/6-311++G(d,p) empiricaldispersion=gd3bj scf=xqc pop=npa geom=c
 heck
 ----------------------------------------------------------------------

 --------------------------------------
 CID_81786285_JID_5806_Energie_neutraal
 --------------------------------------
 Structure from the checkpoint file:  "JID_5806.chk"
 Charge =  0 Multiplicity = 1

 SCF Done:  E(RB3LYP) =  -691.646467898     A.U. after   15 cycles
 Normal termination of Gaussian 16 at Thu Dec 10 17:44:59 2020.

 ----------------------------------------------------------------------
 # B3LYP/6-311++G(d,p) empiricaldispersion=gd3bj scf=xqc pop=npa geom=c
 heck
 ----------------------------------------------------------------------

 ------------------------------------
 CID_81786285_JID_5806_Energie_kation
 ------------------------------------
 Structure from the checkpoint file:  "JID_5806.chk"
 Charge =  1 Multiplicity = 2

 SCF Done:  E(UB3LYP) =  -691.342849935     A.U. after   25 cycles
 Normal termination of Gaussian 16 at Thu Dec 10 17:52:40 2020.
 Gaussian 16:  ES64L-G16RevA.03 25-Dec-2016

 ----------------------------------------------------------------------
 # B3LYP/6-311++G(d,p) empiricaldispersion=gd3bj scf=xqc pop=npa geom=c
 heck
 ----------------------------------------------------------------------

 -----------------------------------
 CID_81786285_JID_5806_Energie_anion
 -----------------------------------
 Structure from the checkpoint file:  "JID_5806.chk"
 Charge = -1 Multiplicity = 2

                         Standard orientation:
 ---------------------------------------------------------------------
 Center     Atomic      Atomic             Coordinates (Angstroms)
 Number     Number       Type             X           Y           Z
 ---------------------------------------------------------------------
      1          6           0        3.660482   -1.828835   -0.078045
      2          6           0        2.647698   -0.709090   -0.099923
      3          6           0        1.377228   -0.879829    0.464174
      4          6           0        0.460373    0.162367    0.411335
      5          6           0        0.768845    1.383256   -0.187981
      6          6           0       -0.403456    2.335781   -0.105958
      7          6           0       -1.314261    1.680996    0.959097
      8          6           0       -0.958483    0.166858    0.966432
      9          6           0       -1.867326   -0.649085    0.041787
     10          8           0       -2.412613   -1.677721    0.396471
     11          8           0       -1.979950   -0.124438   -1.183863
     12          6           0       -2.784621   -0.875866   -2.110481
     13          8           0       -1.054985   -0.391921    2.259011
     14          6           0        2.030118    1.566817   -0.749654
     15          6           0        2.955384    0.521815   -0.700999
     16          1           0        4.682035   -1.444035    0.010804
     17          1           0        3.616784   -2.423647   -1.000179
     18          1           0        3.481405   -2.511584    0.758751
     19          1           0        1.115103   -1.811045    0.960424
     20          1           0       -0.918930    2.392955   -1.072434
     21          1           0       -0.107808    3.355077    0.166265
     22          1           0       -2.379485    1.865974    0.795223
     23          1           0       -1.057325    2.045604    1.958280
     24          1           0       -2.362090   -1.873052   -2.255022
     25          1           0       -3.807349   -0.969147   -1.737342
     26          1           0       -2.761826   -0.308467   -3.040350
     27          1           0       -1.598486   -1.196742    2.162006
     28          1           0        2.301654    2.514212   -1.208928
     29          1           0        3.944818    0.665438   -1.129154
 ---------------------------------------------------------------------

 SCF Done:  E(UB3LYP) =  -691.633032639     A.U. after   33 cycles
 SCF Done:  E(UB3LYP) =  -691.633032639     a.u. after    1 cycles

 The electronic state is 2-A.
 Alpha  occ. eigenvalues --  -19.07653 -19.02624 -19.02521 -10.20823 -10.14687
 Alpha  occ. eigenvalues --  -10.11995 -10.08157 -10.07733 -10.07606 -10.07512
 Alpha  occ. eigenvalues --  -10.07207 -10.07159 -10.07032 -10.06948 -10.06726
 Alpha  occ. eigenvalues --   -1.02062  -0.94600  -0.92075  -0.77332  -0.72149
 Alpha  occ. eigenvalues --   -0.66795  -0.64374  -0.63913  -0.59552  -0.57423
 Alpha  occ. eigenvalues --   -0.51430  -0.50745  -0.47630  -0.46050  -0.45024
 Alpha  occ. eigenvalues --   -0.41078  -0.39213  -0.38631  -0.37202  -0.35659
 Alpha  occ. eigenvalues --   -0.35170  -0.34202  -0.32913  -0.32370  -0.32024
 Alpha  occ. eigenvalues --   -0.30074  -0.29238  -0.28473  -0.27529  -0.27026
 Alpha  occ. eigenvalues --   -0.26340  -0.25352  -0.25058  -0.23987  -0.23592
 Alpha  occ. eigenvalues --   -0.21780  -0.20037  -0.18118  -0.15004  -0.13542
 Alpha  occ. eigenvalues --    0.04566
 Alpha virt. eigenvalues --    0.06427   0.07324   0.07499   0.07905   0.08410
 Alpha virt. eigenvalues --    0.09167   0.09255   0.09733   0.10331   0.10634
 Alpha virt. eigenvalues --    0.11150   0.11822   0.12054   0.12500   0.13058

  Beta  occ. eigenvalues --  -19.07642 -19.02603 -19.02510 -10.20807 -10.14688
  Beta  occ. eigenvalues --  -10.11926 -10.08164 -10.07719 -10.07597 -10.07522
  Beta  occ. eigenvalues --  -10.07188 -10.07136 -10.06979 -10.06906 -10.06663
  Beta  occ. eigenvalues --   -1.02031  -0.94571  -0.92042  -0.77273  -0.72095
  Beta  occ. eigenvalues --   -0.66727  -0.64328  -0.63812  -0.59495  -0.57353
  Beta  occ. eigenvalues --   -0.51349  -0.50639  -0.47576  -0.46010  -0.44993
  Beta  occ. eigenvalues --   -0.41032  -0.39149  -0.38586  -0.37160  -0.35598
  Beta  occ. eigenvalues --   -0.35130  -0.34148  -0.32865  -0.32321  -0.31985
  Beta  occ. eigenvalues --   -0.30018  -0.29201  -0.28436  -0.27482  -0.26982
  Beta  occ. eigenvalues --   -0.26296  -0.25263  -0.25021  -0.23925  -0.23537
  Beta  occ. eigenvalues --   -0.21721  -0.19985  -0.18091  -0.14676  -0.13411
  Beta virt. eigenvalues --    0.06659   0.07378   0.07562   0.07785   0.08285
  Beta virt. eigenvalues --    0.08927   0.09438   0.09654   0.10013   0.10654
  Beta virt. eigenvalues --    0.11236   0.11472   0.12024   0.12163   0.12935

 Mulliken charges and spin densities:
               1          2
     1  C    1.229409  -1.666219
     2  C   -0.106099   0.769854
     3  C   -0.467442   0.187019
     4  C    0.428674  -0.054552
     5  C    0.334924   0.182731
     6  C    0.112473  -0.822933
     7  C    0.147686  -0.378867
     8  C   -1.455272   0.813641
     9  C    0.243778  -0.392583
    10  O   -0.282188   0.057542
    11  O   -0.146207   0.137512
    12  C    1.585643  -1.780755
    13  O   -0.159653  -0.015268
    14  C    0.350033  -0.447659
    15  C   -1.065227   0.281508
    16  H   -0.185234   0.320904
    17  H   -0.019013   0.191131
    18  H   -0.011805   0.153025
    19  H    0.084309   0.078796
    20  H    0.009693   0.180252
    21  H    0.151664  -0.008131
    22  H   -0.172303   0.362433
    23  H    0.179244   0.012544
    24  H   -0.419538   0.601060
    25  H   -0.561651   0.741438
    26  H   -0.620639   0.775575
    27  H    0.148368   0.119518
    28  H   -0.122095   0.269577
    29  H   -0.211535   0.330905
 Sum of Mulliken charges =  -1.00000   1.00000

 Dipole moment (field-independent basis, Debye):
    X=              3.0956    Y=              2.3998    Z=              4.3973  Tot=              5.8888
 Quadrupole moment (field-independent basis, Debye-Ang):
   XX=           -158.3284   YY=           -119.2672   ZZ=           -132.9688
   XY=             -1.5740   XZ=            -11.3675   YZ=             -2.0148

 Summary of Natural Population Analysis:

                                       Natural Population
                Natural  -----------------------------------------------
    Atom  No    Charge         Core      Valence    Rydberg      Total
 -----------------------------------------------------------------------
      C    1   -0.28976      0.99964     2.28532    0.00480     3.28976
      C    2   -0.01989      0.99953     2.01019    0.01017     3.01989
      C    3   -0.08316      0.99946     2.07408    0.00962     3.08316
      C    4   -0.01871      0.99942     2.00618    0.01311     3.01871
      C    5   -0.02111      0.99948     2.00982    0.01181     3.02111
      C    6   -0.19843      0.99960     2.19008    0.00874     3.19843
      C    7   -0.18411      0.99961     2.17469    0.00980     3.18411
      C    8    0.08879      0.99942     1.89314    0.01865     2.91121
      C    9    0.41401      0.99962     1.56037    0.02599     2.58599
      O   10   -0.31499      0.99987     3.30898    0.00614     4.31499
      O   11   -0.27122      0.99986     3.26142    0.00994     4.27122
      C   12   -0.10244      0.99959     2.09384    0.00901     3.10244
      O   13   -0.37267      0.99989     3.36684    0.00595     4.37267
      C   14   -0.06565      0.99951     2.06095    0.00519     3.06565
      C   15   -0.10159      0.99955     2.08906    0.01298     3.10159
      H   16    0.10098      0.00000     0.39789    0.00113     0.39902
      H   17    0.10474      0.00000     0.39392    0.00133     0.39526
      H   18    0.10040      0.00000     0.39868    0.00092     0.39960
      H   19    0.10202      0.00000     0.39636    0.00161     0.39798
      H   20    0.10977      0.00000     0.38848    0.00175     0.39023
      H   21    0.09818      0.00000     0.40091    0.00090     0.40182
      H   22    0.10433      0.00000     0.39441    0.00126     0.39567
      H   23    0.10426      0.00000     0.39456    0.00119     0.39574
      H   24    0.09333      0.00000     0.40482    0.00185     0.40667
      H   25    0.09414      0.00000     0.40277    0.00309     0.40586
      H   26    0.09699      0.00000     0.39980    0.00322     0.40301
      H   27    0.24068      0.00000     0.25614    0.00318     0.25932
      H   28    0.09474      0.00000     0.40399    0.00127     0.40526
      H   29    0.09638      0.00000     0.40263    0.00099     0.40362
 =======================================================================
   * Total *    0.00004     14.99404    39.82032    0.18560    54.99996

 Normal termination of Gaussian 16 at Thu Dec 10 18:02:52 2020.
