 Gaussian 16, Revision A.03,

 -----------------------------------------------------------
 # opt freq B3LYP/6-31G(d) empiricaldispersion=gd3bj scf=xqc
 -----------------------------------------------------------

 --------------------------------
 CID_115794191_JID_10311_neutraal
 --------------------------------
 Symbolic Z-matrix:
 Charge =  0 Multiplicity = 1

 SCF Done:  E(RB3LYP) =  -864.523886248     A.U. after   15 cycles
 SCF Done:  E(RB3LYP) =  -864.529660326     A.U. after   13 cycles
 SCF Done:  E(RB3LYP) =  -864.529982725     A.U. after   13 cycles
 SCF Done:  E(RB3LYP) =  -864.531173828     A.U. after   13 cycles
 SCF Done:  E(RB3LYP) =  -864.531535988     A.U. after   12 cycles
 SCF Done:  E(RB3LYP) =  -864.531787558     A.U. after   13 cycles
 SCF Done:  E(RB3LYP) =  -864.532328412     A.U. after   12 cycles
 SCF Done:  E(RB3LYP) =  -864.532451110     A.U. after   11 cycles
 SCF Done:  E(RB3LYP) =  -864.532531435     A.U. after   11 cycles
 SCF Done:  E(RB3LYP) =  -864.532705382     A.U. after   12 cycles
 SCF Done:  E(RB3LYP) =  -864.535304828     A.U. after   11 cycles
 SCF Done:  E(RB3LYP) =  -864.535365812     A.U. after   10 cycles
 SCF Done:  E(RB3LYP) =  -864.535389464     A.U. after   10 cycles
 SCF Done:  E(RB3LYP) =  -864.535395815     A.U. after   10 cycles
 SCF Done:  E(RB3LYP) =  -864.535397303     A.U. after    8 cycles
 SCF Done:  E(RB3LYP) =  -864.535397578     A.U. after    8 cycles
 Optimization completed.
    -- Stationary point found.
 Normal termination of Gaussian 16 at Mon Dec 14 19:06:02 2020.

 --------------------------------------------------------------------
 #N Geom=AllCheck Guess=TCheck SCRF=Check GenChk RB3LYP/6-31G(d) Freq
 --------------------------------------------------------------------

 Structure from the checkpoint file:  "JID_10311.chk"
 --------------------------------
 CID_115794191_JID_10311_neutraal
 --------------------------------
 Charge =  0 Multiplicity = 1

 SCF Done:  E(RB3LYP) =  -864.535397578     A.U. after    1 cycles

  Exact polarizability: 249.408 -11.276 212.145  21.456   3.949 119.184
 Approx polarizability: 340.960 -10.527 343.382  45.043   4.442 193.753

                      1                      2                      3
                      A                      A                      A
 Frequencies --     25.8763                34.8116                35.8976
 Red. masses --      4.3406                 3.6647                 3.3149
 Frc consts  --      0.0017                 0.0026                 0.0025
 IR Inten    --      0.2695                 0.1269                 0.4914

                      4                      5                      6
                      A                      A                      A
 Frequencies --     63.1298                66.5826               105.6082
 Red. masses --      4.6636                 3.3636                 3.4973
 Frc consts  --      0.0110                 0.0088                 0.0230
 IR Inten    --      0.0657                 0.1648                 0.2503

                      7                      8                      9
                      A                      A                      A
 Frequencies --    106.0771               137.2719               158.1249
 Red. masses --      5.1656                 1.0659                 2.0524
 Frc consts  --      0.0342                 0.0118                 0.0302
 IR Inten    --      1.4773                 0.0599                 0.8322

                     10                     11                     12
                      A                      A                      A
 Frequencies --    169.3141               174.0088               196.2104
 Red. masses --      2.9743                 1.1581                 3.3218
 Frc consts  --      0.0502                 0.0207                 0.0753
 IR Inten    --      1.5599                 2.0599                 1.0987

                     13                     14                     15
                      A                      A                      A
 Frequencies --    213.8151               234.6231               249.2657
 Red. masses --      2.1346                 2.5299                 4.2986
 Frc consts  --      0.0575                 0.0821                 0.1574
 IR Inten    --      0.0711                 2.5325                 2.5295

                     16                     17                     18
                      A                      A                      A
 Frequencies --    278.2391               294.1558               299.9667
 Red. masses --      4.4008                 3.2688                 2.2125
 Frc consts  --      0.2007                 0.1666                 0.1173
 IR Inten    --      0.7488                 1.6512                 3.6618

                     19                     20                     21
                      A                      A                      A
 Frequencies --    310.0476               356.4904               403.0399
 Red. masses --      2.7149                 5.6813                 3.9494
 Frc consts  --      0.1538                 0.4254                 0.3780
 IR Inten    --      0.4224                 6.7680                 0.5112

                     22                     23                     24
                      A                      A                      A
 Frequencies --    436.6237               452.1655               455.9004
 Red. masses --      3.5322                 2.9421                 3.9500
 Frc consts  --      0.3967                 0.3544                 0.4837
 IR Inten    --      1.8959                 1.2230                 2.9529

                     25                     26                     27
                      A                      A                      A
 Frequencies --    457.6859               521.5607               529.8549
 Red. masses --      3.3354                 5.1665                 4.2310
 Frc consts  --      0.4117                 0.8280                 0.6999
 IR Inten    --      2.9869                 2.4176                 1.4847

                     28                     29                     30
                      A                      A                      A
 Frequencies --    547.3096               608.9662               620.9844
 Red. masses --      4.3627                 4.9759                 5.1644
 Frc consts  --      0.7700                 1.0872                 1.1734
 IR Inten    --      1.8277                 0.8290                 6.2229

                     31                     32                     33
                      A                      A                      A
 Frequencies --    645.7507               701.5429               712.1800
 Red. masses --      5.9093                 6.0005                 3.5656
 Frc consts  --      1.4518                 1.7400                 1.0655
 IR Inten    --      9.7122                 0.5701                 1.6165

                     34                     35                     36
                      A                      A                      A
 Frequencies --    729.4388               766.8474               777.8776
 Red. masses --      2.9117                 4.3214                 2.1806
 Frc consts  --      0.9128                 1.4972                 0.7774
 IR Inten    --      4.0227                 1.1350                34.1041

                     37                     38                     39
                      A                      A                      A
 Frequencies --    782.0050               850.9392               859.4846
 Red. masses --      1.6801                 3.7898                 1.6543
 Frc consts  --      0.6053                 1.6168                 0.7200
 IR Inten    --      9.7897                40.6549                19.6434

                     40                     41                     42
                      A                      A                      A
 Frequencies --    892.4301               902.2189               921.1747
 Red. masses --      1.7215                 2.3854                 1.3879
 Frc consts  --      0.8078                 1.1440                 0.6939
 IR Inten    --     11.2786                 3.5614                13.7963

                     43                     44                     45
                      A                      A                      A
 Frequencies --    931.2787               943.4488               950.0467
 Red. masses --      2.8722                 1.3471                 1.3523
 Frc consts  --      1.4677                 0.7065                 0.7191
 IR Inten    --      6.4948                 4.6773                 3.5704

                     46                     47                     48
                      A                      A                      A
 Frequencies --    953.9824               978.1796               991.1601
 Red. masses --      1.4471                 1.3447                 2.4750
 Frc consts  --      0.7759                 0.7581                 1.4326
 IR Inten    --      0.0942                 0.5848               107.3799

                     49                     50                     51
                      A                      A                      A
 Frequencies --   1028.9870              1030.9992              1037.2729
 Red. masses --      1.7710                 1.5798                 3.3204
 Frc consts  --      1.1048                 0.9894                 2.1049
 IR Inten    --     10.6388                11.4963                 5.9111

                     52                     53                     54
                      A                      A                      A
 Frequencies --   1051.7438              1060.6445              1085.7524
 Red. masses --      2.4295                 1.4428                 1.6056
 Frc consts  --      1.5834                 0.9563                 1.1152
 IR Inten    --      1.3540                 6.4822                 0.0931

                     55                     56                     57
                      A                      A                      A
 Frequencies --   1096.5893              1143.6498              1148.6364
 Red. masses --      2.6613                 2.0386                 2.0321
 Frc consts  --      1.8855                 1.5710                 1.5796
 IR Inten    --     61.6771                10.1722                33.4800

                     58                     59                     60
                      A                      A                      A
 Frequencies --   1174.6498              1187.2715              1210.4827
 Red. masses --      1.7774                 1.7520                 2.0802
 Frc consts  --      1.4449                 1.4551                 1.7959
 IR Inten    --      2.9468                 4.3258                 5.7665

                     61                     62                     63
                      A                      A                      A
 Frequencies --   1211.6393              1255.6859              1281.0352
 Red. masses --      1.9706                 2.0762                 3.0407
 Frc consts  --      1.7045                 1.9288                 2.9400
 IR Inten    --     44.6267                34.5956                78.2504

                     64                     65                     66
                      A                      A                      A
 Frequencies --   1288.6481              1310.4410              1324.5932
 Red. masses --      1.2041                 3.8121                 1.2188
 Frc consts  --      1.1781                 3.8570                 1.2599
 IR Inten    --      8.0064                93.6080                36.4595

                     67                     68                     69
                      A                      A                      A
 Frequencies --   1329.9328              1346.5945              1359.3821
 Red. masses --      1.8336                 2.4791                 5.2874
 Frc consts  --      1.9108                 2.6486                 5.7567
 IR Inten    --     53.5905               369.8377                 2.8925

                     70                     71                     72
                      A                      A                      A
 Frequencies --   1364.9088              1401.1707              1434.2184
 Red. masses --      1.8287                 1.3909                 1.3824
 Frc consts  --      2.0073                 1.6089                 1.6754
 IR Inten    --     81.7346                 2.9719                 4.5102

                     73                     74                     75
                      A                      A                      A
 Frequencies --   1437.8484              1447.7009              1448.3996
 Red. masses --      1.3676                 1.3849                 2.3009
 Frc consts  --      1.6659                 1.7101                 2.8440
 IR Inten    --      0.7785                15.9563                 7.4727

                     76                     77                     78
                      A                      A                      A
 Frequencies --   1451.3570              1480.1213              1498.4435
 Red. masses --      1.2366                 2.8927                 2.9912
 Frc consts  --      1.5347                 3.7338                 3.9571
 IR Inten    --      0.2679                49.8997                53.3239

                     79                     80                     81
                      A                      A                      A
 Frequencies --   1506.5012              1509.6969              1519.7328
 Red. masses --      1.0452                 1.0916                 1.1411
 Frc consts  --      1.3976                 1.4658                 1.5528
 IR Inten    --      0.0720                 0.7742                20.6540

                     82                     83                     84
                      A                      A                      A
 Frequencies --   1522.5204              1524.2294              1526.3195
 Red. masses --      1.0446                 1.1754                 1.0504
 Frc consts  --      1.4266                 1.6089                 1.4418
 IR Inten    --     15.1563                 1.2622                 5.5635

                     85                     86                     87
                      A                      A                      A
 Frequencies --   1539.7677              1546.5889              1550.1942
 Red. masses --      1.0600                 1.1133                 2.2920
 Frc consts  --      1.4807                 1.5689                 3.2451
 IR Inten    --      6.4115                 7.6901                 0.8460

                     88                     89                     90
                      A                      A                      A
 Frequencies --   1615.1857              1622.7765              1654.2086
 Red. masses --      5.0952                 6.1057                 5.9257
 Frc consts  --      7.8317                 9.4733                 9.5536
 IR Inten    --    100.8544                26.3249                21.9666

                     91                     92                     93
                      A                      A                      A
 Frequencies --   1668.8251              1743.5510              3015.6007
 Red. masses --      5.7715                12.4504                 1.0564
 Frc consts  --      9.4702                22.2999                 5.6599
 IR Inten    --     34.9074               180.8597                27.4071

                     94                     95                     96
                      A                      A                      A
 Frequencies --   3040.1435              3040.9963              3048.3578
 Red. masses --      1.0389                 1.0381                 1.0724
 Frc consts  --      5.6575                 5.6563                 5.8711
 IR Inten    --      8.0329                47.4533                 9.5761

                     97                     98                     99
                      A                      A                      A
 Frequencies --   3052.7196              3062.9189              3087.5974
 Red. masses --      1.0388                 1.0957                 1.1001
 Frc consts  --      5.7040                 6.0566                 6.1792
 IR Inten    --     19.6465                57.9133                35.4588

                    100                    101                    102
                      A                      A                      A
 Frequencies --   3089.1350              3089.4190              3118.6610
 Red. masses --      1.1016                 1.1001                 1.1010
 Frc consts  --      6.1939                 6.1862                 6.3089
 IR Inten    --     19.8600                 0.0277                42.2190

                    103                    104                    105
                      A                      A                      A
 Frequencies --   3130.1582              3133.0822              3138.6263
 Red. masses --      1.1001                 1.0999                 1.1022
 Frc consts  --      6.3507                 6.3613                 6.3972
 IR Inten    --     24.6818                11.4330                35.3461

                    106                    107                    108
                      A                      A                      A
 Frequencies --   3185.1237              3203.7324              3203.7856
 Red. masses --      1.0893                 1.0892                 1.0889
 Frc consts  --      6.5112                 6.5867                 6.5849
 IR Inten    --     22.9435                26.7311                 9.3179

                    109                    110                    111
                      A                      A                      A
 Frequencies --   3210.2056              3225.5775              3226.1060
 Red. masses --      1.0920                 1.0924                 1.0910
 Frc consts  --      6.6302                 6.6962                 6.6900
 IR Inten    --      2.3972                 4.4559                 1.3983

 - Thermochemistry -
 -------------------
 Temperature   298.150 Kelvin.  Pressure   1.00000 Atm.
 Atom     1 has atomic number  6 and mass  12.00000

 Molecular mass:   269.14158 amu.
 Principal axes and moments of inertia in atomic units:
                           1         2         3
     Eigenvalues --  3993.624569624.14845**********
           X            0.99999   0.00433  -0.00198
           Y           -0.00431   0.99997   0.00713
           Z            0.00201  -0.00713   0.99997
 This molecule is an asymmetric top.
 Rotational symmetry number  1.
 Warning -- assumption of classical behavior for rotation
           may cause significant error
 Rotational temperatures (Kelvin)      0.02169     0.00900     0.00676
 Rotational constants (GHZ):           0.45191     0.18752     0.14079
 Zero-point vibrational energy     856014.4 (Joules/Mol)
                                  204.59236 (Kcal/Mol)
 Warning -- explicit consideration of  29 degrees of freedom as
           vibrations may cause significant error
 Vibrational temperatures:     37.23    50.09    51.65    90.83    95.80
          (Kelvin)            151.95   152.62   197.50   227.51   243.61
                              250.36   282.30   307.63   337.57   358.64
                              400.32   423.22   431.59   446.09   512.91
                              579.88   628.20   650.57   655.94   658.51
                              750.41   762.34   787.46   876.17   893.46
                              929.09  1009.36  1024.67  1049.50  1103.32
                             1119.19  1125.13  1224.31  1236.61  1284.01
                             1298.09  1325.36  1339.90  1357.41  1366.91
                             1372.57  1407.38  1426.06  1480.48  1483.38
                             1492.40  1513.22  1526.03  1562.16  1577.75
                             1645.46  1652.63  1690.06  1708.22  1741.61
                             1743.28  1806.65  1843.12  1854.08  1885.43
                             1905.79  1913.48  1937.45  1955.85  1963.80
                             2015.97  2063.52  2068.74  2082.92  2083.92
                             2088.18  2129.56  2155.93  2167.52  2172.12
                             2186.56  2190.57  2193.03  2196.03  2215.38
                             2225.20  2230.38  2323.89  2334.81  2380.04
                             2401.07  2508.58  4338.78  4374.09  4375.32
                             4385.91  4392.18  4406.86  4442.36  4444.58
                             4444.98  4487.06  4503.60  4507.81  4515.78
                             4582.68  4609.46  4609.53  4618.77  4640.89
                             4641.65

 Zero-point correction=                           0.326039 (Hartree/Particle)
 Thermal correction to Energy=                    0.345256
 Thermal correction to Enthalpy=                  0.346200
 Thermal correction to Gibbs Free Energy=         0.276878
 Sum of electronic and zero-point Energies=           -864.209359
 Sum of electronic and thermal Energies=              -864.190142
 Sum of electronic and thermal Enthalpies=            -864.189198
 Sum of electronic and thermal Free Energies=         -864.258520

                     E (Thermal)             CV                S
                      KCal/Mol        Cal/Mol-Kelvin    Cal/Mol-Kelvin
 Total                  216.651             72.198            145.901
 Electronic               0.000              0.000              0.000
 Translational            0.889              2.981             42.669
 Rotational               0.889              2.981             34.554
 Vibrational            214.874             66.236             68.678
 Vibration     1          0.593              1.985              6.123
 Vibration     2          0.594              1.983              5.534
 Vibration     3          0.594              1.982              5.474
 Vibration     4          0.597              1.972              4.357
 Vibration     5          0.598              1.970              4.252
 Vibration     6          0.605              1.945              3.348
 Vibration     7          0.605              1.944              3.339
 Vibration     8          0.614              1.916              2.842
 Vibration     9          0.621              1.894              2.572
 Vibration    10          0.625              1.880              2.443
 Vibration    11          0.627              1.874              2.392
 Vibration    12          0.636              1.845              2.168
 Vibration    13          0.644              1.820              2.011
 Vibration    14          0.654              1.788              1.843
 Vibration    15          0.662              1.764              1.736
 Vibration    16          0.679              1.714              1.544
 Vibration    17          0.689              1.685              1.450
 Vibration    18          0.693              1.674              1.417
 Vibration    19          0.699              1.655              1.362
 Vibration    20          0.732              1.562              1.137
 Vibration    21          0.768              1.464              0.952
 Vibration    22          0.797              1.390              0.837
 Vibration    23          0.811              1.356              0.789
 Vibration    24          0.814              1.348              0.778
 Vibration    25          0.816              1.344              0.773
 Vibration    26          0.877              1.202              0.606
 Vibration    27          0.885              1.184              0.588
 Vibration    28          0.903              1.146              0.550
 Vibration    29          0.968              1.013              0.434

 Optimization completed.
    -- Stationary point found.
 Normal termination of Gaussian 16 at Mon Dec 14 19:23:10 2020.

 ----------------------------------------------------------------------
 # B3LYP/6-311++G(d,p) empiricaldispersion=gd3bj scf=xqc pop=npa geom=c
 heck
 ----------------------------------------------------------------------

 ----------------------------------------
 CID_115794191_JID_10311_Energie_neutraal
 ----------------------------------------
 Structure from the checkpoint file:  "JID_10311.chk"
 Charge =  0 Multiplicity = 1

 SCF Done:  E(RB3LYP) =  -864.762528180     A.U. after   16 cycles
 Normal termination of Gaussian 16 at Mon Dec 14 19:31:44 2020.

 ----------------------------------------------------------------------
 # B3LYP/6-311++G(d,p) empiricaldispersion=gd3bj scf=xqc pop=npa geom=c
 heck
 ----------------------------------------------------------------------

 --------------------------------------
 CID_115794191_JID_10311_Energie_kation
 --------------------------------------
 Structure from the checkpoint file:  "JID_10311.chk"
 Charge =  1 Multiplicity = 2

 SCF Done:  E(UB3LYP) =  -864.461431026     A.U. after   30 cycles
 Normal termination of Gaussian 16 at Mon Dec 14 19:54:15 2020.
 Gaussian 16:  ES64L-G16RevA.03 25-Dec-2016

 ----------------------------------------------------------------------
 # B3LYP/6-311++G(d,p) empiricaldispersion=gd3bj scf=xqc pop=npa geom=c
 heck
 ----------------------------------------------------------------------

 -------------------------------------
 CID_115794191_JID_10311_Energie_anion
 -------------------------------------
 Structure from the checkpoint file:  "JID_10311.chk"
 Charge = -1 Multiplicity = 2

                         Standard orientation:
 ---------------------------------------------------------------------
 Center     Atomic      Atomic             Coordinates (Angstroms)
 Number     Number       Type             X           Y           Z
 ---------------------------------------------------------------------
      1          6           0        4.071933    3.300473   -0.033278
      2          6           0        4.777146    2.164389   -0.777523
      3          6           0        4.385942    0.786188   -0.267552
      4          8           0        2.984956    0.618764   -0.500307
      5          6           0        2.392555   -0.531476   -0.085642
      6          6           0        3.048887   -1.598104    0.542267
      7          7           0        2.419796   -2.720417    0.921264
      8          6           0        1.114618   -2.823554    0.683896
      9          6           0        0.357545   -1.805181    0.077932
     10          6           0        1.017283   -0.643253   -0.315555
     11          6           0       -1.098239   -2.050781   -0.178776
     12          8           0       -1.487437   -3.193328   -0.392854
     13          6           0       -2.057383   -0.907318   -0.174642
     14          6           0       -1.836660    0.271562    0.551572
     15          6           0       -2.775054    1.304531    0.574040
     16          6           0       -3.969493    1.162106   -0.161986
     17          6           0       -4.190068   -0.020806   -0.878824
     18          6           0       -3.258058   -1.050732   -0.880430
     19          6           0       -4.999863    2.261649   -0.172653
     20          6           0       -2.509479    2.552802    1.378128
     21          1           0        2.986184    3.213725   -0.134494
     22          1           0        4.375801    4.276049   -0.426652
     23          1           0        4.313496    3.279064    1.036440
     24          1           0        4.551912    2.215983   -1.849721
     25          1           0        5.865859    2.260022   -0.676575
     26          1           0        4.943166   -0.002543   -0.791389
     27          1           0        4.593483    0.695967    0.808606
     28          1           0        4.115063   -1.560798    0.744244
     29          1           0        0.624132   -3.744726    0.984736
     30          1           0        0.499321    0.169620   -0.812392
     31          1           0       -0.927762    0.379776    1.134853
     32          1           0       -5.114180   -0.131367   -1.440568
     33          1           0       -3.438032   -1.972954   -1.422320
     34          1           0       -5.363472    2.481275    0.839237
     35          1           0       -4.585197    3.198087   -0.567052
     36          1           0       -5.861978    1.989945   -0.788051
     37          1           0       -1.542830    2.495163    1.886574
     38          1           0       -2.502184    3.448226    0.743676
     39          1           0       -3.281176    2.713946    2.141442
 ---------------------------------------------------------------------

 SCF Done:  E(UB3LYP) =  -864.785528143     A.U. after   26 cycles

 The electronic state is 2-A.
 Alpha  occ. eigenvalues --  -19.04840 -18.91875 -14.17593 -10.13845 -10.11041
 Alpha  occ. eigenvalues --  -10.09768 -10.08658 -10.06724 -10.06604 -10.06514
 Alpha  occ. eigenvalues --  -10.06473 -10.05872 -10.05575 -10.05062 -10.04554
 Alpha  occ. eigenvalues --  -10.04123 -10.03879 -10.03637 -10.03312 -10.03190
 Alpha  occ. eigenvalues --   -0.96585  -0.86214  -0.80556  -0.73601  -0.71688
 Alpha  occ. eigenvalues --   -0.67096  -0.65745  -0.64652  -0.63039  -0.60146
 Alpha  occ. eigenvalues --   -0.58550  -0.56186  -0.53299  -0.50160  -0.49715
 Alpha  occ. eigenvalues --   -0.47781  -0.46410  -0.43318  -0.39908  -0.39721
 Alpha  occ. eigenvalues --   -0.37927  -0.37538  -0.36039  -0.35410  -0.34878
 Alpha  occ. eigenvalues --   -0.33613  -0.33127  -0.32417  -0.30334  -0.29962
 Alpha  occ. eigenvalues --   -0.29800  -0.28915  -0.28693  -0.28240  -0.27846
 Alpha  occ. eigenvalues --   -0.27464  -0.27088  -0.26705  -0.26549  -0.25082
 Alpha  occ. eigenvalues --   -0.24233  -0.23440  -0.22643  -0.22050  -0.21073
 Alpha  occ. eigenvalues --   -0.20931  -0.14530  -0.13083  -0.12675  -0.11563
 Alpha  occ. eigenvalues --   -0.11249  -0.08455   0.03223
 Alpha virt. eigenvalues --    0.05760   0.06971   0.07691   0.08254   0.08872
 Alpha virt. eigenvalues --    0.09286   0.09658   0.10211   0.10528   0.10933
 Alpha virt. eigenvalues --    0.11375   0.11663   0.11960   0.12220   0.12293

  Beta  occ. eigenvalues --  -19.04844 -18.91231 -14.17612 -10.13843 -10.11097
  Beta  occ. eigenvalues --  -10.09769 -10.08657 -10.06621 -10.06513 -10.06404
  Beta  occ. eigenvalues --  -10.06260 -10.05816 -10.05608 -10.04849 -10.04618
  Beta  occ. eigenvalues --  -10.03930 -10.03790 -10.03584 -10.03296 -10.03050
  Beta  occ. eigenvalues --   -0.96595  -0.85078  -0.80416  -0.73408  -0.71672
  Beta  occ. eigenvalues --   -0.66780  -0.65578  -0.64518  -0.62819  -0.60030
  Beta  occ. eigenvalues --   -0.58419  -0.55978  -0.53122  -0.49792  -0.49475
  Beta  occ. eigenvalues --   -0.47636  -0.46171  -0.43186  -0.39844  -0.39523
  Beta  occ. eigenvalues --   -0.37786  -0.37428  -0.35879  -0.35264  -0.34811
  Beta  occ. eigenvalues --   -0.33497  -0.32982  -0.32269  -0.30222  -0.29881
  Beta  occ. eigenvalues --   -0.29681  -0.28834  -0.28565  -0.28173  -0.27683
  Beta  occ. eigenvalues --   -0.27344  -0.26892  -0.26526  -0.26289  -0.24757
  Beta  occ. eigenvalues --   -0.23336  -0.23205  -0.22457  -0.21829  -0.20913
  Beta  occ. eigenvalues --   -0.19141  -0.13430  -0.12972  -0.12122  -0.10690
  Beta  occ. eigenvalues --   -0.10342  -0.07752
  Beta virt. eigenvalues --    0.05745   0.06951   0.07672   0.08240   0.08830
  Beta virt. eigenvalues --    0.09101   0.09587   0.09891   0.10387   0.10619
  Beta virt. eigenvalues --    0.10979   0.11672   0.11876   0.11948   0.12350

 Mulliken charges and spin densities:
               1          2
     1  C   -0.474378  -0.004284
     2  C   -0.438387   0.004639
     3  C   -0.098447  -0.003961
     4  O   -0.103179   0.000813
     5  C    0.027557  -0.042355
     6  C   -0.618771   0.148671
     7  N   -0.041354  -0.015678
     8  C   -0.019194   0.061557
     9  C    1.346602   0.081233
    10  C   -0.594626   0.133920
    11  C   -1.631726   0.136740
    12  O   -0.344754   0.235322
    13  C    1.118718   0.032714
    14  C   -1.071934   0.035918
    15  C    0.292766  -0.022436
    16  C    0.785593   0.141304
    17  C   -0.733265  -0.044236
    18  C   -0.010176   0.143660
    19  C   -0.522308  -0.018152
    20  C   -0.583393   0.005554
    21  H    0.171218  -0.000279
    22  H    0.124654   0.001819
    23  H    0.112300   0.000267
    24  H    0.140931   0.001293
    25  H    0.129895  -0.000473
    26  H    0.143106   0.002012
    27  H    0.148896   0.000019
    28  H    0.154663  -0.011904
    29  H    0.211532  -0.003191
    30  H    0.198446  -0.009676
    31  H    0.130718  -0.005115
    32  H    0.076587   0.003526
    33  H    0.188463  -0.009613
    34  H    0.125046   0.009677
    35  H    0.124484   0.011422
    36  H    0.137284   0.000434
    37  H    0.147217   0.000646
    38  H    0.127023  -0.000769
    39  H    0.122193  -0.001037
 Sum of Mulliken charges =  -1.00000   1.00000

 Dipole moment (field-independent basis, Debye):
    X=              3.8160    Y=              9.4845    Z=             -0.0471  Tot=             10.2235
 Quadrupole moment (field-independent basis, Debye-Ang):
   XX=           -151.8519   YY=           -163.8056   ZZ=           -129.7954
   XY=              3.4637   XZ=             -4.0256   YZ=              1.7199

 Summary of Natural Population Analysis:

                                       Natural Population
                Natural  -----------------------------------------------
    Atom  No    Charge         Core      Valence    Rydberg      Total
 -----------------------------------------------------------------------
      C    1   -0.28836      0.99967     2.28415    0.00454     3.28836
      C    2   -0.19706      0.99964     2.19094    0.00648     3.19706
      C    3   -0.00916      0.99958     1.99938    0.01019     3.00916
      O    4   -0.28524      0.99985     3.27464    0.01076     4.28524
      C    5    0.12159      0.99938     1.86584    0.01318     2.87841
      C    6    0.00984      0.99955     1.97694    0.01366     2.99016
      N    7   -0.24310      0.99972     2.73043    0.01296     3.74310
      C    8    0.04242      0.99956     1.94361    0.01440     2.95758
      C    9   -0.05433      0.99949     2.04434    0.01049     3.05433
      C   10   -0.06366      0.99950     2.05645    0.00771     3.06366
      C   11    0.29260      0.99958     1.68728    0.02055     2.70740
      O   12   -0.23096      0.99988     3.22523    0.00584     4.23096
      C   13   -0.05411      0.99949     2.04495    0.00968     3.05411
      C   14   -0.06903      0.99943     2.06173    0.00786     3.06903
      C   15   -0.03672      0.99949     2.02918    0.00805     3.03672
      C   16    0.01569      0.99948     1.97717    0.00765     2.98431
      C   17   -0.12172      0.99953     2.11350    0.00869     3.12172
      C   18   -0.05468      0.99953     2.04602    0.00913     3.05468
      C   19   -0.29337      0.99965     2.28935    0.00436     3.29337
      C   20   -0.29049      0.99965     2.28629    0.00455     3.29049
      H   21    0.10771      0.00000     0.39135    0.00095     0.39229
      H   22    0.09399      0.00000     0.40519    0.00082     0.40601
      H   23    0.09408      0.00000     0.40501    0.00090     0.40592
      H   24    0.09781      0.00000     0.40098    0.00121     0.40219
      H   25    0.09255      0.00000     0.40641    0.00104     0.40745
      H   26    0.08407      0.00000     0.41419    0.00174     0.41593
      H   27    0.08084      0.00000     0.41745    0.00171     0.41916
      H   28    0.08079      0.00000     0.41772    0.00149     0.41921
      H   29    0.09490      0.00000     0.40378    0.00132     0.40510
      H   30    0.10421      0.00000     0.39424    0.00155     0.39579
      H   31    0.09872      0.00000     0.39985    0.00143     0.40128
      H   32    0.08937      0.00000     0.40911    0.00153     0.41063
      H   33    0.10496      0.00000     0.39325    0.00179     0.39504
      H   34    0.09823      0.00000     0.40068    0.00109     0.40177
      H   35    0.09822      0.00000     0.40070    0.00108     0.40178
      H   36    0.09706      0.00000     0.40205    0.00089     0.40294
      H   37    0.10038      0.00000     0.39876    0.00086     0.39962
      H   38    0.09605      0.00000     0.40285    0.00109     0.40395
      H   39    0.09591      0.00000     0.40298    0.00111     0.40409
 =======================================================================
   * Total *    0.00000     19.99165    51.79398    0.21436    72.00000

 Normal termination of Gaussian 16 at Mon Dec 14 20:14:04 2020.
