 Gaussian 16, Revision A.03,

 -----------------------------------------------------------
 # opt freq B3LYP/6-31G(d) empiricaldispersion=gd3bj scf=xqc
 -----------------------------------------------------------

 -------------------------------
 CID_104720307_JID_6502_neutraal
 -------------------------------
 Symbolic Z-matrix:
 Charge =  0 Multiplicity = 1

 SCF Done:  E(RB3LYP) =  -703.401692014     A.U. after   15 cycles
 SCF Done:  E(RB3LYP) =  -703.405892312     A.U. after   13 cycles
 SCF Done:  E(RB3LYP) =  -703.406538309     A.U. after   12 cycles
 SCF Done:  E(RB3LYP) =  -703.406919927     A.U. after   13 cycles
 SCF Done:  E(RB3LYP) =  -703.407437989     A.U. after   12 cycles
 SCF Done:  E(RB3LYP) =  -703.409254472     A.U. after   15 cycles
 SCF Done:  E(RB3LYP) =  -703.410356406     A.U. after   13 cycles
 SCF Done:  E(RB3LYP) =  -703.412251307     A.U. after   13 cycles
 SCF Done:  E(RB3LYP) =  -703.413326939     A.U. after   13 cycles
 SCF Done:  E(RB3LYP) =  -703.413728242     A.U. after   13 cycles
 SCF Done:  E(RB3LYP) =  -703.414147745     A.U. after   10 cycles
 SCF Done:  E(RB3LYP) =  -703.414149119     A.U. after    9 cycles
 SCF Done:  E(RB3LYP) =  -703.414149665     A.U. after    8 cycles
 SCF Done:  E(RB3LYP) =  -703.414149836     A.U. after    8 cycles
 SCF Done:  E(RB3LYP) =  -703.414149892     A.U. after    7 cycles
 Optimization completed.
    -- Stationary point found.
 Normal termination of Gaussian 16 at Thu Dec 10 23:20:54 2020.

 --------------------------------------------------------------------
 #N Geom=AllCheck Guess=TCheck SCRF=Check GenChk RB3LYP/6-31G(d) Freq
 --------------------------------------------------------------------

 Structure from the checkpoint file:  "JID_6502.chk"
 -------------------------------
 CID_104720307_JID_6502_neutraal
 -------------------------------
 Charge =  0 Multiplicity = 1

 SCF Done:  E(RB3LYP) =  -703.414149892     A.U. after    1 cycles

  Exact polarizability: 186.758   2.707 163.823  10.531  -0.752  82.763
 Approx polarizability: 282.363  -0.346 281.242  29.417  -2.136 135.920

                      1                      2                      3
                      A                      A                      A
 Frequencies --     45.0689                74.9927                91.3138
 Red. masses --      5.3225                 4.4242                 4.7892
 Frc consts  --      0.0064                 0.0147                 0.0235
 IR Inten    --      0.3229                 0.5466                 0.8394

                      4                      5                      6
                      A                      A                      A
 Frequencies --    110.5952               122.1982               137.0683
 Red. masses --      4.7394                 8.4885                 3.5889
 Frc consts  --      0.0342                 0.0747                 0.0397
 IR Inten    --      2.5940                 2.2658                 4.5048

                      7                      8                      9
                      A                      A                      A
 Frequencies --    160.6712               197.5682               263.2219
 Red. masses --      2.2649                 4.5679                 4.6520
 Frc consts  --      0.0344                 0.1051                 0.1899
 IR Inten    --      1.1369                 0.4022                 3.0050

                     10                     11                     12
                      A                      A                      A
 Frequencies --    305.4479               323.2437               356.7681
 Red. masses --      3.9640                 5.1833                 2.8956
 Frc consts  --      0.2179                 0.3191                 0.2172
 IR Inten    --      1.1793                 2.5755                 2.5989

                     13                     14                     15
                      A                      A                      A
 Frequencies --    400.4493               415.4802               449.8604
 Red. masses --      5.4544                 5.3788                 5.8965
 Frc consts  --      0.5153                 0.5471                 0.7031
 IR Inten    --      0.3998                 1.9956                 2.6196

                     16                     17                     18
                      A                      A                      A
 Frequencies --    479.4292               503.8929               550.7678
 Red. masses --      7.0020                 6.0570                 2.6463
 Frc consts  --      0.9482                 0.9061                 0.4730
 IR Inten    --      4.3392                 0.8810                 1.0180

                     19                     20                     21
                      A                      A                      A
 Frequencies --    559.8592               563.3532               591.8971
 Red. masses --      1.4662                 2.4698                 3.8448
 Frc consts  --      0.2708                 0.4618                 0.7936
 IR Inten    --     10.9718                13.8758                 2.9687

                     22                     23                     24
                      A                      A                      A
 Frequencies --    614.4412               620.9004               675.1940
 Red. masses --      5.9636                 5.4041                 2.4695
 Frc consts  --      1.3265                 1.2275                 0.6633
 IR Inten    --      2.1163                 4.8487                52.6216

                     25                     26                     27
                      A                      A                      A
 Frequencies --    677.6416               731.5633               746.4555
 Red. masses --      1.9007                 3.1179                 3.9339
 Frc consts  --      0.5143                 0.9831                 1.2915
 IR Inten    --     58.0903                11.8219                 4.0352

                     28                     29                     30
                      A                      A                      A
 Frequencies --    786.4245               862.6950               880.6119
 Red. masses --      1.8220                 5.1200                 3.3359
 Frc consts  --      0.6639                 2.2451                 1.5242
 IR Inten    --     33.4764                 2.3582                 0.0902

                     31                     32                     33
                      A                      A                      A
 Frequencies --    884.2333               927.2661               939.5331
 Red. masses --      1.5123                 3.5626                 2.7143
 Frc consts  --      0.6967                 1.8048                 1.4117
 IR Inten    --      1.1381                 5.9551                 5.5423

                     34                     35                     36
                      A                      A                      A
 Frequencies --    949.6199               954.0898              1003.2640
 Red. masses --      1.3689                 1.2579                 1.9826
 Frc consts  --      0.7273                 0.6747                 1.1757
 IR Inten    --     21.2942                 0.8259                 4.8682

                     37                     38                     39
                      A                      A                      A
 Frequencies --   1017.4791              1037.5977              1079.4087
 Red. masses --      2.0287                 1.1073                 1.5810
 Frc consts  --      1.2375                 0.7024                 1.0853
 IR Inten    --      5.9462                 7.1865                 6.9244

                     40                     41                     42
                      A                      A                      A
 Frequencies --   1120.2906              1135.1428              1208.7054
 Red. masses --      2.1951                 2.3706                 1.9210
 Frc consts  --      1.6232                 1.7998                 1.6536
 IR Inten    --      0.6769                17.4454                22.8244

                     43                     44                     45
                      A                      A                      A
 Frequencies --   1213.0174              1262.3422              1267.3279
 Red. masses --      1.2863                 1.9258                 1.6206
 Frc consts  --      1.1151                 1.8081                 1.5336
 IR Inten    --      3.2911                 5.8613                 8.0949

                     46                     47                     48
                      A                      A                      A
 Frequencies --   1297.6502              1314.0166              1333.4031
 Red. masses --      1.8673                 1.5961                 1.2954
 Frc consts  --      1.8526                 1.6237                 1.3570
 IR Inten    --     41.0833                 5.7109                 6.4584

                     49                     50                     51
                      A                      A                      A
 Frequencies --   1353.5432              1355.4714              1394.8483
 Red. masses --      5.6201                 2.3033                 2.7341
 Frc consts  --      6.0665                 2.4933                 3.1341
 IR Inten    --    279.9497                25.1289               101.0965

                     52                     53                     54
                      A                      A                      A
 Frequencies --   1408.7510              1441.5074              1459.4900
 Red. masses --      1.4758                 2.0192                 2.2062
 Frc consts  --      1.7257                 2.4721                 2.7689
 IR Inten    --     43.4020                 7.1391                29.4131

                     55                     56                     57
                      A                      A                      A
 Frequencies --   1468.7217              1504.3793              1516.7021
 Red. masses --      1.2021                 1.0843                 1.4303
 Frc consts  --      1.5278                 1.4458                 1.9386
 IR Inten    --      2.7763                15.1790                45.2571

                     58                     59                     60
                      A                      A                      A
 Frequencies --   1540.9055              1549.3087              1642.8375
 Red. masses --      2.0299                 3.3837                 5.4872
 Frc consts  --      2.8397                 4.7854                 8.7255
 IR Inten    --      9.3260               216.9526                47.6039

                     61                     62                     63
                      A                      A                      A
 Frequencies --   1654.0782              1735.9225              1823.7363
 Red. masses --      5.9869                 4.4327                 9.4291
 Frc consts  --      9.6508                 7.8700                18.4775
 IR Inten    --      9.6271                 3.6604               543.7774

                     64                     65                     66
                      A                      A                      A
 Frequencies --   2339.7992              2984.9646              3029.9801
 Red. masses --     12.6734                 1.0727                 1.0601
 Frc consts  --     40.8792                 5.6315                 5.7340
 IR Inten    --     48.2037                51.7412                36.5342

                     67                     68                     69
                      A                      A                      A
 Frequencies --   3060.4646              3124.3840              3151.4844
 Red. masses --      1.1029                 1.0892                 1.0847
 Frc consts  --      6.0864                 6.2643                 6.3476
 IR Inten    --     14.4077                10.0098                29.1238

                     70                     71                     72
                      A                      A                      A
 Frequencies --   3177.2035              3208.1354              3231.8904
 Red. masses --      1.0650                 1.0879                 1.0925
 Frc consts  --      6.3339                 6.5971                 6.7234
 IR Inten    --      2.8915                 6.4628                 4.5534

                     73                     74                     75
                      A                      A                      A
 Frequencies --   3238.2255              3254.8551              3568.2601
 Red. masses --      1.0937                 1.1163                 1.0770
 Frc consts  --      6.7569                 6.9678                 8.0792
 IR Inten    --      6.3835                18.4943                44.6812

 - Thermochemistry -
 -------------------
 Temperature   298.150 Kelvin.  Pressure   1.00000 Atm.
 Atom     1 has atomic number  6 and mass  12.00000

 Molecular mass:   213.09021 amu.
 Principal axes and moments of inertia in atomic units:
                           1         2         3
     Eigenvalues --  2329.932813873.932335754.88015
           X            0.99999  -0.00137  -0.00390
           Y            0.00138   1.00000   0.00119
           Z            0.00390  -0.00119   0.99999
 This molecule is an asymmetric top.
 Rotational symmetry number  1.
 Warning -- assumption of classical behavior for rotation
           may cause significant error
 Rotational temperatures (Kelvin)      0.03717     0.02236     0.01505
 Rotational constants (GHZ):           0.77459     0.46587     0.31360
 Zero-point vibrational energy     559034.8 (Joules/Mol)
                                  133.61251 (Kcal/Mol)
 Warning -- explicit consideration of  22 degrees of freedom as
           vibrations may cause significant error
 Vibrational temperatures:     64.84   107.90   131.38   159.12   175.82
          (Kelvin)            197.21   231.17   284.26   378.72   439.47
                              465.08   513.31   576.16   597.78   647.25
                              689.79   724.99   792.43   805.51   810.54
                              851.61   884.04   893.34   971.45   974.98
                             1052.56  1073.98  1131.49  1241.23  1267.00
                             1272.21  1334.13  1351.78  1366.29  1372.72
                             1443.47  1463.93  1492.87  1553.03  1611.85
                             1633.22  1739.06  1745.26  1816.23  1823.40
                             1867.03  1890.58  1918.47  1947.45  1950.22
                             2006.88  2026.88  2074.01  2099.88  2113.16
                             2164.47  2182.20  2217.02  2229.11  2363.68
                             2379.85  2497.61  2623.95  3366.45  4294.70
                             4359.47  4403.33  4495.29  4534.28  4571.29
                             4615.79  4649.97  4659.08  4683.01  5133.93

 Zero-point correction=                           0.212925 (Hartree/Particle)
 Thermal correction to Energy=                    0.226601
 Thermal correction to Enthalpy=                  0.227545
 Thermal correction to Gibbs Free Energy=         0.172245
 Sum of electronic and zero-point Energies=           -703.201225
 Sum of electronic and thermal Energies=              -703.187549
 Sum of electronic and thermal Enthalpies=            -703.186604
 Sum of electronic and thermal Free Energies=         -703.241905

                     E (Thermal)             CV                S
                      KCal/Mol        Cal/Mol-Kelvin    Cal/Mol-Kelvin
 Total                  142.194             52.675            116.390
 Electronic               0.000              0.000              0.000
 Translational            0.889              2.981             41.973
 Rotational               0.889              2.981             32.318
 Vibrational            140.417             46.714             42.099
 Vibration     1          0.595              1.979              5.023
 Vibration     2          0.599              1.966              4.018
 Vibration     3          0.602              1.955              3.632
 Vibration     4          0.606              1.941              3.258
 Vibration     5          0.610              1.931              3.065
 Vibration     6          0.614              1.916              2.844
 Vibration     7          0.622              1.891              2.542
 Vibration     8          0.637              1.843              2.156
 Vibration     9          0.670              1.740              1.640
 Vibration    10          0.696              1.663              1.387
 Vibration    11          0.708              1.629              1.294
 Vibration    12          0.732              1.561              1.136
 Vibration    13          0.766              1.469              0.961
 Vibration    14          0.779              1.437              0.907
 Vibration    15          0.809              1.361              0.796
 Vibration    16          0.836              1.296              0.712
 Vibration    17          0.859              1.241              0.648
 Vibration    18          0.906              1.138              0.543
 Vibration    19          0.915              1.118              0.524
 Vibration    20          0.919              1.111              0.517
 Vibration    21          0.949              1.049              0.464
 Vibration    22          0.974              1.001              0.425

                           ! Non-Optimized Parameters !
 Normal termination of Gaussian 16 at Thu Dec 10 23:30:36 2020.

 ----------------------------------------------------------------------
 # B3LYP/6-311++G(d,p) empiricaldispersion=gd3bj scf=xqc pop=npa geom=c
 heck
 ----------------------------------------------------------------------

 ---------------------------------------
 CID_104720307_JID_6502_Energie_neutraal
 ---------------------------------------
 Structure from the checkpoint file:  "JID_6502.chk"
 Charge =  0 Multiplicity = 1

 SCF Done:  E(RB3LYP) =  -703.606140609     A.U. after   16 cycles
 Normal termination of Gaussian 16 at Thu Dec 10 23:35:05 2020.

 ----------------------------------------------------------------------
 # B3LYP/6-311++G(d,p) empiricaldispersion=gd3bj scf=xqc pop=npa geom=c
 heck
 ----------------------------------------------------------------------

 -------------------------------------
 CID_104720307_JID_6502_Energie_kation
 -------------------------------------
 Structure from the checkpoint file:  "JID_6502.chk"
 Charge =  1 Multiplicity = 2

 SCF Done:  E(UB3LYP) =  -703.320909874     A.U. after   23 cycles
 Normal termination of Gaussian 16 at Thu Dec 10 23:44:18 2020.
 Gaussian 16:  ES64L-G16RevA.03 25-Dec-2016

 ----------------------------------------------------------------------
 # B3LYP/6-311++G(d,p) empiricaldispersion=gd3bj scf=xqc pop=npa geom=c
 heck
 ----------------------------------------------------------------------

 ------------------------------------
 CID_104720307_JID_6502_Energie_anion
 ------------------------------------
 Structure from the checkpoint file:  "JID_6502.chk"
 Charge = -1 Multiplicity = 2

                         Standard orientation:
 ---------------------------------------------------------------------
 Center     Atomic      Atomic             Coordinates (Angstroms)
 Number     Number       Type             X           Y           Z
 ---------------------------------------------------------------------
      1          6           0        3.156672   -0.867489   -1.480136
      2          6           0        3.550712   -0.680697   -0.221542
      3          6           0        2.690049   -0.152984    0.903655
      4          7           0        1.377203    0.343338    0.537719
      5          6           0        1.327775    1.658382   -0.087091
      6          6           0       -0.043715    2.307811    0.021066
      7          8           0       -0.203338    3.514015   -0.010358
      8          7           0       -1.092198    1.422115    0.105930
      9          6           0       -0.962756    0.033537    0.114073
     10          6           0       -2.082157   -0.800804   -0.045827
     11          6           0       -1.949603   -2.199043    0.021127
     12          6           0       -0.693098   -2.747082    0.229964
     13          6           0        0.429347   -1.926172    0.369970
     14          6           0        0.316810   -0.530618    0.325630
     15          6           0       -3.358999   -0.194815   -0.253523
     16          7           0       -4.375087    0.349488   -0.417263
     17          1           0        2.141369   -0.654760   -1.801586
     18          1           0        3.836967   -1.250037   -2.234869
     19          1           0        4.575917   -0.916571    0.065668
     20          1           0        2.564084   -0.928678    1.671420
     21          1           0        3.220774    0.669506    1.402120
     22          1           0        1.610701    1.636664   -1.153375
     23          1           0        2.035211    2.320289    0.417628
     24          1           0       -2.021461    1.830282    0.082320
     25          1           0       -2.828196   -2.822209   -0.097441
     26          1           0       -0.570944   -3.824505    0.271115
     27          1           0        1.406640   -2.376838    0.490967
 ---------------------------------------------------------------------

 SCF Done:  E(UB3LYP) =  -703.614223124     A.U. after   33 cycles
 SCF Done:  E(UB3LYP) =  -703.614223124     a.u. after    1 cycles

 The electronic state is 2-A.
 Alpha  occ. eigenvalues --  -18.98604 -14.24173 -14.22959 -14.16471 -10.16755
 Alpha  occ. eigenvalues --  -10.11780 -10.11346 -10.09432 -10.09008 -10.08691
 Alpha  occ. eigenvalues --  -10.07472 -10.06637 -10.06036 -10.04654 -10.04595
 Alpha  occ. eigenvalues --  -10.03488  -0.94139  -0.86476  -0.82423  -0.76858
 Alpha  occ. eigenvalues --   -0.72727  -0.69682  -0.64913  -0.63701  -0.62545
 Alpha  occ. eigenvalues --   -0.56545  -0.52664  -0.52397  -0.46947  -0.45708
 Alpha  occ. eigenvalues --   -0.44124  -0.40293  -0.40177  -0.39292  -0.36742
 Alpha  occ. eigenvalues --   -0.35932  -0.33822  -0.33742  -0.32726  -0.31880
 Alpha  occ. eigenvalues --   -0.30669  -0.29729  -0.29353  -0.27790  -0.26687
 Alpha  occ. eigenvalues --   -0.25411  -0.24749  -0.22858  -0.22785  -0.20044
 Alpha  occ. eigenvalues --   -0.19954  -0.18027  -0.17466  -0.15777  -0.11781
 Alpha  occ. eigenvalues --   -0.08581   0.04132
 Alpha virt. eigenvalues --    0.05681   0.08051   0.08336   0.08720   0.09187
 Alpha virt. eigenvalues --    0.09941   0.10344   0.11118   0.11317   0.12296
 Alpha virt. eigenvalues --    0.13141   0.13569   0.13934   0.14161   0.14869

  Beta  occ. eigenvalues --  -18.98518 -14.24216 -14.22978 -14.16157 -10.16668
  Beta  occ. eigenvalues --  -10.11776 -10.11354 -10.09491 -10.08775 -10.08663
  Beta  occ. eigenvalues --  -10.07474 -10.06623 -10.05782 -10.04647 -10.04520
  Beta  occ. eigenvalues --  -10.03134  -0.93985  -0.86415  -0.82366  -0.76395
  Beta  occ. eigenvalues --   -0.72380  -0.69642  -0.64677  -0.63285  -0.62393
  Beta  occ. eigenvalues --   -0.56371  -0.52525  -0.51773  -0.46861  -0.45573
  Beta  occ. eigenvalues --   -0.44041  -0.40144  -0.40096  -0.39184  -0.36583
  Beta  occ. eigenvalues --   -0.35822  -0.33681  -0.33600  -0.32560  -0.31789
  Beta  occ. eigenvalues --   -0.30584  -0.29617  -0.28952  -0.27576  -0.26199
  Beta  occ. eigenvalues --   -0.25224  -0.24478  -0.22370  -0.21748  -0.19824
  Beta  occ. eigenvalues --   -0.19382  -0.17619  -0.17385  -0.15602  -0.10197
  Beta  occ. eigenvalues --   -0.07842
  Beta virt. eigenvalues --    0.06310   0.08182   0.08310   0.08719   0.09230
  Beta virt. eigenvalues --    0.09386   0.10357   0.10647   0.11197   0.11253
  Beta virt. eigenvalues --    0.12304   0.13071   0.13621   0.14112   0.14304

 Mulliken charges and spin densities:
               1          2
     1  C    0.018371  -0.401385
     2  C    0.291713  -0.357760
     3  C   -0.233602   0.031147
     4  N    0.179785  -0.013595
     5  C   -0.188098  -0.078770
     6  C    0.089769   0.057819
     7  O   -0.368858   0.030101
     8  N   -0.188050  -0.020550
     9  C   -0.034839   0.143228
    10  C    1.422780   0.195716
    11  C   -0.616226   0.115610
    12  C   -0.134568  -0.089321
    13  C   -0.117974   0.262979
    14  C   -0.293285  -0.011020
    15  C   -1.214426  -0.061332
    16  N   -0.330682   0.162865
    17  H    0.118274   0.010047
    18  H    0.024634   0.117315
    19  H   -0.582673   0.760702
    20  H    0.163463   0.007608
    21  H    0.034998   0.123385
    22  H    0.160419   0.001965
    23  H    0.133563   0.026531
    24  H    0.331655   0.001200
    25  H    0.124349  -0.003991
    26  H    0.123400   0.007283
    27  H    0.086107  -0.017776
 Sum of Mulliken charges =  -1.00000   1.00000

 Dipole moment (field-independent basis, Debye):
    X=              4.6366    Y=             -1.8510    Z=              0.6135  Tot=              5.0300
 Quadrupole moment (field-independent basis, Debye-Ang):
   XX=           -167.0489   YY=           -128.5509   ZZ=           -104.2575
   XY=              7.7285   XZ=             -2.4227   YZ=              0.6895

 Summary of Natural Population Analysis:

                                       Natural Population
                Natural  -----------------------------------------------
    Atom  No    Charge         Core      Valence    Rydberg      Total
 -----------------------------------------------------------------------
      C    1   -0.19701      0.99956     2.18925    0.00819     3.19701
      C    2   -0.09208      0.99957     2.08210    0.01041     3.09208
      C    3   -0.10236      0.99960     2.08964    0.01312     3.10236
      N    4   -0.25831      0.99965     2.74793    0.01073     3.75831
      C    5   -0.12023      0.99959     2.11056    0.01009     3.12023
      C    6    0.35256      0.99969     1.62701    0.02073     2.64744
      O    7   -0.31329      0.99987     3.30729    0.00612     4.31329
      N    8   -0.30672      0.99963     2.79843    0.00866     3.80672
      C    9    0.12153      0.99945     1.86896    0.01006     2.87847
      C   10   -0.06639      0.99940     2.05642    0.01057     3.06639
      C   11   -0.07167      0.99955     2.06391    0.00821     3.07167
      C   12   -0.11722      0.99958     2.10874    0.00889     3.11722
      C   13   -0.05668      0.99955     2.04982    0.00731     3.05668
      C   14    0.06501      0.99946     1.92558    0.00994     2.93499
      C   15    0.14155      0.99965     1.83990    0.01890     2.85845
      N   16   -0.16209      0.99979     2.65104    0.01125     3.66209
      H   17    0.09870      0.00000     0.40017    0.00113     0.40130
      H   18    0.09374      0.00000     0.40538    0.00088     0.40626
      H   19    0.09401      0.00000     0.40395    0.00204     0.40599
      H   20    0.10646      0.00000     0.39230    0.00124     0.39354
      H   21    0.09978      0.00000     0.39918    0.00105     0.40022
      H   22    0.09418      0.00000     0.40443    0.00138     0.40582
      H   23    0.10450      0.00000     0.39412    0.00138     0.39550
      H   24    0.20776      0.00000     0.29065    0.00159     0.29224
      H   25    0.09684      0.00000     0.40228    0.00088     0.40316
      H   26    0.09337      0.00000     0.40571    0.00093     0.40663
      H   27    0.09407      0.00000     0.40428    0.00165     0.40593
 =======================================================================
   * Total *    0.00000     15.99360    39.81906    0.18735    56.00000

 Normal termination of Gaussian 16 at Thu Dec 10 23:57:19 2020.
