 Gaussian 16, Revision A.03,

 -----------------------------------------------------------
 # opt freq B3LYP/6-31G(d) empiricaldispersion=gd3bj scf=xqc
 -----------------------------------------------------------

 -------------------------------
 CID_104105095_JID_6544_neutraal
 -------------------------------
 Symbolic Z-matrix:
 Charge =  0 Multiplicity = 1

 SCF Done:  E(RB3LYP) =  -729.292941610     A.U. after   14 cycles
 SCF Done:  E(RB3LYP) =  -729.297331799     A.U. after   12 cycles
 SCF Done:  E(RB3LYP) =  -729.295259364     A.U. after   12 cycles
 SCF Done:  E(RB3LYP) =  -729.297664450     A.U. after   12 cycles
 SCF Done:  E(RB3LYP) =  -729.298750139     A.U. after   13 cycles
 SCF Done:  E(RB3LYP) =  -729.299787504     A.U. after   11 cycles
 SCF Done:  E(RB3LYP) =  -729.300092728     A.U. after   11 cycles
 SCF Done:  E(RB3LYP) =  -729.300360368     A.U. after   12 cycles
 SCF Done:  E(RB3LYP) =  -729.300517253     A.U. after   12 cycles
 SCF Done:  E(RB3LYP) =  -729.300603990     A.U. after   11 cycles
 SCF Done:  E(RB3LYP) =  -729.300660323     A.U. after   10 cycles
 SCF Done:  E(RB3LYP) =  -729.300670417     A.U. after   10 cycles
 SCF Done:  E(RB3LYP) =  -729.300673009     A.U. after    9 cycles
 SCF Done:  E(RB3LYP) =  -729.300673688     A.U. after    8 cycles
 SCF Done:  E(RB3LYP) =  -729.300673815     A.U. after    7 cycles
 Optimization completed.
    -- Stationary point found.
 Normal termination of Gaussian 16 at Thu Dec 10 22:40:17 2020.

 --------------------------------------------------------------------
 #N Geom=AllCheck Guess=TCheck SCRF=Check GenChk RB3LYP/6-31G(d) Freq
 --------------------------------------------------------------------

 Structure from the checkpoint file:  "JID_6544.chk"
 -------------------------------
 CID_104105095_JID_6544_neutraal
 -------------------------------
 Charge =  0 Multiplicity = 1

 SCF Done:  E(RB3LYP) =  -729.300673815     A.U. after    1 cycles

  Exact polarizability: 205.437  10.768 139.129   0.287 -13.638 104.931
 Approx polarizability: 274.058  14.821 227.417  -4.161 -33.118 151.880

                      1                      2                      3
                      A                      A                      A
 Frequencies --     23.3574                45.4495                63.1627
 Red. masses --      4.5450                 4.6433                 2.8855
 Frc consts  --      0.0015                 0.0057                 0.0068
 IR Inten    --      0.5492                 0.4752                 2.0689

                      4                      5                      6
                      A                      A                      A
 Frequencies --     79.5603               111.3536               127.2279
 Red. masses --      3.1379                 3.6539                 3.3314
 Frc consts  --      0.0117                 0.0267                 0.0318
 IR Inten    --      2.6900                 3.7295                 2.6297

                      7                      8                      9
                      A                      A                      A
 Frequencies --    155.4026               162.8591               183.2876
 Red. masses --      3.0943                 2.9690                 1.2361
 Frc consts  --      0.0440                 0.0464                 0.0245
 IR Inten    --      4.0047                 0.2754                 1.6002

                     10                     11                     12
                      A                      A                      A
 Frequencies --    193.4493               229.9736               247.7467
 Red. masses --      2.4159                 2.0152                 1.2067
 Frc consts  --      0.0533                 0.0628                 0.0436
 IR Inten    --      1.4899                 0.8829                 1.7167

                     13                     14                     15
                      A                      A                      A
 Frequencies --    259.5879               296.4467               301.3615
 Red. masses --      1.3688                 1.1589                 3.2515
 Frc consts  --      0.0543                 0.0600                 0.1740
 IR Inten    --      2.1357                72.0472                 4.0217

                     16                     17                     18
                      A                      A                      A
 Frequencies --    315.4785               333.8714               338.6874
 Red. masses --      1.9890                 2.7838                 1.7076
 Frc consts  --      0.1166                 0.1828                 0.1154
 IR Inten    --     24.4575                10.9135                 8.6991

                     19                     20                     21
                      A                      A                      A
 Frequencies --    373.3830               391.1904               393.4341
 Red. masses --      2.6508                 2.8166                 2.6723
 Frc consts  --      0.2177                 0.2540                 0.2437
 IR Inten    --     22.4280                 2.6435                 5.0711

                     22                     23                     24
                      A                      A                      A
 Frequencies --    442.8184               461.8117               481.1066
 Red. masses --      3.5261                 3.6650                 2.2446
 Frc consts  --      0.4074                 0.4605                 0.3061
 IR Inten    --     13.3205                 3.2697                 8.3119

                     25                     26                     27
                      A                      A                      A
 Frequencies --    497.4852               510.5605               578.3327
 Red. masses --      2.9007                 2.7068                 3.4139
 Frc consts  --      0.4230                 0.4157                 0.6727
 IR Inten    --      9.7456                36.2979                 7.9627

                     28                     29                     30
                      A                      A                      A
 Frequencies --    585.3331               656.0926               676.1245
 Red. masses --      3.6374                 3.0878                 4.1419
 Frc consts  --      0.7343                 0.7831                 1.1156
 IR Inten    --      8.0178                33.1782                28.6185

                     31                     32                     33
                      A                      A                      A
 Frequencies --    720.0318               760.0723               782.8785
 Red. masses --      2.4319                 2.0214                 3.5138
 Frc consts  --      0.7428                 0.6880                 1.2689
 IR Inten    --    111.4359               186.5069                16.5544

                     34                     35                     36
                      A                      A                      A
 Frequencies --    794.4621               827.8260               837.5214
 Red. masses --      2.4997                 1.8653                 2.2123
 Frc consts  --      0.9296                 0.7532                 0.9143
 IR Inten    --      3.0552                22.1960                44.1161

                     37                     38                     39
                      A                      A                      A
 Frequencies --    861.6903               865.3461               906.6461
 Red. masses --      2.2920                 1.5602                 1.7055
 Frc consts  --      1.0027                 0.6884                 0.8260
 IR Inten    --      1.8500                18.8533                 4.8256

                     40                     41                     42
                      A                      A                      A
 Frequencies --    923.9816               941.4379               954.6615
 Red. masses --      1.2799                 2.7946                 1.9557
 Frc consts  --      0.6438                 1.4593                 1.0501
 IR Inten    --      0.5004                15.5087                 3.5289

                     43                     44                     45
                      A                      A                      A
 Frequencies --    995.8922              1030.8088              1048.0513
 Red. masses --      1.8194                 1.6741                 3.3888
 Frc consts  --      1.0632                 1.0481                 2.1931
 IR Inten    --     12.0900                45.8038                34.3238

                     46                     47                     48
                      A                      A                      A
 Frequencies --   1057.8621              1105.0561              1105.3253
 Red. masses --      2.1140                 1.7296                 1.7283
 Frc consts  --      1.3938                 1.2444                 1.2441
 IR Inten    --     56.2310                10.8376                74.2771

                     49                     50                     51
                      A                      A                      A
 Frequencies --   1138.8430              1160.5651              1179.3716
 Red. masses --      2.0298                 2.2741                 1.6395
 Frc consts  --      1.5511                 1.8047                 1.3436
 IR Inten    --     24.8515                11.8495                18.7789

                     52                     53                     54
                      A                      A                      A
 Frequencies --   1189.4652              1192.2379              1204.0297
 Red. masses --      1.2840                 1.4505                 1.6809
 Frc consts  --      1.0703                 1.2147                 1.4357
 IR Inten    --     11.4034                49.2402               120.0680

                     55                     56                     57
                      A                      A                      A
 Frequencies --   1232.5480              1265.7254              1275.9853
 Red. masses --      1.6272                 1.7363                 1.7981
 Frc consts  --      1.4564                 1.6389                 1.7249
 IR Inten    --    100.0884                58.7116                65.8744

                     58                     59                     60
                      A                      A                      A
 Frequencies --   1291.8442              1318.3792              1337.5743
 Red. masses --      1.2974                 1.9831                 3.9563
 Frc consts  --      1.2757                 2.0308                 4.1703
 IR Inten    --     17.6639               114.5372                16.5701

                     61                     62                     63
                      A                      A                      A
 Frequencies --   1355.9623              1368.8734              1376.0718
 Red. masses --      1.5325                 1.4746                 1.9313
 Frc consts  --      1.6601                 1.6280                 2.1547
 IR Inten    --      3.4150                 4.6517                 8.0686

                     64                     65                     66
                      A                      A                      A
 Frequencies --   1413.4711              1429.6961              1432.5400
 Red. masses --      1.5456                 1.4136                 1.2601
 Frc consts  --      1.8194                 1.7024                 1.5236
 IR Inten    --      0.6893                17.9107                31.6792

                     67                     68                     69
                      A                      A                      A
 Frequencies --   1441.3673              1448.9480              1453.1232
 Red. masses --      1.3285                 1.3525                 1.7616
 Frc consts  --      1.6262                 1.6730                 2.1916
 IR Inten    --     16.7253                20.3914                 1.6266

                     70                     71                     72
                      A                      A                      A
 Frequencies --   1496.4817              1506.9714              1516.9312
 Red. masses --      1.1782                 1.0839                 1.0497
 Frc consts  --      1.5546                 1.4503                 1.4231
 IR Inten    --      6.6129                 2.6895                 4.8986

                     73                     74                     75
                      A                      A                      A
 Frequencies --   1518.9708              1525.3832              1531.1532
 Red. masses --      1.0546                 1.0637                 1.0625
 Frc consts  --      1.4337                 1.4582                 1.4676
 IR Inten    --      1.6550                12.9692                 1.2478

                     76                     77                     78
                      A                      A                      A
 Frequencies --   1531.6093              1537.4564              1552.5717
 Red. masses --      1.0716                 1.0545                 1.7115
 Frc consts  --      1.4811                 1.4686                 2.4306
 IR Inten    --      0.7775                 2.2946                66.3953

                     79                     80                     81
                      A                      A                      A
 Frequencies --   1566.6780              1646.6008              1664.8022
 Red. masses --      2.8330                 4.6278                 1.5164
 Frc consts  --      4.0969                 7.3927                 2.4763
 IR Inten    --    230.0771                14.2384                71.6244

                     82                     83                     84
                      A                      A                      A
 Frequencies --   1693.5469              3012.6370              3028.0776
 Red. masses --      2.7567                 1.0779                 1.0706
 Frc consts  --      4.6584                 5.7640                 5.7840
 IR Inten    --     19.7025                16.9173                54.0335

                     85                     86                     87
                      A                      A                      A
 Frequencies --   3031.8742              3035.9754              3067.7456
 Red. masses --      1.0322                 1.0503                 1.0755
 Frc consts  --      5.5905                 5.7035                 5.9635
 IR Inten    --     57.2085                35.8770                29.0633

                     88                     89                     90
                      A                      A                      A
 Frequencies --   3068.2492              3080.6478              3096.7694
 Red. masses --      1.0493                 1.0926                 1.1060
 Frc consts  --      5.8203                 6.1096                 6.2492
 IR Inten    --      9.4824                54.0872                28.1727

                     91                     92                     93
                      A                      A                      A
 Frequencies --   3111.7619              3132.6980              3145.6850
 Red. masses --      1.0925                 1.1026                 1.1032
 Frc consts  --      6.2329                 6.3751                 6.4319
 IR Inten    --     33.4903                35.1687                40.1840

                     94                     95                     96
                      A                      A                      A
 Frequencies --   3154.7710              3164.4040              3176.9641
 Red. masses --      1.0990                 1.0992                 1.0893
 Frc consts  --      6.4444                 6.4853                 6.4779
 IR Inten    --     24.1862                10.2568                21.7683

                     97                     98                     99
                      A                      A                      A
 Frequencies --   3184.8759              3238.7892              3524.0818
 Red. masses --      1.0904                 1.0904                 1.0480
 Frc consts  --      6.5165                 6.7389                 7.6682
 IR Inten    --      7.5295                11.7655                 9.3152

                    100                    101                    102
                      A                      A                      A
 Frequencies --   3577.0722              3625.1097              3720.1275
 Red. masses --      1.0754                 1.0967                 1.0658
 Frc consts  --      8.1069                 8.4912                 8.6903
 IR Inten    --      5.0518                 9.9864                 7.1959

 - Thermochemistry -
 -------------------
 Temperature   298.150 Kelvin.  Pressure   1.00000 Atm.
 Atom     1 has atomic number  6 and mass  12.00000

 Molecular mass:   224.15248 amu.
 Principal axes and moments of inertia in atomic units:
                           1         2         3
     Eigenvalues --  1628.404767592.115687993.74523
           X            0.99998   0.00509   0.00374
           Y           -0.00511   0.99998   0.00445
           Z           -0.00371  -0.00446   0.99998
 This molecule is an asymmetric top.
 Rotational symmetry number  1.
 Warning -- assumption of classical behavior for rotation
           may cause significant error
 Rotational temperatures (Kelvin)      0.05319     0.01141     0.01084
 Rotational constants (GHZ):           1.10829     0.23771     0.22577
 Zero-point vibrational energy     825480.6 (Joules/Mol)
                                  197.29460 (Kcal/Mol)
 Warning -- explicit consideration of  28 degrees of freedom as
           vibrations may cause significant error
 Vibrational temperatures:     33.61    65.39    90.88   114.47   160.21
          (Kelvin)            183.05   223.59   234.32   263.71   278.33
                              330.88   356.45   373.49   426.52   433.59
                              453.90   480.37   487.30   537.21   562.84
                              566.06   637.12   664.44   692.21   715.77
                              734.58   832.09   842.16   943.97   972.79
                             1035.97  1093.57  1126.39  1143.05  1191.06
                             1205.01  1239.78  1245.04  1304.46  1329.40
                             1354.52  1373.54  1432.87  1483.10  1507.91
                             1522.03  1589.93  1590.32  1638.54  1669.79
                             1696.85  1711.38  1715.36  1732.33  1773.36
                             1821.10  1835.86  1858.68  1896.85  1924.47
                             1950.93  1969.50  1979.86  2033.67  2057.01
                             2061.11  2073.81  2084.71  2090.72  2153.10
                             2168.20  2182.53  2185.46  2194.69  2202.99
                             2203.64  2212.06  2233.80  2254.10  2369.09
                             2395.28  2436.64  4334.51  4356.73  4362.19
                             4368.09  4413.80  4414.53  4432.37  4455.56
                             4477.13  4507.25  4525.94  4539.01  4552.87
                             4570.94  4582.33  4659.90  5070.37  5146.61
                             5215.72  5352.43

 Zero-point correction=                           0.314409 (Hartree/Particle)
 Thermal correction to Energy=                    0.331906
 Thermal correction to Enthalpy=                  0.332850
 Thermal correction to Gibbs Free Energy=         0.269157
 Sum of electronic and zero-point Energies=           -728.986265
 Sum of electronic and thermal Energies=              -728.968768
 Sum of electronic and thermal Enthalpies=            -728.967824
 Sum of electronic and thermal Free Energies=         -729.031517

                     E (Thermal)             CV                S
                      KCal/Mol        Cal/Mol-Kelvin    Cal/Mol-Kelvin
 Total                  208.274             66.535            134.053
 Electronic               0.000              0.000              0.000
 Translational            0.889              2.981             42.124
 Rotational               0.889              2.981             32.958
 Vibrational            206.497             60.574             58.971
 Vibration     1          0.593              1.985              6.326
 Vibration     2          0.595              1.979              5.006
 Vibration     3          0.597              1.972              4.356
 Vibration     4          0.600              1.963              3.902
 Vibration     5          0.607              1.940              3.245
 Vibration     6          0.611              1.926              2.988
 Vibration     7          0.620              1.897              2.605
 Vibration     8          0.623              1.888              2.516
 Vibration     9          0.631              1.863              2.295
 Vibration    10          0.635              1.849              2.195
 Vibration    11          0.652              1.795              1.879
 Vibration    12          0.661              1.767              1.747
 Vibration    13          0.668              1.747              1.665
 Vibration    14          0.690              1.680              1.437
 Vibration    15          0.693              1.671              1.409
 Vibration    16          0.703              1.644              1.333
 Vibration    17          0.715              1.608              1.241
 Vibration    18          0.719              1.598              1.218
 Vibration    19          0.745              1.527              1.066
 Vibration    20          0.759              1.489              0.996
 Vibration    21          0.761              1.484              0.987
 Vibration    22          0.802              1.377              0.818
 Vibration    23          0.820              1.335              0.761
 Vibration    24          0.837              1.292              0.707
 Vibration    25          0.853              1.256              0.664
 Vibration    26          0.866              1.227              0.632
 Vibration    27          0.935              1.078              0.488
 Vibration    28          0.942              1.063              0.476

                           ! Non-Optimized Parameters !
 Normal termination of Gaussian 16 at Thu Dec 10 22:51:36 2020.

 ----------------------------------------------------------------------
 # B3LYP/6-311++G(d,p) empiricaldispersion=gd3bj scf=xqc pop=npa geom=c
 heck
 ----------------------------------------------------------------------

 ---------------------------------------
 CID_104105095_JID_6544_Energie_neutraal
 ---------------------------------------
 Structure from the checkpoint file:  "JID_6544.chk"
 Charge =  0 Multiplicity = 1

 SCF Done:  E(RB3LYP) =  -729.524577623     A.U. after   14 cycles
 Normal termination of Gaussian 16 at Thu Dec 10 22:56:28 2020.

 ----------------------------------------------------------------------
 # B3LYP/6-311++G(d,p) empiricaldispersion=gd3bj scf=xqc pop=npa geom=c
 heck
 ----------------------------------------------------------------------

 -------------------------------------
 CID_104105095_JID_6544_Energie_kation
 -------------------------------------
 Structure from the checkpoint file:  "JID_6544.chk"
 Charge =  1 Multiplicity = 2

 SCF Done:  E(UB3LYP) =  -729.273762405     A.U. after   23 cycles
 Normal termination of Gaussian 16 at Thu Dec 10 23:07:25 2020.
 Gaussian 16:  ES64L-G16RevA.03 25-Dec-2016

 ----------------------------------------------------------------------
 # B3LYP/6-311++G(d,p) empiricaldispersion=gd3bj scf=xqc pop=npa geom=c
 heck
 ----------------------------------------------------------------------

 ------------------------------------
 CID_104105095_JID_6544_Energie_anion
 ------------------------------------
 Structure from the checkpoint file:  "JID_6544.chk"
 Charge = -1 Multiplicity = 2

                         Standard orientation:
 ---------------------------------------------------------------------
 Center     Atomic      Atomic             Coordinates (Angstroms)
 Number     Number       Type             X           Y           Z
 ---------------------------------------------------------------------
      1          6           0        1.833295    1.027118    1.968700
      2          6           0        2.088828    1.443088    0.515185
      3          6           0        3.396152    0.848916   -0.054449
      4          6           0        3.453714   -0.668803   -0.294499
      5          6           0        2.796414   -1.100315   -1.603939
      6          8           0        4.811788   -1.126600   -0.244339
      7          7           0        0.930445    1.246917   -0.389970
      8          6           0       -0.213514    0.496738   -0.054453
      9          6           0       -1.489114    1.062060   -0.220364
     10          6           0       -2.640140    0.326705    0.030012
     11          6           0       -2.576324   -0.999712    0.489824
     12          6           0       -1.306515   -1.559462    0.660644
     13          6           0       -0.148186   -0.837790    0.377087
     14          7           0       -3.767365   -1.713919    0.703878
     15          8           0       -3.885862    0.916185   -0.121062
     16          6           0       -4.473871    0.655616   -1.398747
     17          1           0        1.724070   -0.052012    2.093505
     18          1           0        0.921233    1.496532    2.349550
     19          1           0        2.676326    1.350784    2.587854
     20          1           0        2.255496    2.528598    0.540214
     21          1           0        3.626568    1.362267   -0.999354
     22          1           0        4.203186    1.093721    0.647402
     23          1           0        2.979627   -1.187790    0.546107
     24          1           0        3.322090   -0.637172   -2.450945
     25          1           0        2.856033   -2.187331   -1.718946
     26          1           0        1.753198   -0.781827   -1.654823
     27          1           0        5.264081   -0.744342   -1.013889
     28          1           0        0.662890    2.122886   -0.819605
     29          1           0       -1.600246    2.096249   -0.536769
     30          1           0       -1.221751   -2.588252    1.003046
     31          1           0        0.811606   -1.326005    0.487547
     32          1           0       -4.530740   -1.095135    0.957886
     33          1           0       -3.670710   -2.461312    1.381752
     34          1           0       -3.855810    1.073405   -2.203881
     35          1           0       -4.599835   -0.421334   -1.563637
     36          1           0       -5.450692    1.145468   -1.397169
 ---------------------------------------------------------------------

 SCF Done:  E(UB3LYP) =  -729.512531632     A.U. after   33 cycles
 SCF Done:  E(UB3LYP) =  -729.512531632     a.u. after    1 cycles

 The electronic state is 2-A.
 Alpha  occ. eigenvalues --  -19.04781 -19.02933 -14.22102 -14.21310 -10.12822
 Alpha  occ. eigenvalues --  -10.12590 -10.12527 -10.11380 -10.11019 -10.10977
 Alpha  occ. eigenvalues --  -10.07660 -10.07208 -10.07170 -10.06742 -10.06694
 Alpha  occ. eigenvalues --  -10.06274  -0.96212  -0.93053  -0.82968  -0.81891
 Alpha  occ. eigenvalues --   -0.73753  -0.69285  -0.65600  -0.65281  -0.61914
 Alpha  occ. eigenvalues --   -0.59644  -0.58973  -0.53332  -0.52334  -0.50204
 Alpha  occ. eigenvalues --   -0.46921  -0.44131  -0.42531  -0.40841  -0.40214
 Alpha  occ. eigenvalues --   -0.38764  -0.37971  -0.36964  -0.35821  -0.35748
 Alpha  occ. eigenvalues --   -0.34055  -0.33511  -0.33357  -0.33086  -0.32255
 Alpha  occ. eigenvalues --   -0.30918  -0.28894  -0.28423  -0.27813  -0.27008
 Alpha  occ. eigenvalues --   -0.26480  -0.25706  -0.25497  -0.24874  -0.22987
 Alpha  occ. eigenvalues --   -0.22286  -0.18875  -0.18501  -0.16217  -0.15050
 Alpha  occ. eigenvalues --   -0.09086   0.04045
 Alpha virt. eigenvalues --    0.05343   0.06450   0.06791   0.07925   0.07957
 Alpha virt. eigenvalues --    0.08200   0.09164   0.09696   0.09756   0.10233
 Alpha virt. eigenvalues --    0.10883   0.10916   0.11124   0.11725   0.12362

  Beta  occ. eigenvalues --  -19.04779 -19.02918 -14.22068 -14.21292 -10.12821
  Beta  occ. eigenvalues --  -10.12563 -10.12524 -10.11361 -10.11016 -10.10979
  Beta  occ. eigenvalues --  -10.07652 -10.07194 -10.07154 -10.06722 -10.06682
  Beta  occ. eigenvalues --  -10.06260  -0.96205  -0.93024  -0.82935  -0.81845
  Beta  occ. eigenvalues --   -0.73722  -0.69252  -0.65573  -0.65253  -0.61876
  Beta  occ. eigenvalues --   -0.59603  -0.58932  -0.53293  -0.52298  -0.50165
  Beta  occ. eigenvalues --   -0.46884  -0.44090  -0.42488  -0.40802  -0.40160
  Beta  occ. eigenvalues --   -0.38744  -0.37933  -0.36932  -0.35794  -0.35719
  Beta  occ. eigenvalues --   -0.34026  -0.33477  -0.33329  -0.33053  -0.32233
  Beta  occ. eigenvalues --   -0.30888  -0.28871  -0.28395  -0.27785  -0.26985
  Beta  occ. eigenvalues --   -0.26440  -0.25677  -0.25473  -0.24848  -0.22952
  Beta  occ. eigenvalues --   -0.22254  -0.18864  -0.18481  -0.16184  -0.15019
  Beta  occ. eigenvalues --   -0.09054
  Beta virt. eigenvalues --    0.06075   0.06514   0.07014   0.07443   0.08050
  Beta virt. eigenvalues --    0.08195   0.08613   0.09475   0.09844   0.09994
  Beta virt. eigenvalues --    0.10607   0.11066   0.11182   0.11278   0.11954

 Mulliken charges and spin densities:
               1          2
     1  C    0.242591  -0.805304
     2  C   -0.061958   0.003417
     3  C    0.468595  -0.944676
     4  C   -0.398989   0.330351
     5  C   -0.021412  -0.486762
     6  O   -0.228163   0.008023
     7  N   -0.163967   0.113112
     8  C    0.210476   0.178972
     9  C   -0.180805   0.264147
    10  C   -0.209604  -0.448079
    11  C    0.519449  -0.504795
    12  C   -0.260266  -0.178380
    13  C    0.461116  -0.500190
    14  N   -0.369890   0.018563
    15  O   -0.202593   0.027152
    16  C    0.388717  -0.725934
    17  H    0.003949   0.124302
    18  H    0.114817   0.050681
    19  H    0.015382   0.130223
    20  H   -0.860714   1.072743
    21  H   -0.308004   0.478999
    22  H    0.020662   0.134663
    23  H    0.055394   0.143337
    24  H   -0.133289   0.261975
    25  H    0.080180   0.063316
    26  H    0.141034   0.018105
    27  H    0.116752   0.128313
    28  H    0.074270   0.210981
    29  H   -0.389618   0.557977
    30  H   -0.213538   0.377149
    31  H    0.450346  -0.411165
    32  H    0.022818   0.239969
    33  H   -0.093317   0.334755
    34  H   -0.027060   0.160128
    35  H   -0.070027   0.229097
    36  H   -0.193337   0.344836
 Sum of Mulliken charges =  -1.00000   1.00000

 Dipole moment (field-independent basis, Debye):
    X=             -0.1255    Y=             -2.7811    Z=              0.4597  Tot=              2.8217
 Quadrupole moment (field-independent basis, Debye-Ang):
   XX=           -192.0158   YY=           -148.2619   ZZ=           -129.1267
   XY=             -8.7688   XZ=              2.5152   YZ=              2.2046

 Summary of Natural Population Analysis:

                                       Natural Population
                Natural  -----------------------------------------------
    Atom  No    Charge         Core      Valence    Rydberg      Total
 -----------------------------------------------------------------------
      C    1   -0.29315      0.99964     2.28784    0.00567     3.29315
      C    2   -0.00636      0.99958     1.99240    0.01438     3.00636
      C    3   -0.20322      0.99958     2.19196    0.01168     3.20322
      C    4    0.05962      0.99957     1.92894    0.01187     2.94038
      C    5   -0.29962      0.99964     2.29429    0.00570     3.29962
      O    6   -0.37264      0.99990     3.36659    0.00615     4.37264
      N    7   -0.33148      0.99968     2.81800    0.01381     3.83148
      C    8    0.07529      0.99948     1.91347    0.01176     2.92471
      C    9   -0.12735      0.99947     2.11816    0.00973     3.12735
      C   10    0.13840      0.99933     1.84883    0.01344     2.86160
      C   11    0.05194      0.99943     1.93720    0.01144     2.94806
      C   12   -0.11299      0.99954     2.10394    0.00951     3.11299
      C   13   -0.11813      0.99952     2.11098    0.00763     3.11813
      N   14   -0.40265      0.99972     2.89231    0.01062     3.90265
      O   15   -0.29636      0.99987     3.28638    0.01011     4.29636
      C   16   -0.09677      0.99959     2.08920    0.00798     3.09677
      H   17    0.09836      0.00000     0.40048    0.00116     0.40164
      H   18    0.10595      0.00000     0.39329    0.00076     0.39405
      H   19    0.10187      0.00000     0.39738    0.00075     0.39813
      H   20    0.09697      0.00000     0.39969    0.00334     0.40303
      H   21    0.09902      0.00000     0.39885    0.00213     0.40098
      H   22    0.10321      0.00000     0.39550    0.00130     0.39679
      H   23    0.08179      0.00000     0.41593    0.00228     0.41821
      H   24    0.09449      0.00000     0.40449    0.00102     0.40551
      H   25    0.09785      0.00000     0.40136    0.00079     0.40215
      H   26    0.11439      0.00000     0.38428    0.00133     0.38561
      H   27    0.22414      0.00000     0.27315    0.00272     0.27586
      H   28    0.18623      0.00000     0.30980    0.00397     0.31377
      H   29    0.10523      0.00000     0.39336    0.00140     0.39477
      H   30    0.09760      0.00000     0.40113    0.00126     0.40240
      H   31    0.09990      0.00000     0.39837    0.00172     0.40010
      H   32    0.18799      0.00000     0.30982    0.00219     0.31201
      H   33    0.18357      0.00000     0.31419    0.00224     0.31643
      H   34    0.08235      0.00000     0.41600    0.00165     0.41765
      H   35    0.08658      0.00000     0.41169    0.00173     0.41342
      H   36    0.08796      0.00000     0.41048    0.00157     0.41204
 =======================================================================
   * Total *    0.00000     15.99352    44.80971    0.19676    61.00000

 Normal termination of Gaussian 16 at Thu Dec 10 23:22:29 2020.
