 Gaussian 16, Revision A.03,

 -----------------------------------------------------------
 # opt freq B3LYP/6-31G(d) empiricaldispersion=gd3bj scf=xqc
 -----------------------------------------------------------

 ------------------------------
 CID_43299591_JID_7578_neutraal
 ------------------------------
 Symbolic Z-matrix:
 Charge =  0 Multiplicity = 1

 SCF Done:  E(RB3LYP) =  -1064.49554690     A.U. after   15 cycles
 SCF Done:  E(RB3LYP) =  -1064.50111392     A.U. after   15 cycles
 SCF Done:  E(RB3LYP) =  -1064.50125181     A.U. after   15 cycles
 SCF Done:  E(RB3LYP) =  -1064.50293762     A.U. after   13 cycles
 SCF Done:  E(RB3LYP) =  -1064.50318866     A.U. after   14 cycles
 SCF Done:  E(RB3LYP) =  -1064.50379020     A.U. after   14 cycles
 SCF Done:  E(RB3LYP) =  -1064.50411915     A.U. after   12 cycles
 SCF Done:  E(RB3LYP) =  -1064.50420535     A.U. after   12 cycles
 SCF Done:  E(RB3LYP) =  -1064.50422438     A.U. after   11 cycles
 SCF Done:  E(RB3LYP) =  -1064.50422799     A.U. after   10 cycles
 SCF Done:  E(RB3LYP) =  -1064.50422884     A.U. after    9 cycles
 SCF Done:  E(RB3LYP) =  -1064.50422930     A.U. after    9 cycles
 SCF Done:  E(RB3LYP) =  -1064.50422942     A.U. after    8 cycles
 Optimization completed.
    -- Stationary point found.
 Normal termination of Gaussian 16 at Fri Dec 11 12:32:59 2020.

 --------------------------------------------------------------------
 #N Geom=AllCheck Guess=TCheck SCRF=Check GenChk RB3LYP/6-31G(d) Freq
 --------------------------------------------------------------------

 Structure from the checkpoint file:  "JID_7578.chk"
 ------------------------------
 CID_43299591_JID_7578_neutraal
 ------------------------------
 Charge =  0 Multiplicity = 1

 SCF Done:  E(RB3LYP) =  -1064.50422942     A.U. after    1 cycles

  Exact polarizability: 163.549  -3.602 165.263  43.008   1.499 139.851
 Approx polarizability: 258.974 -12.114 300.376 102.249  -0.271 258.494

                      1                      2                      3
                      A                      A                      A
 Frequencies --     16.3744                36.2518                57.5618
 Red. masses --      6.5629                 5.1080                 6.2667
 Frc consts  --      0.0010                 0.0040                 0.0122
 IR Inten    --      1.1786                 0.1401                 0.3331

                      4                      5                      6
                      A                      A                      A
 Frequencies --     86.6916                96.9545               137.7341
 Red. masses --      5.7276                 5.7441                 5.8885
 Frc consts  --      0.0254                 0.0318                 0.0658
 IR Inten    --      3.0358                 2.5920                 3.2022

                      7                      8                      9
                      A                      A                      A
 Frequencies --    161.9731               188.0260               257.4640
 Red. masses --      6.1617                 4.6046                 4.3081
 Frc consts  --      0.0952                 0.0959                 0.1683
 IR Inten    --      2.6547                 1.7501                 3.7855

                     10                     11                     12
                      A                      A                      A
 Frequencies --    274.1990               317.9021               344.8128
 Red. masses --      6.5713                 5.6690                 2.4759
 Frc consts  --      0.2911                 0.3376                 0.1734
 IR Inten    --      3.0775                 1.6108                 2.9151

                     13                     14                     15
                      A                      A                      A
 Frequencies --    373.1570               392.9996               395.1438
 Red. masses --      4.1186                 2.3045                 1.6071
 Frc consts  --      0.3379                 0.2097                 0.1478
 IR Inten    --      2.4177                 5.7238                 9.0183

                     16                     17                     18
                      A                      A                      A
 Frequencies --    454.3810               460.7613               468.6533
 Red. masses --      3.5625                 2.8820                 4.3638
 Frc consts  --      0.4334                 0.3605                 0.5647
 IR Inten    --     33.8297                38.5308                 4.0795

                     19                     20                     21
                      A                      A                      A
 Frequencies --    502.5597               509.8266               569.2440
 Red. masses --      2.8037                 2.0554                 6.2641
 Frc consts  --      0.4172                 0.3148                 1.1959
 IR Inten    --     80.2985                81.1331                 2.0530

                     22                     23                     24
                      A                      A                      A
 Frequencies --    576.9597               590.3925               601.2020
 Red. masses --      4.8126                 6.8907                 5.6796
 Frc consts  --      0.9439                 1.4151                 1.2095
 IR Inten    --     11.2429                15.4589                 4.9483

                     25                     26                     27
                      A                      A                      A
 Frequencies --    609.9109               665.5814               705.3481
 Red. masses --      6.5814                 4.9054                 6.9873
 Frc consts  --      1.4424                 1.2804                 2.0482
 IR Inten    --      3.0117                10.3224                11.9298

                     28                     29                     30
                      A                      A                      A
 Frequencies --    744.3314               756.1084               771.0361
 Red. masses --      4.9123                 4.1916                 3.3860
 Frc consts  --      1.6035                 1.4119                 1.1860
 IR Inten    --      1.0307                 0.1221                 8.8908

                     31                     32                     33
                      A                      A                      A
 Frequencies --    781.0616               832.3712               844.1592
 Red. masses --      1.4326                 1.3123                 4.4256
 Frc consts  --      0.5149                 0.5357                 1.8581
 IR Inten    --     26.7796                25.3689                 1.5098

                     34                     35                     36
                      A                      A                      A
 Frequencies --    861.9614               892.2447               909.7962
 Red. masses --      6.0116                 1.3940                 1.4355
 Frc consts  --      2.6316                 0.6539                 0.7001
 IR Inten    --      2.0296                 0.0567                 2.2846

                     37                     38                     39
                      A                      A                      A
 Frequencies --    924.1882               954.5454               961.2754
 Red. masses --      1.8193                 1.3572                 1.3599
 Frc consts  --      0.9155                 0.7286                 0.7404
 IR Inten    --      7.4370                 0.6692                 1.4662

                     40                     41                     42
                      A                      A                      A
 Frequencies --    996.8233              1073.5550              1076.3531
 Red. masses --      1.2874                 2.2959                 2.7481
 Frc consts  --      0.7537                 1.5590                 1.8758
 IR Inten    --      0.0759                 0.6584                10.3641

                     43                     44                     45
                      A                      A                      A
 Frequencies --   1087.8626              1118.1338              1119.6726
 Red. masses --      1.8367                 2.2343                 2.4966
 Frc consts  --      1.2807                 1.6458                 1.8441
 IR Inten    --      2.6943                 2.8001                 5.8613

                     46                     47                     48
                      A                      A                      A
 Frequencies --   1191.1224              1200.8865              1217.9106
 Red. masses --      1.1411                 1.1091                 2.2458
 Frc consts  --      0.9539                 0.9423                 1.9627
 IR Inten    --      2.0431                 0.3736                 2.8336

                     49                     50                     51
                      A                      A                      A
 Frequencies --   1234.9627              1247.1492              1281.1812
 Red. masses --      1.4648                 2.9140                 1.8874
 Frc consts  --      1.3163                 2.6704                 1.8253
 IR Inten    --      2.8664                 3.1845                16.9558

                     52                     53                     54
                      A                      A                      A
 Frequencies --   1289.7146              1323.0467              1336.6044
 Red. masses --      1.8640                 1.6752                 2.9860
 Frc consts  --      1.8267                 1.7276                 3.1431
 IR Inten    --      4.2994                 0.1184                13.1413

                     55                     56                     57
                      A                      A                      A
 Frequencies --   1363.4587              1371.2960              1471.6748
 Red. masses --      3.7482                 1.6232                 2.5578
 Frc consts  --      4.1055                 1.7984                 3.2639
 IR Inten    --      6.6422                23.0075                41.1907

                     58                     59                     60
                      A                      A                      A
 Frequencies --   1495.2477              1506.8462              1530.7968
 Red. masses --      2.2199                 1.1358                 2.4403
 Frc consts  --      2.9242                 1.5195                 3.3692
 IR Inten    --      5.4279                 5.5741                26.8014

                     61                     62                     63
                      A                      A                      A
 Frequencies --   1536.2537              1603.1985              1624.0415
 Red. masses --      2.4748                 6.1570                 3.7160
 Frc consts  --      3.4413                 9.3238                 5.7745
 IR Inten    --     11.6720                11.8082                 3.3672

                     64                     65                     66
                      A                      A                      A
 Frequencies --   1629.1286              1661.5112              1674.4296
 Red. masses --      5.8271                 5.5483                 1.3691
 Frc consts  --      9.1120                 9.0244                 2.2617
 IR Inten    --      0.2896                 7.9797               156.0896

                     67                     68                     69
                      A                      A                      A
 Frequencies --   2349.1240              3092.4822              3152.2958
 Red. masses --     12.6826                 1.0601                 1.0894
 Frc consts  --     41.2353                 5.9733                 6.3782
 IR Inten    --     19.1270                10.3537                28.8481

                     70                     71                     72
                      A                      A                      A
 Frequencies --   3154.6796              3184.2487              3192.0526
 Red. masses --      1.1065                 1.0893                 1.0866
 Frc consts  --      6.4882                 6.5073                 6.5232
 IR Inten    --      0.3883                17.0225                 1.7289

                     73                     74                     75
                      A                      A                      A
 Frequencies --   3203.5658              3213.8652              3219.5404
 Red. masses --      1.0900                 1.0936                 1.0940
 Frc consts  --      6.5908                 6.6554                 6.6814
 IR Inten    --      6.5636                14.3137                 7.8035

                     76                     77                     78
                      A                      A                      A
 Frequencies --   3225.8292              3557.1594              3671.5811
 Red. masses --      1.0965                 1.0477                 1.0994
 Frc consts  --      6.7230                 7.8104                 8.7321
 IR Inten    --      8.4821                26.5667                26.1135

 - Thermochemistry -
 -------------------
 Temperature   298.150 Kelvin.  Pressure   1.00000 Atm.
 Atom     1 has atomic number  6 and mass  12.00000

 Molecular mass:   241.06737 amu.
 Principal axes and moments of inertia in atomic units:
                           1         2         3
     Eigenvalues --  2884.197874590.528094950.40191
           X            0.99957   0.00310   0.02921
           Y           -0.00589   0.99536   0.09605
           Z           -0.02878  -0.09618   0.99495
 This molecule is an asymmetric top.
 Rotational symmetry number  1.
 Warning -- assumption of classical behavior for rotation
           may cause significant error
 Rotational temperatures (Kelvin)      0.03003     0.01887     0.01750
 Rotational constants (GHZ):           0.62573     0.39314     0.36456
 Zero-point vibrational energy     565620.9 (Joules/Mol)
                                  135.18664 (Kcal/Mol)
 Warning -- explicit consideration of  25 degrees of freedom as
           vibrations may cause significant error
 Vibrational temperatures:     23.56    52.16    82.82   124.73   139.50
          (Kelvin)            198.17   233.04   270.53   370.43   394.51
                              457.39   496.11   536.89   565.44   568.52
                              653.75   662.93   674.29   723.07   733.53
                              819.02   830.12   849.44   865.00   877.53
                              957.62  1014.84  1070.93  1087.87  1109.35
                             1123.77  1197.60  1214.56  1240.17  1283.74
                             1308.99  1329.70  1373.38  1383.06  1434.21
                             1544.61  1548.63  1565.19  1608.75  1610.96
                             1713.76  1727.81  1752.30  1776.84  1794.37
                             1843.33  1855.61  1903.57  1923.08  1961.71
                             1972.99  2117.41  2151.33  2168.02  2202.48
                             2210.33  2306.64  2336.63  2343.95  2390.54
                             2409.13  3379.87  4449.39  4535.45  4538.88
                             4581.42  4592.65  4609.22  4624.04  4632.20
                             4641.25  5117.96  5282.59

 Zero-point correction=                           0.215434 (Hartree/Particle)
 Thermal correction to Energy=                    0.230299
 Thermal correction to Enthalpy=                  0.231244
 Thermal correction to Gibbs Free Energy=         0.171813
 Sum of electronic and zero-point Energies=          -1064.288796
 Sum of electronic and thermal Energies=             -1064.273930
 Sum of electronic and thermal Enthalpies=           -1064.272986
 Sum of electronic and thermal Free Energies=        -1064.332417

                     E (Thermal)             CV                S
                      KCal/Mol        Cal/Mol-Kelvin    Cal/Mol-Kelvin
 Total                  144.515             57.222            125.083
 Electronic               0.000              0.000              0.000
 Translational            0.889              2.981             42.341
 Rotational               0.889              2.981             32.550
 Vibrational            142.738             51.261             50.193
 Vibration     1          0.593              1.986              7.031
 Vibration     2          0.594              1.982              5.454
 Vibration     3          0.596              1.974              4.539
 Vibration     4          0.601              1.958              3.733
 Vibration     5          0.603              1.951              3.515
 Vibration     6          0.614              1.916              2.835
 Vibration     7          0.622              1.889              2.527
 Vibration     8          0.633              1.856              2.247
 Vibration     9          0.667              1.750              1.679
 Vibration    10          0.677              1.721              1.570
 Vibration    11          0.704              1.639              1.321
 Vibration    12          0.723              1.586              1.190
 Vibration    13          0.745              1.527              1.067
 Vibration    14          0.760              1.485              0.989
 Vibration    15          0.762              1.481              0.981
 Vibration    16          0.813              1.351              0.783
 Vibration    17          0.819              1.337              0.764
 Vibration    18          0.826              1.320              0.741
 Vibration    19          0.858              1.244              0.652
 Vibration    20          0.865              1.228              0.634
 Vibration    21          0.925              1.098              0.506
 Vibration    22          0.933              1.081              0.491
 Vibration    23          0.948              1.052              0.466
 Vibration    24          0.959              1.029              0.448
 Vibration    25          0.969              1.011              0.433

 Optimization completed.
    -- Stationary point found.
 Normal termination of Gaussian 16 at Fri Dec 11 12:45:20 2020.

 ----------------------------------------------------------------------
 # B3LYP/6-311++G(d,p) empiricaldispersion=gd3bj scf=xqc pop=npa geom=c
 heck
 ----------------------------------------------------------------------

 --------------------------------------
 CID_43299591_JID_7578_Energie_neutraal
 --------------------------------------
 Structure from the checkpoint file:  "JID_7578.chk"
 Charge =  0 Multiplicity = 1

 SCF Done:  E(RB3LYP) =  -1064.70905516     A.U. after   17 cycles
 Normal termination of Gaussian 16 at Fri Dec 11 12:50:32 2020.

 ----------------------------------------------------------------------
 # B3LYP/6-311++G(d,p) empiricaldispersion=gd3bj scf=xqc pop=npa geom=c
 heck
 ----------------------------------------------------------------------

 ------------------------------------
 CID_43299591_JID_7578_Energie_kation
 ------------------------------------
 Structure from the checkpoint file:  "JID_7578.chk"
 Charge =  1 Multiplicity = 2

 SCF Done:  E(UB3LYP) =  -1064.41815556     A.U. after   29 cycles
 Normal termination of Gaussian 16 at Fri Dec 11 13:01:45 2020.
 Gaussian 16:  ES64L-G16RevA.03 25-Dec-2016

 ----------------------------------------------------------------------
 # B3LYP/6-311++G(d,p) empiricaldispersion=gd3bj scf=xqc pop=npa geom=c
 heck
 ----------------------------------------------------------------------

 -----------------------------------
 CID_43299591_JID_7578_Energie_anion
 -----------------------------------
 Structure from the checkpoint file:  "JID_7578.chk"
 Charge = -1 Multiplicity = 2

                         Standard orientation:
 ---------------------------------------------------------------------
 Center     Atomic      Atomic             Coordinates (Angstroms)
 Number     Number       Type             X           Y           Z
 ---------------------------------------------------------------------
      1          6           0       -3.428318    0.007033   -0.902852
      2          6           0       -3.304644   -1.284248   -0.382037
      3          6           0       -2.311566   -1.557858    0.549291
      4          6           0       -1.432706   -0.541053    0.961375
      5          6           0       -1.543685    0.762669    0.435812
      6          6           0       -2.554397    1.011783   -0.497919
      7          6           0       -0.565084    1.841723    0.799482
      8         16           0        0.609613    2.194981   -0.603678
      9          6           0        1.285094    0.552878   -0.793426
     10          6           0        2.234866    0.060960    0.124911
     11          6           0        2.662225   -1.271749   -0.056503
     12          7           0        2.240032   -2.069016   -1.031107
     13          6           0        1.348605   -1.579802   -1.906058
     14          6           0        0.845885   -0.285309   -1.820088
     15          7           0        2.671244    0.814141    1.194021
     16          6           0       -0.435414   -0.858173    1.941104
     17          7           0        0.356260   -1.126970    2.749669
     18          1           0       -4.205010    0.228557   -1.628876
     19          1           0       -3.980308   -2.071817   -0.700539
     20          1           0       -2.199192   -2.552644    0.966815
     21          1           0       -2.637614    2.007673   -0.923769
     22          1           0       -1.068613    2.795756    0.979869
     23          1           0        0.021616    1.578980    1.681552
     24          1           0        3.377689   -1.696380    0.647814
     25          1           0        1.021369   -2.252837   -2.694879
     26          1           0        0.105594    0.074309   -2.526770
     27          1           0        3.484081    0.470378    1.686108
     28          1           0        2.648664    1.818112    1.064888
 ---------------------------------------------------------------------

 SCF Done:  E(UB3LYP) =  -1064.72161105     A.U. after   29 cycles

 The electronic state is 2-A.
 Alpha  occ. eigenvalues --  -88.72097 -14.20740 -14.17521 -14.15322 -10.09792
 Alpha  occ. eigenvalues --  -10.07655 -10.07623 -10.07042 -10.06850 -10.05371
 Alpha  occ. eigenvalues --  -10.05199 -10.05011 -10.04831 -10.04819 -10.04598
 Alpha  occ. eigenvalues --  -10.04198 -10.03530  -7.80715  -5.77087  -5.76755
 Alpha  occ. eigenvalues --   -5.76110  -0.82459  -0.79397  -0.75897  -0.73175
 Alpha  occ. eigenvalues --   -0.69551  -0.65557  -0.63072  -0.62010  -0.60386
 Alpha  occ. eigenvalues --   -0.54239  -0.50574  -0.50071  -0.48229  -0.45967
 Alpha  occ. eigenvalues --   -0.41365  -0.40883  -0.39106  -0.36505  -0.35041
 Alpha  occ. eigenvalues --   -0.34748  -0.33537  -0.31142  -0.31035  -0.30361
 Alpha  occ. eigenvalues --   -0.29428  -0.28648  -0.26963  -0.25350  -0.24611
 Alpha  occ. eigenvalues --   -0.23855  -0.23407  -0.21995  -0.21245  -0.21046
 Alpha  occ. eigenvalues --   -0.20207  -0.18339  -0.15272  -0.13438  -0.13003
 Alpha  occ. eigenvalues --   -0.12316  -0.11163  -0.09470   0.04202
 Alpha virt. eigenvalues --    0.07971   0.08503   0.08742   0.09437   0.10010
 Alpha virt. eigenvalues --    0.10316   0.10649   0.11105   0.11576   0.12370
 Alpha virt. eigenvalues --    0.12767   0.13290   0.13370   0.14484   0.15323

  Beta  occ. eigenvalues --  -88.72063 -14.20731 -14.17327 -14.15084 -10.09780
  Beta  occ. eigenvalues --  -10.07581 -10.07555 -10.06993 -10.06888 -10.05361
  Beta  occ. eigenvalues --  -10.04925 -10.04917 -10.04804 -10.04702 -10.04576
  Beta  occ. eigenvalues --  -10.04148 -10.03230  -7.80677  -5.77020  -5.76716
  Beta  occ. eigenvalues --   -5.76086  -0.82313  -0.79238  -0.75505  -0.72804
  Beta  occ. eigenvalues --   -0.69300  -0.65236  -0.62567  -0.61872  -0.60126
  Beta  occ. eigenvalues --   -0.53946  -0.50484  -0.49548  -0.48061  -0.45811
  Beta  occ. eigenvalues --   -0.41302  -0.40707  -0.39007  -0.36367  -0.34784
  Beta  occ. eigenvalues --   -0.34598  -0.33446  -0.30976  -0.30917  -0.30048
  Beta  occ. eigenvalues --   -0.29266  -0.28444  -0.26428  -0.25288  -0.23972
  Beta  occ. eigenvalues --   -0.23470  -0.23173  -0.21619  -0.20908  -0.20689
  Beta  occ. eigenvalues --   -0.19335  -0.18171  -0.14581  -0.13099  -0.12609
  Beta  occ. eigenvalues --   -0.11018  -0.10465  -0.09169
  Beta virt. eigenvalues --    0.08095   0.08520   0.08686   0.09396   0.10048
  Beta virt. eigenvalues --    0.10282   0.10409   0.11044   0.11134   0.11624
  Beta virt. eigenvalues --    0.12386   0.12808   0.13261   0.13369   0.14545

 Mulliken charges and spin densities:
               1          2
     1  C   -0.296718   0.237809
     2  C   -0.271657   0.065592
     3  C   -0.044259   0.043464
     4  C    2.100587   0.192576
     5  C    0.139052   0.191852
     6  C   -0.685502  -0.049805
     7  C   -0.562532  -0.013393
     8  S   -0.389358   0.061472
     9  C    0.862735  -0.019865
    10  C   -0.065804   0.005631
    11  C   -0.529733   0.061122
    12  N   -0.114157   0.089228
    13  C   -0.614144  -0.030049
    14  C   -0.085102   0.115027
    15  N   -0.288326  -0.003418
    16  C   -1.737685  -0.093057
    17  N   -0.244514   0.138640
    18  H    0.122167  -0.019585
    19  H    0.120379  -0.003525
    20  H    0.154658   0.000129
    21  H    0.109052   0.005554
    22  H    0.203153   0.010657
    23  H    0.230055   0.000143
    24  H    0.117181   0.000815
    25  H    0.135379   0.001323
    26  H    0.169718  -0.005408
    27  H    0.230781  -0.000795
    28  H    0.234592   0.017865
 Sum of Mulliken charges =  -1.00000   1.00000

 Dipole moment (field-independent basis, Debye):
    X=              0.2264    Y=              3.5216    Z=             -1.6525  Tot=              3.8966
 Quadrupole moment (field-independent basis, Debye-Ang):
   XX=           -129.6738   YY=           -126.4745   ZZ=           -131.6527
   XY=              6.7985   XZ=              7.2461   YZ=              6.1799

 Summary of Natural Population Analysis:

                                       Natural Population
                Natural  -----------------------------------------------
    Atom  No    Charge         Core      Valence    Rydberg      Total
 -----------------------------------------------------------------------
      C    1   -0.04708      0.99958     2.03875    0.00875     3.04708
      C    2   -0.10446      0.99957     2.09651    0.00838     3.10446
      C    3   -0.07293      0.99954     2.06301    0.01039     3.07293
      C    4   -0.04747      0.99937     2.03766    0.01044     3.04747
      C    5    0.03012      0.99948     1.95868    0.01171     2.96988
      C    6   -0.11884      0.99952     2.11103    0.00828     3.11884
      C    7   -0.24011      0.99954     2.22986    0.01071     3.24011
      S    8    0.09136      4.99957     2.89000    0.01907     7.90864
      C    9   -0.09493      0.99937     2.08130    0.01426     3.09493
      C   10    0.06682      0.99942     1.91821    0.01555     2.93318
      C   11    0.01594      0.99956     1.97085    0.01366     2.98406
      N   12   -0.20196      0.99971     2.69061    0.01164     3.70196
      C   13   -0.00820      0.99959     1.99439    0.01421     3.00820
      C   14   -0.09171      0.99949     2.08325    0.00897     3.09171
      N   15   -0.39004      0.99971     2.88197    0.00836     3.89004
      C   16    0.14831      0.99964     1.83257    0.01949     2.85169
      N   17   -0.16627      0.99979     2.65572    0.01076     3.66627
      H   18    0.08712      0.00000     0.41137    0.00151     0.41288
      H   19    0.09219      0.00000     0.40690    0.00091     0.40781
      H   20    0.09847      0.00000     0.40073    0.00080     0.40153
      H   21    0.09519      0.00000     0.40377    0.00104     0.40481
      H   22    0.10279      0.00000     0.39641    0.00080     0.39721
      H   23    0.11253      0.00000     0.38598    0.00149     0.38747
      H   24    0.08137      0.00000     0.41703    0.00160     0.41863
      H   25    0.08432      0.00000     0.41442    0.00126     0.41568
      H   26    0.10424      0.00000     0.39444    0.00131     0.39576
      H   27    0.18325      0.00000     0.31544    0.00131     0.31675
      H   28    0.18997      0.00000     0.30741    0.00263     0.31003
 =======================================================================
   * Total *   -0.00000     20.99245    41.78827    0.21928    63.00000

 Normal termination of Gaussian 16 at Fri Dec 11 13:12:53 2020.
