 Gaussian 16, Revision A.03,

 -----------------------------------------------------------
 # opt freq B3LYP/6-31G(d) empiricaldispersion=gd3bj scf=xqc
 -----------------------------------------------------------

 -------------------------------
 CID_144515970_JID_1345_neutraal
 -------------------------------
 Symbolic Z-matrix:
 Charge =  0 Multiplicity = 1

 SCF Done:  E(RB3LYP) =  -447.267901394     A.U. after   13 cycles
 SCF Done:  E(RB3LYP) =  -447.271914192     A.U. after   11 cycles
 SCF Done:  E(RB3LYP) =  -447.272172550     A.U. after   10 cycles
 SCF Done:  E(RB3LYP) =  -447.272308309     A.U. after   10 cycles
 SCF Done:  E(RB3LYP) =  -447.272355966     A.U. after   10 cycles
 SCF Done:  E(RB3LYP) =  -447.272415214     A.U. after   10 cycles
 SCF Done:  E(RB3LYP) =  -447.272472165     A.U. after   10 cycles
 SCF Done:  E(RB3LYP) =  -447.272499042     A.U. after    9 cycles
 SCF Done:  E(RB3LYP) =  -447.272545816     A.U. after   10 cycles
 SCF Done:  E(RB3LYP) =  -447.272571165     A.U. after    9 cycles
 SCF Done:  E(RB3LYP) =  -447.272700790     A.U. after    9 cycles
 SCF Done:  E(RB3LYP) =  -447.272701821     A.U. after    8 cycles
 SCF Done:  E(RB3LYP) =  -447.272702570     A.U. after    8 cycles
 SCF Done:  E(RB3LYP) =  -447.272702731     A.U. after    7 cycles
 SCF Done:  E(RB3LYP) =  -447.272702733     A.U. after    6 cycles
 Optimization completed.
    -- Stationary point found.
 Normal termination of Gaussian 16 at Tue Dec  8 20:43:48 2020.

 --------------------------------------------------------------------
 #N Geom=AllCheck Guess=TCheck SCRF=Check GenChk RB3LYP/6-31G(d) Freq
 --------------------------------------------------------------------

 Structure from the checkpoint file:  "JID_1345.chk"
 -------------------------------
 CID_144515970_JID_1345_neutraal
 -------------------------------
 Charge =  0 Multiplicity = 1

 SCF Done:  E(RB3LYP) =  -447.272702733     A.U. after    1 cycles

  Exact polarizability: 119.651  -0.311 111.739  -0.979   5.245  90.029
 Approx polarizability: 162.718 -11.263 151.010  -3.905  10.040 134.412

                      1                      2                      3
                      A                      A                      A
 Frequencies --      9.9038                31.0600                45.9368
 Red. masses --      1.7199                 2.5581                 3.3756
 Frc consts  --      0.0001                 0.0015                 0.0042
 IR Inten    --      0.0331                 0.1151                 0.0732

                      4                      5                      6
                      A                      A                      A
 Frequencies --     57.7310                69.8919                77.1341
 Red. masses --      1.7796                 2.0484                 1.9020
 Frc consts  --      0.0035                 0.0059                 0.0067
 IR Inten    --      0.0869                 0.2883                 0.0189

                      7                      8                      9
                      A                      A                      A
 Frequencies --     80.8586               111.8254               233.7172
 Red. masses --      2.4924                 2.6374                 2.7150
 Frc consts  --      0.0096                 0.0194                 0.0874
 IR Inten    --      0.0739                 0.0120                 4.3537

                     10                     11                     12
                      A                      A                      A
 Frequencies --    268.6913               317.8194               374.5545
 Red. masses --      2.2481                 1.0095                 2.1806
 Frc consts  --      0.0956                 0.0601                 0.1802
 IR Inten    --      0.6595                 0.0847                 0.4059

                     13                     14                     15
                      A                      A                      A
 Frequencies --    386.2432               410.2712               466.5214
 Red. masses --      2.3498                 2.2332                 2.4776
 Frc consts  --      0.2065                 0.2215                 0.3177
 IR Inten    --      0.0216                 0.5601                 0.7615

                     16                     17                     18
                      A                      A                      A
 Frequencies --    590.7546               676.4651               722.2208
 Red. masses --      2.3274                 1.4196                 2.7800
 Frc consts  --      0.4785                 0.3827                 0.8543
 IR Inten    --     52.5682                34.3274                 5.2521

                     19                     20                     21
                      A                      A                      A
 Frequencies --    780.4713               790.3418               826.5574
 Red. masses --      3.7594                 2.3805                 1.6861
 Frc consts  --      1.3492                 0.8761                 0.6787
 IR Inten    --      7.5652                16.5332                 4.9189

                     22                     23                     24
                      A                      A                      A
 Frequencies --    833.0189               833.5929               863.7759
 Red. masses --      1.0637                 1.0584                 1.9743
 Frc consts  --      0.4349                 0.4333                 0.8679
 IR Inten    --      4.6266                 9.4933                32.9401

                     25                     26                     27
                      A                      A                      A
 Frequencies --    925.9693               949.3481               950.8015
 Red. masses --      1.9961                 2.4844                 1.9550
 Frc consts  --      1.0084                 1.3192                 1.0413
 IR Inten    --     12.4152                 0.7020                 6.6546

                     28                     29                     30
                      A                      A                      A
 Frequencies --    965.6217               976.2694               989.0159
 Red. masses --      1.3800                 1.6856                 2.7555
 Frc consts  --      0.7581                 0.9466                 1.5881
 IR Inten    --      1.4699                 2.6330                 0.4154

                     31                     32                     33
                      A                      A                      A
 Frequencies --    991.9582              1012.2069              1019.0933
 Red. masses --      1.8364                 3.2497                 1.7803
 Frc consts  --      1.0647                 1.9617                 1.0894
 IR Inten    --      2.5596                 0.2486                 1.0526

                     34                     35                     36
                      A                      A                      A
 Frequencies --   1054.6884              1091.9863              1130.2066
 Red. masses --      1.5720                 2.4404                 1.9112
 Frc consts  --      1.0302                 1.7145                 1.4384
 IR Inten    --     12.4092                 5.0662                 7.4745

                     37                     38                     39
                      A                      A                      A
 Frequencies --   1135.3301              1150.9934              1159.4160
 Red. masses --      1.2743                 1.7656                 1.7196
 Frc consts  --      0.9678                 1.3781                 1.3620
 IR Inten    --      0.1792                 2.3990                 4.7389

                     40                     41                     42
                      A                      A                      A
 Frequencies --   1185.6436              1231.1181              1235.1190
 Red. masses --      1.1316                 1.2592                 1.4664
 Frc consts  --      0.9372                 1.1245                 1.3180
 IR Inten    --      4.7298                 2.0608                 0.1055

                     43                     44                     45
                      A                      A                      A
 Frequencies --   1235.6543              1249.9198              1275.2819
 Red. masses --      1.4648                 1.4412                 1.3935
 Frc consts  --      1.3178                 1.3266                 1.3353
 IR Inten    --      0.0944                 2.6761                 1.3099

                     46                     47                     48
                      A                      A                      A
 Frequencies --   1295.9116              1309.0995              1313.2759
 Red. masses --      1.5057                 1.3720                 1.4220
 Frc consts  --      1.4898                 1.3854                 1.4450
 IR Inten    --      0.7858                18.9604                10.9195

                     49                     50                     51
                      A                      A                      A
 Frequencies --   1331.7196              1362.4013              1386.0326
 Red. masses --      1.3694                 1.9282                 1.7246
 Frc consts  --      1.4308                 2.1087                 1.9521
 IR Inten    --      0.2902                 2.2047                 2.1352

                     52                     53                     54
                      A                      A                      A
 Frequencies --   1413.1474              1432.4137              1452.7297
 Red. masses --      1.4845                 1.1976                 1.3483
 Frc consts  --      1.7466                 1.4478                 1.6766
 IR Inten    --      2.5142                 0.9376                 3.0089

                     55                     56                     57
                      A                      A                      A
 Frequencies --   1454.4272              1513.4974              1522.8732
 Red. masses --      1.2884                 1.0851                 1.0767
 Frc consts  --      1.6058                 1.4645                 1.4712
 IR Inten    --      2.1134                 2.5035                 1.3162

                     58                     59                     60
                      A                      A                      A
 Frequencies --   1523.6559              1530.0497              1531.7726
 Red. masses --      1.0846                 1.0395                 1.0296
 Frc consts  --      1.4835                 1.4337                 1.4233
 IR Inten    --      2.0492                 6.3306                 2.3910

                     61                     62                     63
                      A                      A                      A
 Frequencies --   1534.8861              1536.0156              1543.0839
 Red. masses --      1.0582                 1.0612                 1.0895
 Frc consts  --      1.4688                 1.4752                 1.5284
 IR Inten    --      8.9701                 8.4153                 0.9527

                     64                     65                     66
                      A                      A                      A
 Frequencies --   1561.1606              1701.3001              2932.1690
 Red. masses --      1.0972                 5.8709                 1.0727
 Frc consts  --      1.5755                10.0120                 5.4340
 IR Inten    --      2.1693                 2.2781                80.9648

                     67                     68                     69
                      A                      A                      A
 Frequencies --   2961.6666              3008.8782              3012.7336
 Red. masses --      1.0744                 1.0690                 1.0717
 Frc consts  --      5.5524                 5.7022                 5.7311
 IR Inten    --    102.9656                47.5141                35.7307

                     70                     71                     72
                      A                      A                      A
 Frequencies --   3049.4115              3050.9722              3059.1506
 Red. masses --      1.0365                 1.0348                 1.0920
 Frc consts  --      5.6786                 5.6753                 6.0210
 IR Inten    --      8.3057                42.2717                37.8538

                     73                     74                     75
                      A                      A                      A
 Frequencies --   3073.1724              3080.3655              3084.6556
 Red. masses --      1.0733                 1.0760                 1.0902
 Frc consts  --      5.9726                 6.0157                 6.1116
 IR Inten    --     26.2021                58.2318                13.2489

                     76                     77                     78
                      A                      A                      A
 Frequencies --   3092.9325              3101.0292              3103.5035
 Red. masses --      1.0889                 1.1016                 1.1015
 Frc consts  --      6.1371                 6.2415                 6.2510
 IR Inten    --     31.4054                 0.9514                 0.3990

                     79                     80                     81
                      A                      A                      A
 Frequencies --   3116.1882              3125.0397              3127.3363
 Red. masses --      1.1059                 1.1027                 1.1026
 Frc consts  --      6.3273                 6.3446                 6.3537
 IR Inten    --     57.8811                55.6849                81.0856

                     82                     83                     84
                      A                      A                      A
 Frequencies --   3189.4981              3213.9732              3514.5155
 Red. masses --      1.0850                 1.1033                 1.0750
 Frc consts  --      6.5030                 6.7147                 7.8234
 IR Inten    --      9.8573                39.9160                 1.6036

 - Thermochemistry -
 -------------------
 Temperature   298.150 Kelvin.  Pressure   1.00000 Atm.
 Atom     1 has atomic number  6 and mass  12.00000

 Molecular mass:   153.15175 amu.
 Principal axes and moments of inertia in atomic units:
                           1         2         3
     Eigenvalues --  1443.917192422.261573329.51734
           X            0.99976  -0.02179  -0.00188
           Y            0.02180   0.99976   0.00260
           Z            0.00182  -0.00264   0.99999
 This molecule is an asymmetric top.
 Rotational symmetry number  1.
 Warning -- assumption of classical behavior for rotation
           may cause significant error
 Rotational temperatures (Kelvin)      0.05999     0.03576     0.02601
 Rotational constants (GHZ):           1.24989     0.74506     0.54204
 Zero-point vibrational energy     723272.1 (Joules/Mol)
                                  172.86617 (Kcal/Mol)
 Warning -- explicit consideration of  16 degrees of freedom as
           vibrations may cause significant error
 Vibrational temperatures:     14.25    44.69    66.09    83.06   100.56
          (Kelvin)            110.98   116.34   160.89   336.27   386.59
                              457.27   538.90   555.72   590.29   671.22
                              849.96   973.28  1039.11  1122.92  1137.13
                             1189.23  1198.53  1199.35  1242.78  1332.26
                             1365.90  1367.99  1389.31  1404.63  1422.97
                             1427.21  1456.34  1466.25  1517.46  1571.12
                             1626.12  1633.49  1656.02  1668.14  1705.88
                             1771.30  1777.06  1777.83  1798.36  1834.85
                             1864.53  1883.50  1889.51  1916.05  1960.19
                             1994.19  2033.20  2060.92  2090.15  2092.60
                             2177.59  2191.07  2192.20  2201.40  2203.88
                             2208.36  2209.98  2220.15  2246.16  2447.79
                             4218.74  4261.18  4329.10  4334.65  4387.42
                             4389.67  4401.44  4421.61  4431.96  4438.13
                             4450.04  4461.69  4465.25  4483.50  4496.24
                             4499.54  4588.98  4624.19  5056.60

 Zero-point correction=                           0.275480 (Hartree/Particle)
 Thermal correction to Energy=                    0.288953
 Thermal correction to Enthalpy=                  0.289897
 Thermal correction to Gibbs Free Energy=         0.231496
 Sum of electronic and zero-point Energies=           -446.997223
 Sum of electronic and thermal Energies=              -446.983750
 Sum of electronic and thermal Enthalpies=            -446.982806
 Sum of electronic and thermal Free Energies=         -447.041206

                     E (Thermal)             CV                S
                      KCal/Mol        Cal/Mol-Kelvin    Cal/Mol-Kelvin
 Total                  181.321             47.245            122.915
 Electronic               0.000              0.000              0.000
 Translational            0.889              2.981             40.989
 Rotational               0.889              2.981             30.833
 Vibrational            179.543             41.284             51.093
 Vibration     1          0.593              1.987              8.030
 Vibration     2          0.594              1.983              5.761
 Vibration     3          0.595              1.979              4.985
 Vibration     4          0.596              1.974              4.533
 Vibration     5          0.598              1.968              4.156
 Vibration     6          0.599              1.964              3.963
 Vibration     7          0.600              1.962              3.870
 Vibration     8          0.607              1.940              3.237
 Vibration     9          0.654              1.789              1.850
 Vibration    10          0.673              1.731              1.605
 Vibration    11          0.704              1.640              1.321
 Vibration    12          0.746              1.524              1.061
 Vibration    13          0.755              1.500              1.015
 Vibration    14          0.774              1.448              0.926
 Vibration    15          0.824              1.324              0.747
 Vibration    16          0.948              1.051              0.466

                           ! Non-Optimized Parameters !
 Normal termination of Gaussian 16 at Tue Dec  8 20:53:10 2020.

 ----------------------------------------------------------------------
 # B3LYP/6-311++G(d,p) empiricaldispersion=gd3bj scf=xqc pop=npa geom=c
 heck
 ----------------------------------------------------------------------

 ---------------------------------------
 CID_144515970_JID_1345_Energie_neutraal
 ---------------------------------------
 Structure from the checkpoint file:  "JID_1345.chk"
 Charge =  0 Multiplicity = 1

 SCF Done:  E(RB3LYP) =  -447.400715610     A.U. after   13 cycles
 Normal termination of Gaussian 16 at Tue Dec  8 20:57:11 2020.

 ----------------------------------------------------------------------
 # B3LYP/6-311++G(d,p) empiricaldispersion=gd3bj scf=xqc pop=npa geom=c
 heck
 ----------------------------------------------------------------------

 -------------------------------------
 CID_144515970_JID_1345_Energie_kation
 -------------------------------------
 Structure from the checkpoint file:  "JID_1345.chk"
 Charge =  1 Multiplicity = 2

 SCF Done:  E(UB3LYP) =  -447.101370715     A.U. after   18 cycles
 Normal termination of Gaussian 16 at Tue Dec  8 21:05:03 2020.
 Gaussian 16:  ES64L-G16RevA.03 25-Dec-2016

 ----------------------------------------------------------------------
 # B3LYP/6-311++G(d,p) empiricaldispersion=gd3bj scf=xqc pop=npa geom=c
 heck
 ----------------------------------------------------------------------

 ------------------------------------
 CID_144515970_JID_1345_Energie_anion
 ------------------------------------
 Structure from the checkpoint file:  "JID_1345.chk"
 Charge = -1 Multiplicity = 2

                         Standard orientation:
 ---------------------------------------------------------------------
 Center     Atomic      Atomic             Coordinates (Angstroms)
 Number     Number       Type             X           Y           Z
 ---------------------------------------------------------------------
      1          6           0        3.412814   -0.124376   -0.524494
      2          6           0        3.516675   -1.372471    0.353496
      3          6           0        0.102197    0.855175    1.151796
      4          6           0        0.274333    2.254439    0.507460
      5          7           0       -0.665893    2.239823   -0.621369
      6          6           0       -0.625894    0.873587   -1.135706
      7          6           0       -0.764303    0.040182    0.155125
      8          6           0       -0.352444   -1.440291   -0.049878
      9          6           0       -1.661295   -2.137014   -0.337773
     10          6           0       -2.706242   -1.371557   -0.013420
     11          6           0       -2.270192   -0.037827    0.542078
     12          1           0        3.304682    0.782747    0.080988
     13          1           0        2.544380   -0.177322   -1.190400
     14          1           0        4.304258   -0.001253   -1.150008
     15          1           0        4.386124   -1.320876    1.018619
     16          1           0        2.626291   -1.493836    0.980174
     17          1           0        3.617098   -2.279087   -0.254011
     18          1           0        1.077556    0.380772    1.296210
     19          1           0       -0.376738    0.912623    2.133888
     20          1           0        1.322438    2.387522    0.186238
     21          1           0        0.034010    3.074093    1.193380
     22          1           0       -0.423651    2.928651   -1.329250
     23          1           0       -1.440718    0.691983   -1.844551
     24          1           0        0.327733    0.622362   -1.639421
     25          1           0        0.389760   -1.553785   -0.850631
     26          1           0        0.111128   -1.855415    0.858616
     27          1           0       -1.718077   -3.152675   -0.719173
     28          1           0       -3.748688   -1.667388   -0.093380
     29          1           0       -2.404244   -0.016473    1.634580
     30          1           0       -2.825991    0.819515    0.145611
 ---------------------------------------------------------------------

 SCF Done:  E(UB3LYP) =  -447.383783293     A.U. after   33 cycles
 SCF Done:  E(UB3LYP) =  -447.383783293     a.u. after    1 cycles

 The electronic state is 2-A.
 Alpha  occ. eigenvalues --  -14.19185 -10.08623 -10.08306 -10.07967 -10.06673
 Alpha  occ. eigenvalues --  -10.06652 -10.06579 -10.06371 -10.06253 -10.05638
 Alpha  occ. eigenvalues --  -10.05440  -0.81710  -0.74282  -0.65220  -0.64910
 Alpha  occ. eigenvalues --   -0.61788  -0.60630  -0.53929  -0.51460  -0.48886
 Alpha  occ. eigenvalues --   -0.44292  -0.43588  -0.41075  -0.37221  -0.36675
 Alpha  occ. eigenvalues --   -0.34393  -0.33526  -0.33365  -0.32728  -0.29068
 Alpha  occ. eigenvalues --   -0.28160  -0.27614  -0.26829  -0.26484  -0.25898
 Alpha  occ. eigenvalues --   -0.24989  -0.24298  -0.24202  -0.22922  -0.22134
 Alpha  occ. eigenvalues --   -0.20841  -0.14579  -0.12415   0.04612
 Alpha virt. eigenvalues --    0.06699   0.06982   0.07747   0.08572   0.09146
 Alpha virt. eigenvalues --    0.09369   0.09858   0.10141   0.10434   0.11202
 Alpha virt. eigenvalues --    0.11828   0.12071   0.12733   0.13130   0.13894

  Beta  occ. eigenvalues --  -14.19166 -10.08604 -10.08287 -10.07969 -10.06662
  Beta  occ. eigenvalues --  -10.06640 -10.06570 -10.06359 -10.06241 -10.05606
  Beta  occ. eigenvalues --  -10.05403  -0.81685  -0.74263  -0.65178  -0.64876
  Beta  occ. eigenvalues --   -0.61752  -0.60602  -0.53889  -0.51346  -0.48832
  Beta  occ. eigenvalues --   -0.44252  -0.43556  -0.41021  -0.37176  -0.36652
  Beta  occ. eigenvalues --   -0.34368  -0.33492  -0.33334  -0.32697  -0.29041
  Beta  occ. eigenvalues --   -0.28136  -0.27593  -0.26742  -0.26453  -0.25862
  Beta  occ. eigenvalues --   -0.24963  -0.24259  -0.24164  -0.22898  -0.22114
  Beta  occ. eigenvalues --   -0.20820  -0.14563  -0.12380
  Beta virt. eigenvalues --    0.06696   0.07531   0.07739   0.08372   0.09120
  Beta virt. eigenvalues --    0.09621   0.09860   0.10134   0.10436   0.10684
  Beta virt. eigenvalues --    0.11657   0.12130   0.12441   0.13078   0.13462

 Mulliken charges and spin densities:
               1          2
     1  C    0.101468  -0.468743
     2  C    0.566626  -0.983575
     3  C    0.655545  -0.954983
     4  C    0.288022  -0.726455
     5  N   -0.277094   0.219434
     6  C    0.448433  -1.330726
     7  C   -0.402416   1.474087
     8  C   -1.122103   0.656435
     9  C    1.077871  -1.313661
    10  C   -0.474505   0.314877
    11  C    0.578730  -1.134239
    12  H    0.107016   0.009606
    13  H   -0.011391   0.130572
    14  H   -0.540382   0.690845
    15  H   -0.326075   0.458259
    16  H   -0.313829   0.448955
    17  H   -0.144532   0.271255
    18  H    0.417845  -0.298075
    19  H   -0.099372   0.255148
    20  H   -0.339497   0.467448
    21  H   -0.105938   0.267930
    22  H   -0.055819   0.301624
    23  H    0.042327   0.155344
    24  H   -0.429982   0.538862
    25  H    0.330674  -0.205290
    26  H   -0.092879   0.219812
    27  H   -0.570110   0.748979
    28  H   -0.347639   0.507636
    29  H   -0.132920   0.273320
    30  H    0.171924   0.005320
 Sum of Mulliken charges =  -1.00000   1.00000

 Dipole moment (field-independent basis, Debye):
    X=             -3.1443    Y=              0.7061    Z=              1.3306  Tot=              3.4865
 Quadrupole moment (field-independent basis, Debye-Ang):
   XX=           -141.2479   YY=           -121.3795   ZZ=           -105.9209
   XY=             -1.0720   XZ=              2.3244   YZ=              0.4826

 Summary of Natural Population Analysis:

                                       Natural Population
                Natural  -----------------------------------------------
    Atom  No    Charge         Core      Valence    Rydberg      Total
 -----------------------------------------------------------------------
      C    1   -0.28667      0.99968     2.28204    0.00495     3.28667
      C    2   -0.28423      0.99968     2.28056    0.00399     3.28423
      C    3   -0.19138      0.99958     2.18312    0.00867     3.19138
      C    4   -0.08735      0.99964     2.07708    0.01063     3.08735
      N    5   -0.34387      0.99975     2.83248    0.01164     3.84387
      C    6   -0.08491      0.99956     2.07356    0.01179     3.08491
      C    7   -0.03795      0.99957     2.02383    0.01455     3.03795
      C    8   -0.20370      0.99958     2.19389    0.01023     3.20370
      C    9   -0.09232      0.99952     2.08299    0.00980     3.09232
      C   10   -0.09509      0.99952     2.08586    0.00971     3.09509
      C   11   -0.20297      0.99958     2.19435    0.00904     3.20297
      H   12    0.09543      0.00000     0.40314    0.00143     0.40457
      H   13    0.09589      0.00000     0.40242    0.00169     0.40411
      H   14    0.09596      0.00000     0.40266    0.00138     0.40404
      H   15    0.09416      0.00000     0.40454    0.00131     0.40584
      H   16    0.09497      0.00000     0.40364    0.00139     0.40503
      H   17    0.09514      0.00000     0.40346    0.00140     0.40486
      H   18    0.10266      0.00000     0.39582    0.00152     0.39734
      H   19    0.09912      0.00000     0.39969    0.00119     0.40088
      H   20    0.08160      0.00000     0.41629    0.00211     0.41840
      H   21    0.09087      0.00000     0.40784    0.00129     0.40913
      H   22    0.17697      0.00000     0.32013    0.00290     0.32303
      H   23    0.09732      0.00000     0.40135    0.00132     0.40268
      H   24    0.08145      0.00000     0.41629    0.00226     0.41855
      H   25    0.10402      0.00000     0.39430    0.00168     0.39598
      H   26    0.10211      0.00000     0.39641    0.00148     0.39789
      H   27    0.09852      0.00000     0.40032    0.00116     0.40148
      H   28    0.09697      0.00000     0.40208    0.00095     0.40303
      H   29    0.09974      0.00000     0.39901    0.00124     0.40026
      H   30    0.10755      0.00000     0.39082    0.00163     0.39245
 =======================================================================
   * Total *    0.00000     10.99567    31.86998    0.13435    43.00000

 Normal termination of Gaussian 16 at Tue Dec  8 21:18:44 2020.
