 Gaussian 16, Revision A.03,

 -----------------------------------------------------------
 # opt freq B3LYP/6-31G(d) empiricaldispersion=gd3bj scf=xqc
 -----------------------------------------------------------

 ------------------------------
 CID_79412057_JID_6388_neutraal
 ------------------------------
 Symbolic Z-matrix:
 Charge =  0 Multiplicity = 1

 SCF Done:  E(RB3LYP) =  -713.265263646     A.U. after   14 cycles
 SCF Done:  E(RB3LYP) =  -713.269826312     A.U. after   12 cycles
 SCF Done:  E(RB3LYP) =  -713.270620938     A.U. after   12 cycles
 SCF Done:  E(RB3LYP) =  -713.270953400     A.U. after   12 cycles
 SCF Done:  E(RB3LYP) =  -713.271194347     A.U. after   10 cycles
 SCF Done:  E(RB3LYP) =  -713.271243372     A.U. after   10 cycles
 SCF Done:  E(RB3LYP) =  -713.271253993     A.U. after    9 cycles
 SCF Done:  E(RB3LYP) =  -713.271259645     A.U. after    9 cycles
 SCF Done:  E(RB3LYP) =  -713.271260433     A.U. after    7 cycles
 SCF Done:  E(RB3LYP) =  -713.271260696     A.U. after    7 cycles
 SCF Done:  E(RB3LYP) =  -713.271260775     A.U. after    7 cycles
 SCF Done:  E(RB3LYP) =  -713.271260827     A.U. after    6 cycles
 Optimization completed.
    -- Stationary point found.
 Normal termination of Gaussian 16 at Thu Dec 10 22:31:07 2020.

 --------------------------------------------------------------------
 #N Geom=AllCheck Guess=TCheck SCRF=Check GenChk RB3LYP/6-31G(d) Freq
 --------------------------------------------------------------------

 Structure from the checkpoint file:  "JID_6388.chk"
 ------------------------------
 CID_79412057_JID_6388_neutraal
 ------------------------------
 Charge =  0 Multiplicity = 1

 SCF Done:  E(RB3LYP) =  -713.271260827     A.U. after    1 cycles

  Exact polarizability: 193.120  17.472 117.940  -2.257   0.171 136.588
 Approx polarizability: 251.013  33.978 163.867  -1.314   0.948 232.260

                      1                      2                      3
                      A                      A                      A
 Frequencies --     34.1488                39.8982                43.6564
 Red. masses --      3.2988                 4.1229                 3.4736
 Frc consts  --      0.0023                 0.0039                 0.0039
 IR Inten    --      0.4193                 0.1531                 0.9475

                      4                      5                      6
                      A                      A                      A
 Frequencies --     76.4005                97.7985               114.9127
 Red. masses --      3.3546                 3.4480                 2.3029
 Frc consts  --      0.0115                 0.0194                 0.0179
 IR Inten    --      1.7300                 1.9531                 0.1442

                      7                      8                      9
                      A                      A                      A
 Frequencies --    124.3907               164.5739               175.7271
 Red. masses --      3.5322                 3.5755                 4.3457
 Frc consts  --      0.0322                 0.0571                 0.0791
 IR Inten    --      1.7104                 2.4455                 0.6248

                     10                     11                     12
                      A                      A                      A
 Frequencies --    209.0446               230.6215               247.1630
 Red. masses --      1.7656                 2.1363                 1.9624
 Frc consts  --      0.0455                 0.0669                 0.0706
 IR Inten    --      0.1555                 7.9193                 0.7083

                     13                     14                     15
                      A                      A                      A
 Frequencies --    251.7212               261.6343               296.3595
 Red. masses --      1.1923                 1.5456                 2.2177
 Frc consts  --      0.0445                 0.0623                 0.1148
 IR Inten    --     21.3650                 7.8235                 4.2313

                     16                     17                     18
                      A                      A                      A
 Frequencies --    317.6112               321.1127               344.8514
 Red. masses --      1.3846                 1.6898                 2.4229
 Frc consts  --      0.0823                 0.1027                 0.1698
 IR Inten    --    130.2310                 1.6475                20.1971

                     19                     20                     21
                      A                      A                      A
 Frequencies --    354.6511               414.9837               430.9840
 Red. masses --      3.0867                 3.3218                 3.1365
 Frc consts  --      0.2287                 0.3370                 0.3433
 IR Inten    --      8.3740                 2.1312                 0.5497

                     22                     23                     24
                      A                      A                      A
 Frequencies --    459.5629               481.2076               533.6924
 Red. masses --      3.9937                 3.9030                 2.9095
 Frc consts  --      0.4970                 0.5325                 0.4883
 IR Inten    --      2.7970                 0.8012                 9.8973

                     25                     26                     27
                      A                      A                      A
 Frequencies --    554.6898               582.1848               620.5928
 Red. masses --      2.7275                 3.0324                 3.7325
 Frc consts  --      0.4944                 0.6056                 0.8470
 IR Inten    --     19.4839                19.8258                 5.5627

                     28                     29                     30
                      A                      A                      A
 Frequencies --    655.1081               735.5370               760.5221
 Red. masses --      6.7797                 3.7550                 1.4605
 Frc consts  --      1.7143                 1.1969                 0.4977
 IR Inten    --      1.9842                 0.8227                19.5173

                     31                     32                     33
                      A                      A                      A
 Frequencies --    783.0562               825.3246               838.5377
 Red. masses --      3.9462                 1.3422                 1.4642
 Frc consts  --      1.4257                 0.5387                 0.6066
 IR Inten    --      4.7423                19.3473                33.0381

                     34                     35                     36
                      A                      A                      A
 Frequencies --    849.3575               856.2035               868.5536
 Red. masses --      2.3221                 1.6538                 2.1180
 Frc consts  --      0.9870                 0.7143                 0.9414
 IR Inten    --     16.1268                 9.7572                69.8835

                     37                     38                     39
                      A                      A                      A
 Frequencies --    889.8793               933.4662               944.5932
 Red. masses --      2.4350                 1.4877                 1.4270
 Frc consts  --      1.1361                 0.7638                 0.7502
 IR Inten    --     14.1917                 2.0868                 4.1315

                     40                     41                     42
                      A                      A                      A
 Frequencies --    949.1217               966.5222              1005.6366
 Red. masses --      1.7567                 1.2928                 1.8013
 Frc consts  --      0.9324                 0.7115                 1.0733
 IR Inten    --     27.0231                 0.2122                15.1522

                     43                     44                     45
                      A                      A                      A
 Frequencies --   1032.9973              1049.3856              1070.1664
 Red. masses --      2.9128                 3.1360                 2.2047
 Frc consts  --      1.8313                 2.0347                 1.4877
 IR Inten    --      5.5995                24.9760                41.8420

                     46                     47                     48
                      A                      A                      A
 Frequencies --   1084.2823              1091.0858              1099.2887
 Red. masses --      5.4123                 1.8982                 2.2053
 Frc consts  --      3.7490                 1.3314                 1.5701
 IR Inten    --     53.3437                21.8593                 1.8366

                     49                     50                     51
                      A                      A                      A
 Frequencies --   1105.9830              1143.9689              1161.4979
 Red. masses --      1.5355                 1.3255                 1.7608
 Frc consts  --      1.1066                 1.0220                 1.3995
 IR Inten    --      3.9202                 6.1743                 5.9093

                     52                     53                     54
                      A                      A                      A
 Frequencies --   1187.0467              1206.8790              1219.7091
 Red. masses --      1.2720                 1.1733                 1.4001
 Frc consts  --      1.0560                 1.0069                 1.2272
 IR Inten    --      0.7311                28.6681                 9.1832

                     55                     56                     57
                      A                      A                      A
 Frequencies --   1221.2009              1231.2865              1240.8449
 Red. masses --      1.5136                 2.0002                 1.5635
 Frc consts  --      1.3300                 1.7867                 1.4183
 IR Inten    --      8.8553                 6.4394                 3.4611

                     58                     59                     60
                      A                      A                      A
 Frequencies --   1285.3804              1297.8406              1312.6845
 Red. masses --      1.3208                 3.9536                 1.3185
 Frc consts  --      1.2857                 3.9236                 1.3386
 IR Inten    --      2.9975               293.5029                24.8420

                     61                     62                     63
                      A                      A                      A
 Frequencies --   1328.5573              1334.6575              1355.1163
 Red. masses --      1.3742                 1.3177                 2.2142
 Frc consts  --      1.4291                 1.3830                 2.3956
 IR Inten    --     27.9057                 5.2565                18.6087

                     64                     65                     66
                      A                      A                      A
 Frequencies --   1361.7799              1372.3695              1397.1745
 Red. masses --      1.2109                 1.5267                 1.4655
 Frc consts  --      1.3230                 1.6942                 1.6855
 IR Inten    --      4.7571                23.6239                22.8660

                     67                     68                     69
                      A                      A                      A
 Frequencies --   1406.6326              1411.6433              1431.1412
 Red. masses --      1.5125                 1.5937                 1.5112
 Frc consts  --      1.7633                 1.8712                 1.8236
 IR Inten    --      3.6497                21.8660                 3.4801

                     70                     71                     72
                      A                      A                      A
 Frequencies --   1440.1677              1444.9908              1472.3236
 Red. masses --      1.3291                 1.2999                 2.7155
 Frc consts  --      1.6241                 1.5991                 3.4683
 IR Inten    --     11.5032                 1.1622                 2.7249

                     73                     74                     75
                      A                      A                      A
 Frequencies --   1500.1165              1516.9761              1520.7113
 Red. masses --      1.1958                 1.0698                 1.0478
 Frc consts  --      1.5854                 1.4504                 1.4277
 IR Inten    --     15.3487                 0.8439                 5.2561

                     76                     77                     78
                      A                      A                      A
 Frequencies --   1522.9871              1534.2263              1536.2813
 Red. masses --      1.0676                 1.0600                 1.0652
 Frc consts  --      1.4590                 1.4701                 1.4812
 IR Inten    --      1.6015                10.9102                39.5996

                     79                     80                     81
                      A                      A                      A
 Frequencies --   1538.3222              1545.5477              1566.6210
 Red. masses --      1.0627                 1.0792                 2.4591
 Frc consts  --      1.4816                 1.5189                 3.5560
 IR Inten    --      2.3054                12.7279                88.1400

                     82                     83                     84
                      A                      A                      A
 Frequencies --   1637.9752              1677.2884              1697.1229
 Red. masses --      6.4783                 5.8276                 1.0882
 Frc consts  --     10.2407                 9.6596                 1.8466
 IR Inten    --     16.8431                62.3094                29.5458

                     85                     86                     87
                      A                      A                      A
 Frequencies --   2974.3579              3023.5793              3026.5627
 Red. masses --      1.0742                 1.0351                 1.0823
 Frc consts  --      5.5990                 5.5753                 5.8413
 IR Inten    --     90.1358                56.8567                 7.1735

                     88                     89                     90
                      A                      A                      A
 Frequencies --   3028.9289              3038.4492              3045.3910
 Red. masses --      1.0634                 1.0679                 1.0496
 Frc consts  --      5.7481                 5.8090                 5.7355
 IR Inten    --     35.0460                 9.2511                 0.1231

                     91                     92                     93
                      A                      A                      A
 Frequencies --   3049.4971              3060.2099              3081.1406
 Red. masses --      1.0679                 1.0979                 1.1065
 Frc consts  --      5.8510                 6.0580                 6.1890
 IR Inten    --     64.5549                31.2904                44.6972

                     94                     95                     96
                      A                      A                      A
 Frequencies --   3089.7940              3110.5703              3118.2299
 Red. masses --      1.0978                 1.1019                 1.1016
 Frc consts  --      6.1751                 6.2817                 6.3110
 IR Inten    --     39.0034                49.8536                51.7271

                     97                     98                     99
                      A                      A                      A
 Frequencies --   3125.0368              3157.7242              3179.5284
 Red. masses --      1.0885                 1.0995                 1.0890
 Frc consts  --      6.2630                 6.4595                 6.4864
 IR Inten    --     11.2886                30.0151                13.6424

                    100                    101                    102
                      A                      A                      A
 Frequencies --   3200.2691              3216.2383              3226.6358
 Red. masses --      1.0871                 1.0944                 1.0911
 Frc consts  --      6.5597                 6.6701                 6.6926
 IR Inten    --      5.4315                 8.9918                13.2200

                    103                    104                    105
                      A                      A                      A
 Frequencies --   3474.7093              3558.6847              3744.9871
 Red. masses --      1.0498                 1.0924                 1.0662
 Frc consts  --      7.4680                 8.1510                 8.8104
 IR Inten    --      1.9498                 0.3397                11.0700

 - Thermochemistry -
 -------------------
 Temperature   298.150 Kelvin.  Pressure   1.00000 Atm.
 Atom     1 has atomic number  6 and mass  12.00000

 Molecular mass:   223.15723 amu.
 Principal axes and moments of inertia in atomic units:
                           1         2         3
     Eigenvalues --  2026.835887035.692277781.21803
           X            0.99994  -0.00800  -0.00764
           Y            0.00813   0.99982   0.01739
           Z            0.00750  -0.01745   0.99982
 This molecule is an asymmetric top.
 Rotational symmetry number  1.
 Warning -- assumption of classical behavior for rotation
           may cause significant error
 Rotational temperatures (Kelvin)      0.04273     0.01231     0.01113
 Rotational constants (GHZ):           0.89042     0.25651     0.23194
 Zero-point vibrational energy     859925.9 (Joules/Mol)
                                  205.52721 (Kcal/Mol)
 Warning -- explicit consideration of  27 degrees of freedom as
           vibrations may cause significant error
 Vibrational temperatures:     49.13    57.40    62.81   109.92   140.71
          (Kelvin)            165.33   178.97   236.79   252.83   300.77
                              331.81   355.61   362.17   376.43   426.40
                              456.97   462.01   496.16   510.26   597.07
                              620.09   661.21   692.35   767.86   798.07
                              837.63   892.89   942.55  1058.27  1094.22
                             1126.64  1187.46  1206.47  1222.04  1231.89
                             1249.65  1280.34  1343.05  1359.06  1365.57
                             1390.61  1446.89  1486.25  1509.83  1539.73
                             1560.04  1569.83  1581.63  1591.26  1645.92
                             1671.14  1707.90  1736.43  1754.89  1757.04
                             1771.55  1785.30  1849.38  1867.30  1888.66
                             1911.50  1920.27  1949.71  1959.30  1974.53
                             2010.22  2023.83  2031.04  2059.09  2072.08
                             2079.02  2118.35  2158.33  2182.59  2187.96
                             2191.24  2207.41  2210.37  2213.30  2223.70
                             2254.02  2356.68  2413.24  2441.78  4279.44
                             4350.26  4354.55  4357.95  4371.65  4381.64
                             4387.55  4402.96  4433.07  4445.52  4475.42
                             4486.44  4496.23  4543.26  4574.63  4604.47
                             4627.45  4642.41  4999.33  5120.15  5388.20

 Zero-point correction=                           0.327528 (Hartree/Particle)
 Thermal correction to Energy=                    0.344795
 Thermal correction to Enthalpy=                  0.345739
 Thermal correction to Gibbs Free Energy=         0.281954
 Sum of electronic and zero-point Energies=           -712.943732
 Sum of electronic and thermal Energies=              -712.926466
 Sum of electronic and thermal Enthalpies=            -712.925522
 Sum of electronic and thermal Free Energies=         -712.989307

                     E (Thermal)             CV                S
                      KCal/Mol        Cal/Mol-Kelvin    Cal/Mol-Kelvin
 Total                  216.362             65.094            134.248
 Electronic               0.000              0.000              0.000
 Translational            0.889              2.981             42.111
 Rotational               0.889              2.981             33.073
 Vibrational            214.585             59.132             59.064
 Vibration     1          0.594              1.983              5.573
 Vibration     2          0.594              1.981              5.264
 Vibration     3          0.595              1.980              5.086
 Vibration     4          0.599              1.965              3.981
 Vibration     5          0.603              1.951              3.498
 Vibration     6          0.608              1.937              3.184
 Vibration     7          0.610              1.929              3.031
 Vibration     8          0.623              1.886              2.497
 Vibration     9          0.628              1.872              2.373
 Vibration    10          0.642              1.827              2.052
 Vibration    11          0.652              1.794              1.874
 Vibration    12          0.661              1.767              1.751
 Vibration    13          0.664              1.760              1.718
 Vibration    14          0.669              1.743              1.651
 Vibration    15          0.690              1.681              1.437
 Vibration    16          0.704              1.640              1.322
 Vibration    17          0.707              1.633              1.304
 Vibration    18          0.723              1.586              1.190
 Vibration    19          0.730              1.566              1.145
 Vibration    20          0.778              1.438              0.909
 Vibration    21          0.792              1.403              0.855
 Vibration    22          0.817              1.340              0.767
 Vibration    23          0.838              1.292              0.707
 Vibration    24          0.889              1.175              0.579
 Vibration    25          0.910              1.129              0.535
 Vibration    26          0.939              1.070              0.481
 Vibration    27          0.981              0.988              0.416

 Optimization completed.
    -- Stationary point found.
 Normal termination of Gaussian 16 at Thu Dec 10 22:44:47 2020.

 ----------------------------------------------------------------------
 # B3LYP/6-311++G(d,p) empiricaldispersion=gd3bj scf=xqc pop=npa geom=c
 heck
 ----------------------------------------------------------------------

 --------------------------------------
 CID_79412057_JID_6388_Energie_neutraal
 --------------------------------------
 Structure from the checkpoint file:  "JID_6388.chk"
 Charge =  0 Multiplicity = 1

 SCF Done:  E(RB3LYP) =  -713.487009992     A.U. after   16 cycles
 Normal termination of Gaussian 16 at Thu Dec 10 22:52:43 2020.

 ----------------------------------------------------------------------
 # B3LYP/6-311++G(d,p) empiricaldispersion=gd3bj scf=xqc pop=npa geom=c
 heck
 ----------------------------------------------------------------------

 ------------------------------------
 CID_79412057_JID_6388_Energie_kation
 ------------------------------------
 Structure from the checkpoint file:  "JID_6388.chk"
 Charge =  1 Multiplicity = 2

 SCF Done:  E(UB3LYP) =  -713.205429994     A.U. after   22 cycles
 Normal termination of Gaussian 16 at Thu Dec 10 23:08:08 2020.
 Gaussian 16:  ES64L-G16RevA.03 25-Dec-2016

 ----------------------------------------------------------------------
 # B3LYP/6-311++G(d,p) empiricaldispersion=gd3bj scf=xqc pop=npa geom=c
 heck
 ----------------------------------------------------------------------

 -----------------------------------
 CID_79412057_JID_6388_Energie_anion
 -----------------------------------
 Structure from the checkpoint file:  "JID_6388.chk"
 Charge = -1 Multiplicity = 2

                         Standard orientation:
 ---------------------------------------------------------------------
 Center     Atomic      Atomic             Coordinates (Angstroms)
 Number     Number       Type             X           Y           Z
 ---------------------------------------------------------------------
      1          6           0       -2.733500    2.776106    0.998041
      2          6           0       -2.733032    2.204182   -0.422803
      3          6           0       -1.746291    1.044089   -0.624199
      4          6           0       -1.996689   -0.188715    0.262150
      5          6           0       -3.428692   -0.734069    0.121886
      6          7           0       -3.735885   -1.069245   -1.276137
      7          6           0       -0.977119   -1.306955   -0.027972
      8          6           0        0.461555   -0.844008    0.044311
      9          6           0        1.063017   -0.583569    1.286083
     10          6           0        2.371187   -0.129801    1.366395
     11          6           0        3.117970    0.076413    0.196513
     12          6           0        2.538295   -0.184617   -1.048542
     13          6           0        1.219447   -0.644717   -1.108447
     14          8           0        4.395167    0.524428    0.380209
     15          6           0        5.189259    0.748076   -0.771549
     16          8           0       -1.229889   -2.330934    0.946541
     17          1           0       -3.087291    2.041890    1.729937
     18          1           0       -3.383019    3.655560    1.071258
     19          1           0       -1.722416    3.079035    1.296685
     20          1           0       -3.752463    1.890953   -0.687513
     21          1           0       -2.472408    3.001791   -1.130773
     22          1           0       -1.764531    0.732496   -1.677508
     23          1           0       -0.731610    1.413316   -0.437184
     24          1           0       -1.856269    0.094362    1.314131
     25          1           0       -3.500127   -1.652311    0.709386
     26          1           0       -4.133605   -0.010319    0.565104
     27          1           0       -4.585058   -1.628682   -1.314319
     28          1           0       -3.934212   -0.219586   -1.801337
     29          1           0       -1.187106   -1.689652   -1.036870
     30          1           0        0.491556   -0.755810    2.193250
     31          1           0        2.843391    0.072086    2.322671
     32          1           0        3.096188   -0.042775   -1.966597
     33          1           0        0.774375   -0.847613   -2.079785
     34          1           0        5.334102   -0.175827   -1.347323
     35          1           0        4.745872    1.511110   -1.425190
     36          1           0        6.155323    1.101603   -0.407141
     37          1           0       -0.574165   -3.029351    0.796875
 ---------------------------------------------------------------------

 SCF Done:  E(UB3LYP) =  -713.474660075     A.U. after   33 cycles
 SCF Done:  E(UB3LYP) =  -713.474660075     a.u. after    1 cycles

 The electronic state is 2-A.
 Alpha  occ. eigenvalues --  -19.06469 -19.03344 -14.19734 -10.14585 -10.12902
 Alpha  occ. eigenvalues --  -10.12749 -10.09153 -10.08712 -10.08636 -10.08409
 Alpha  occ. eigenvalues --  -10.08374 -10.08313 -10.07727 -10.07424 -10.06985
 Alpha  occ. eigenvalues --  -10.06797  -0.98061  -0.93479  -0.78918  -0.76872
 Alpha  occ. eigenvalues --   -0.71358  -0.68166  -0.66362  -0.65257  -0.61347
 Alpha  occ. eigenvalues --   -0.58401  -0.56032  -0.52746  -0.51067  -0.49426
 Alpha  occ. eigenvalues --   -0.45546  -0.44673  -0.42656  -0.40729  -0.39917
 Alpha  occ. eigenvalues --   -0.38616  -0.37928  -0.36551  -0.35908  -0.35348
 Alpha  occ. eigenvalues --   -0.34293  -0.33809  -0.32794  -0.32245  -0.31409
 Alpha  occ. eigenvalues --   -0.29733  -0.29559  -0.28756  -0.27638  -0.27265
 Alpha  occ. eigenvalues --   -0.25798  -0.25226  -0.24143  -0.23524  -0.22919
 Alpha  occ. eigenvalues --   -0.22505  -0.22364  -0.19175  -0.16937  -0.15139
 Alpha  occ. eigenvalues --   -0.13144   0.03955
 Alpha virt. eigenvalues --    0.05266   0.06748   0.07005   0.07160   0.07292
 Alpha virt. eigenvalues --    0.08174   0.08304   0.08639   0.09188   0.09568
 Alpha virt. eigenvalues --    0.09915   0.10471   0.10571   0.11042   0.12297

  Beta  occ. eigenvalues --  -19.06459 -19.03338 -14.19698 -10.14583 -10.12849
  Beta  occ. eigenvalues --  -10.12744 -10.09139 -10.08706 -10.08628 -10.08408
  Beta  occ. eigenvalues --  -10.08358 -10.08314 -10.07726 -10.07402 -10.06971
  Beta  occ. eigenvalues --  -10.06789  -0.98039  -0.93464  -0.78863  -0.76859
  Beta  occ. eigenvalues --   -0.71331  -0.68144  -0.66341  -0.65226  -0.61293
  Beta  occ. eigenvalues --   -0.58367  -0.55987  -0.52721  -0.51018  -0.49395
  Beta  occ. eigenvalues --   -0.45515  -0.44636  -0.42631  -0.40702  -0.39889
  Beta  occ. eigenvalues --   -0.38586  -0.37893  -0.36526  -0.35885  -0.35321
  Beta  occ. eigenvalues --   -0.34241  -0.33785  -0.32757  -0.32222  -0.31388
  Beta  occ. eigenvalues --   -0.29713  -0.29542  -0.28731  -0.27610  -0.27237
  Beta  occ. eigenvalues --   -0.25774  -0.25203  -0.24111  -0.23504  -0.22895
  Beta  occ. eigenvalues --   -0.22489  -0.22347  -0.19164  -0.16920  -0.15105
  Beta  occ. eigenvalues --   -0.13127
  Beta virt. eigenvalues --    0.05947   0.06541   0.07073   0.07162   0.07207
  Beta virt. eigenvalues --    0.07912   0.08288   0.08513   0.08935   0.09659
  Beta virt. eigenvalues --    0.09817   0.10439   0.10692   0.10932   0.11240

 Mulliken charges and spin densities:
               1          2
     1  C    0.019995  -0.596581
     2  C   -0.040720  -0.318769
     3  C   -1.035841   0.416591
     4  C    0.409290   0.653719
     5  C    0.826277  -1.788870
     6  N   -0.573570   0.221587
     7  C    0.742525  -1.399302
     8  C    1.014924  -0.237862
     9  C   -0.288576   0.113095
    10  C   -0.945530   0.603787
    11  C   -0.618068  -0.139249
    12  C    0.854601  -0.802268
    13  C   -0.977384   0.819811
    14  O   -0.213224   0.059417
    15  C    1.033076  -1.380653
    16  O   -0.204610   0.011313
    17  H    0.003921   0.140568
    18  H   -0.140750   0.284754
    19  H    0.087114   0.047549
    20  H   -0.202401   0.330187
    21  H   -0.280955   0.448069
    22  H    0.095515   0.077257
    23  H    0.320499  -0.160470
    24  H    0.388163  -0.205621
    25  H    0.114893   0.093712
    26  H   -0.056386   0.188007
    27  H   -0.092935   0.333040
    28  H   -0.016708   0.235024
    29  H    0.349070  -0.099348
    30  H    0.060013   0.120504
    31  H    0.063355   0.119941
    32  H   -0.417834   0.642011
    33  H   -0.357087   0.514430
    34  H   -0.291015   0.446793
    35  H   -0.298138   0.457939
    36  H   -0.505792   0.680424
    37  H    0.174290   0.069464
 Sum of Mulliken charges =  -1.00000   1.00000

 Dipole moment (field-independent basis, Debye):
    X=             -2.0026    Y=             -2.0503    Z=              4.4345  Tot=              5.2800
 Quadrupole moment (field-independent basis, Debye-Ang):
   XX=           -219.6386   YY=           -138.4399   ZZ=           -135.7705
   XY=             -5.2076   XZ=              6.2308   YZ=              1.6722

 Summary of Natural Population Analysis:

                                       Natural Population
                Natural  -----------------------------------------------
    Atom  No    Charge         Core      Valence    Rydberg      Total
 -----------------------------------------------------------------------
      C    1   -0.28625      0.99966     2.28225    0.00434     3.28625
      C    2   -0.18993      0.99964     2.18211    0.00818     3.18993
      C    3   -0.19632      0.99961     2.18674    0.00997     3.19632
      C    4   -0.11651      0.99957     2.10413    0.01281     3.11651
      C    5   -0.09271      0.99960     2.08073    0.01237     3.09271
      N    6   -0.42713      0.99977     2.91659    0.01077     3.92713
      C    7    0.05868      0.99947     1.92779    0.01406     2.94132
      C    8   -0.04908      0.99949     2.03762    0.01198     3.04908
      C    9   -0.09259      0.99951     2.08471    0.00837     3.09259
      C   10   -0.11903      0.99952     2.11016    0.00935     3.11903
      C   11    0.15980      0.99938     1.82653    0.01429     2.84020
      C   12   -0.14223      0.99952     2.13340    0.00932     3.14223
      C   13   -0.08694      0.99952     2.07750    0.00992     3.08694
      O   14   -0.27332      0.99986     3.26351    0.00995     4.27332
      C   15   -0.10104      0.99960     2.09233    0.00910     3.10104
      O   16   -0.37311      0.99990     3.36761    0.00561     4.37311
      H   17    0.09529      0.00000     0.40369    0.00102     0.40471
      H   18    0.09785      0.00000     0.40128    0.00088     0.40215
      H   19    0.09603      0.00000     0.40294    0.00102     0.40397
      H   20    0.09292      0.00000     0.40551    0.00157     0.40708
      H   21    0.09679      0.00000     0.40219    0.00102     0.40321
      H   22    0.10040      0.00000     0.39807    0.00152     0.39960
      H   23    0.10375      0.00000     0.39483    0.00142     0.39625
      H   24    0.09976      0.00000     0.39829    0.00195     0.40024
      H   25    0.10180      0.00000     0.39689    0.00131     0.39820
      H   26    0.08090      0.00000     0.41767    0.00143     0.41910
      H   27    0.17698      0.00000     0.32124    0.00178     0.32302
      H   28    0.17392      0.00000     0.32402    0.00206     0.32608
      H   29    0.09214      0.00000     0.40543    0.00243     0.40786
      H   30    0.10596      0.00000     0.39297    0.00107     0.39404
      H   31    0.10487      0.00000     0.39407    0.00106     0.39513
      H   32    0.10929      0.00000     0.38901    0.00170     0.39071
      H   33    0.10282      0.00000     0.39591    0.00128     0.39718
      H   34    0.08613      0.00000     0.41166    0.00220     0.41387
      H   35    0.08658      0.00000     0.41140    0.00202     0.41342
      H   36    0.09468      0.00000     0.40385    0.00146     0.40532
      H   37    0.22885      0.00000     0.26870    0.00245     0.27115
 =======================================================================
   * Total *    0.00000     15.99362    44.81334    0.19304    61.00000

 Normal termination of Gaussian 16 at Thu Dec 10 23:30:58 2020.
