 Gaussian 16, Revision A.03,

 -----------------------------------------------------------
 # opt freq B3LYP/6-31G(d) empiricaldispersion=gd3bj scf=xqc
 -----------------------------------------------------------

 -------------------------------
 CID_116507033_JID_8782_neutraal
 -------------------------------
 Symbolic Z-matrix:
 Charge =  0 Multiplicity = 1

 SCF Done:  E(RB3LYP) =  -717.635865380     A.U. after   14 cycles
 SCF Done:  E(RB3LYP) =  -717.646705911     A.U. after   12 cycles
 SCF Done:  E(RB3LYP) =  -717.648319067     A.U. after   12 cycles
 SCF Done:  E(RB3LYP) =  -717.650379816     A.U. after   15 cycles
 SCF Done:  E(RB3LYP) =  -717.651830214     A.U. after   11 cycles
 SCF Done:  E(RB3LYP) =  -717.652534590     A.U. after   12 cycles
 SCF Done:  E(RB3LYP) =  -717.652765405     A.U. after   12 cycles
 SCF Done:  E(RB3LYP) =  -717.652992960     A.U. after   12 cycles
 SCF Done:  E(RB3LYP) =  -717.653034186     A.U. after   11 cycles
 SCF Done:  E(RB3LYP) =  -717.653238566     A.U. after   12 cycles
 SCF Done:  E(RB3LYP) =  -717.653325848     A.U. after    9 cycles
 SCF Done:  E(RB3LYP) =  -717.653325714     A.U. after    8 cycles
 SCF Done:  E(RB3LYP) =  -717.653326330     A.U. after    9 cycles
 SCF Done:  E(RB3LYP) =  -717.653326633     A.U. after    8 cycles
 SCF Done:  E(RB3LYP) =  -717.653326680     A.U. after    7 cycles
 Optimization completed.
    -- Stationary point found.
 Normal termination of Gaussian 16 at Fri Dec 11 21:13:00 2020.

 --------------------------------------------------------------------
 #N Geom=AllCheck Guess=TCheck SCRF=Check GenChk RB3LYP/6-31G(d) Freq
 --------------------------------------------------------------------

 Structure from the checkpoint file:  "JID_8782.chk"
 -------------------------------
 CID_116507033_JID_8782_neutraal
 -------------------------------
 Charge =  0 Multiplicity = 1

 SCF Done:  E(RB3LYP) =  -717.653326680     A.U. after    1 cycles

  Exact polarizability: 294.091  -8.380 182.275  10.383   7.916 120.446
 Approx polarizability: 371.597  -1.716 282.804  24.238  16.982 177.943

                      1                      2                      3
                      A                      A                      A
 Frequencies --     12.0452                21.9001                34.9522
 Red. masses --      3.1647                 3.2195                 4.0233
 Frc consts  --      0.0003                 0.0009                 0.0029
 IR Inten    --      0.0166                 0.0216                 0.1076

                      4                      5                      6
                      A                      A                      A
 Frequencies --     41.4848                58.9930                68.8219
 Red. masses --      2.9071                 3.0405                 3.0331
 Frc consts  --      0.0029                 0.0062                 0.0085
 IR Inten    --      0.0193                 0.0883                 0.0762

                      7                      8                      9
                      A                      A                      A
 Frequencies --     84.3312               121.0906               121.2981
 Red. masses --      3.3849                 3.1209                 2.9203
 Frc consts  --      0.0142                 0.0270                 0.0253
 IR Inten    --      0.1266                 0.4588                 0.3184

                     10                     11                     12
                      A                      A                      A
 Frequencies --    184.2376               204.2545               229.6399
 Red. masses --      2.9737                 2.5662                 1.0427
 Frc consts  --      0.0595                 0.0631                 0.0324
 IR Inten    --      0.4567                 0.8814                 0.2740

                     13                     14                     15
                      A                      A                      A
 Frequencies --    241.9362               257.4276               271.1739
 Red. masses --      2.5317                 1.3882                 2.4891
 Frc consts  --      0.0873                 0.0542                 0.1078
 IR Inten    --      0.3876                 1.2442                 0.2668

                     16                     17                     18
                      A                      A                      A
 Frequencies --    292.2875               321.4147               366.3188
 Red. masses --      3.3667                 2.1506                 2.3722
 Frc consts  --      0.1695                 0.1309                 0.1875
 IR Inten    --      1.3071                 2.8820                 0.5559

                     19                     20                     21
                      A                      A                      A
 Frequencies --    383.8344               398.0829               412.5978
 Red. masses --      2.4223                 2.7875                 2.9774
 Frc consts  --      0.2103                 0.2603                 0.2986
 IR Inten    --      1.3119                 0.1102                 0.3534

                     22                     23                     24
                      A                      A                      A
 Frequencies --    433.7581               452.8706               486.0542
 Red. masses --      2.8619                 2.6194                 2.7726
 Frc consts  --      0.3172                 0.3165                 0.3859
 IR Inten    --      3.1851                 4.4991                 0.4018

                     25                     26                     27
                      A                      A                      A
 Frequencies --    543.3068               549.0866               577.2741
 Red. masses --      2.3169                 2.4174                 2.4584
 Frc consts  --      0.4029                 0.4294                 0.4827
 IR Inten    --      2.9751                 2.4330                 7.6964

                     28                     29                     30
                      A                      A                      A
 Frequencies --    646.3828               661.3165               680.7430
 Red. masses --      3.6544                 4.5447                 1.7419
 Frc consts  --      0.8996                 1.1711                 0.4756
 IR Inten    --      1.0848                 0.7206               118.4298

                     31                     32                     33
                      A                      A                      A
 Frequencies --    739.5386               746.1851               787.0010
 Red. masses --      3.1262                 1.8017                 1.6618
 Frc consts  --      1.0074                 0.5911                 0.6064
 IR Inten    --      2.5448                 0.6189                14.1735

                     34                     35                     36
                      A                      A                      A
 Frequencies --    796.9255               829.1369               841.7847
 Red. masses --      1.3124                 1.6140                 2.7833
 Frc consts  --      0.4911                 0.6537                 1.1620
 IR Inten    --      1.9453                23.7491                 0.6044

                     37                     38                     39
                      A                      A                      A
 Frequencies --    844.3135               872.7317               881.9753
 Red. masses --      1.3367                 2.0658                 2.2054
 Frc consts  --      0.5614                 0.9270                 1.0107
 IR Inten    --      1.0646                 6.0669                12.5130

                     40                     41                     42
                      A                      A                      A
 Frequencies --    889.6480               902.8885               929.2061
 Red. masses --      2.5290                 2.2947                 2.3010
 Frc consts  --      1.1793                 1.1021                 1.1706
 IR Inten    --      4.5623                10.5145                 0.8075

                     43                     44                     45
                      A                      A                      A
 Frequencies --    932.2943               942.7734               947.1306
 Red. masses --      1.2825                 1.9860                 1.4111
 Frc consts  --      0.6568                 1.0400                 0.7458
 IR Inten    --      1.4390                 0.8895                 0.3712

                     46                     47                     48
                      A                      A                      A
 Frequencies --    947.5172               956.2425               965.2171
 Red. masses --      1.7007                 1.3669                 1.9734
 Frc consts  --      0.8996                 0.7364                 1.0832
 IR Inten    --      0.1357                 0.0518                 3.8146

                     49                     50                     51
                      A                      A                      A
 Frequencies --    968.0680              1015.9216              1019.6875
 Red. masses --      1.3157                 1.1124                 3.4008
 Frc consts  --      0.7265                 0.6764                 2.0834
 IR Inten    --      0.6352                18.5586                 2.5431

                     52                     53                     54
                      A                      A                      A
 Frequencies --   1040.9750              1041.2293              1049.8174
 Red. masses --      1.7566                 2.4066                 1.7039
 Frc consts  --      1.1215                 1.5373                 1.1064
 IR Inten    --      0.0467                 0.7637                 1.5340

                     55                     56                     57
                      A                      A                      A
 Frequencies --   1103.6764              1121.7650              1149.3037
 Red. masses --      2.9500                 2.0336                 2.0586
 Frc consts  --      2.1172                 1.5077                 1.6021
 IR Inten    --     37.7312                 2.6656                18.4826

                     58                     59                     60
                      A                      A                      A
 Frequencies --   1152.6218              1162.0348              1174.5654
 Red. masses --      2.3779                 1.5982                 1.5675
 Frc consts  --      1.8613                 1.2715                 1.2741
 IR Inten    --     33.1297                12.5979                 8.2133

                     61                     62                     63
                      A                      A                      A
 Frequencies --   1208.9963              1215.6051              1220.7966
 Red. masses --      1.9728                 1.3270                 1.1924
 Frc consts  --      1.6989                 1.1553                 1.0470
 IR Inten    --     47.0895                 0.3496                 0.2299

                     64                     65                     66
                      A                      A                      A
 Frequencies --   1238.4944              1245.7134              1255.0776
 Red. masses --      1.3974                 1.5059                 1.5888
 Frc consts  --      1.2629                 1.3768                 1.4746
 IR Inten    --     11.3694                 0.3479                 5.2494

                     67                     68                     69
                      A                      A                      A
 Frequencies --   1257.5990              1265.7775              1274.6280
 Red. masses --      2.4754                 1.2937                 1.1798
 Frc consts  --      2.3066                 1.2212                 1.1293
 IR Inten    --      3.8104                 0.0016                 0.4865

                     70                     71                     72
                      A                      A                      A
 Frequencies --   1288.4371              1293.1728              1300.6270
 Red. masses --      1.6078                 1.4622                 1.3615
 Frc consts  --      1.5725                 1.4407                 1.3570
 IR Inten    --      3.7334                 5.0874                 0.2289

                     73                     74                     75
                      A                      A                      A
 Frequencies --   1331.1241              1342.4807              1345.5512
 Red. masses --      2.2433                 1.5120                 1.5254
 Frc consts  --      2.3419                 1.6056                 1.6272
 IR Inten    --      0.6386                 9.8569                 0.9201

                     76                     77                     78
                      A                      A                      A
 Frequencies --   1359.0916              1370.2121              1388.6322
 Red. masses --      1.3514                 1.3541                 1.5540
 Frc consts  --      1.4707                 1.4979                 1.7656
 IR Inten    --     12.1857                10.5356                 1.9191

                     79                     80                     81
                      A                      A                      A
 Frequencies --   1398.7310              1409.7618              1416.0368
 Red. masses --      1.1837                 1.7819                 1.2937
 Frc consts  --      1.3645                 2.0866                 1.5283
 IR Inten    --     14.2948                 6.2392                22.6264

                     82                     83                     84
                      A                      A                      A
 Frequencies --   1424.7001              1443.6136              1472.9096
 Red. masses --      1.2729                 1.2429                 2.3797
 Frc consts  --      1.5222                 1.5261                 3.0417
 IR Inten    --      2.5614                13.5572                 5.1196

                     85                     86                     87
                      A                      A                      A
 Frequencies --   1502.7884              1505.1943              1509.5894
 Red. masses --      1.1193                 1.0994                 1.0890
 Frc consts  --      1.4893                 1.4676                 1.4622
 IR Inten    --      7.8553                 7.2823                 0.3054

                     88                     89                     90
                      A                      A                      A
 Frequencies --   1513.1333              1514.7530              1516.7035
 Red. masses --      1.0893                 1.0477                 1.0849
 Frc consts  --      1.4694                 1.4164                 1.4704
 IR Inten    --      9.8861                 0.2752                 2.8270

                     91                     92                     93
                      A                      A                      A
 Frequencies --   1524.2502              1537.7164              1541.2779
 Red. masses --      1.1023                 1.0644                 1.1479
 Frc consts  --      1.5089                 1.4829                 1.6067
 IR Inten    --     23.0643                 3.5073                 2.1316

                     94                     95                     96
                      A                      A                      A
 Frequencies --   1541.4496              1566.8495              1622.0874
 Red. masses --      1.1100                 2.4574                 5.7153
 Frc consts  --      1.5540                 3.5546                 8.8601
 IR Inten    --     26.9818                21.3000                 0.2275

                     97                     98                     99
                      A                      A                      A
 Frequencies --   1673.9852              1731.3152              3028.7829
 Red. masses --      5.7213                 5.6516                 1.0603
 Frc consts  --      9.4460                 9.9809                 5.7307
 IR Inten    --      1.4510                 0.8004                28.4784

                    100                    101                    102
                      A                      A                      A
 Frequencies --   3032.3286              3037.0197              3038.6988
 Red. masses --      1.0708                 1.0475                 1.0625
 Frc consts  --      5.8012                 5.6927                 5.7801
 IR Inten    --     18.0733                 9.5095                56.5160

                    103                    104                    105
                      A                      A                      A
 Frequencies --   3045.1804              3059.4499              3068.2807
 Red. masses --      1.0425                 1.0847                 1.0999
 Frc consts  --      5.6960                 5.9817                 6.1012
 IR Inten    --     38.6034                15.3605                37.6454

                    106                    107                    108
                      A                      A                      A
 Frequencies --   3068.9935              3070.0795              3075.5126
 Red. masses --      1.0570                 1.0581                 1.0627
 Frc consts  --      5.8655                 5.8758                 5.9226
 IR Inten    --     64.4130                36.5333                22.8490

                    109                    110                    111
                      A                      A                      A
 Frequencies --   3083.7023              3096.1265              3107.5407
 Red. masses --      1.1058                 1.1001                 1.1000
 Frc consts  --      6.1952                 6.2134                 6.2588
 IR Inten    --     60.2727                 7.9061                93.5639

                    112                    113                    114
                      A                      A                      A
 Frequencies --   3111.4274              3120.8202              3133.1361
 Red. masses --      1.1073                 1.1091                 1.1077
 Frc consts  --      6.3158                 6.3646                 6.4069
 IR Inten    --     25.7743                19.9804                75.2281

                    115                    116                    117
                      A                      A                      A
 Frequencies --   3136.5743              3137.7271              3139.6574
 Red. masses --      1.1009                 1.0888                 1.0980
 Frc consts  --      6.3814                 6.3156                 6.3770
 IR Inten    --     28.0643                13.8925                45.2965

                    118                    119                    120
                      A                      A                      A
 Frequencies --   3162.8043              3171.9332              3178.1750
 Red. masses --      1.0865                 1.0865                 1.0868
 Frc consts  --      6.4038                 6.4408                 6.4676
 IR Inten    --     20.8228                22.6569                10.4174

                    121                    122                    123
                      A                      A                      A
 Frequencies --   3189.5470              3201.3854              3508.3673
 Red. masses --      1.0940                 1.0925                 1.0735
 Frc consts  --      6.5572                 6.5968                 7.7849
 IR Inten    --     33.7454                14.9031                 0.5619

 - Thermochemistry -
 -------------------
 Temperature   298.150 Kelvin.  Pressure   1.00000 Atm.
 Atom     1 has atomic number  6 and mass  12.00000

 Molecular mass:   243.19870 amu.
 Principal axes and moments of inertia in atomic units:
                           1         2         3
     Eigenvalues --  2050.06324********************
           X            1.00000   0.00111   0.00177
           Y           -0.00113   0.99997   0.00816
           Z           -0.00176  -0.00816   0.99997
 This molecule is an asymmetric top.
 Rotational symmetry number  1.
 Warning -- assumption of classical behavior for rotation
           may cause significant error
 Rotational temperatures (Kelvin)      0.04225     0.00613     0.00562
 Rotational constants (GHZ):           0.88033     0.12766     0.11709
 Zero-point vibrational energy    1013734.7 (Joules/Mol)
                                  242.28841 (Kcal/Mol)
 Warning -- explicit consideration of  27 degrees of freedom as
           vibrations may cause significant error
 Vibrational temperatures:     17.33    31.51    50.29    59.69    84.88
          (Kelvin)             99.02   121.33   174.22   174.52   265.08
                              293.88   330.40   348.09   370.38   390.16
                              420.54   462.44   527.05   552.25   572.75
                              593.64   624.08   651.58   699.32   781.70
                              790.01   830.57   930.00   951.49   979.44
                             1064.03  1073.59  1132.32  1146.60  1192.94
                             1211.14  1214.78  1255.67  1268.97  1280.01
                             1299.06  1336.92  1341.36  1356.44  1362.71
                             1363.27  1375.82  1388.73  1392.83  1461.68
                             1467.10  1497.73  1498.10  1510.45  1587.94
                             1613.97  1653.59  1658.37  1671.91  1689.94
                             1739.48  1748.98  1756.45  1781.92  1792.30
                             1805.78  1809.40  1821.17  1833.91  1853.77
                             1860.59  1871.31  1915.19  1931.53  1935.95
                             1955.43  1971.43  1997.93  2012.46  2028.33
                             2037.36  2049.83  2077.04  2119.19  2162.18
                             2165.64  2171.96  2177.06  2179.39  2182.20
                             2193.06  2212.43  2217.56  2217.80  2254.35
                             2333.82  2408.49  2490.98  4357.74  4362.84
                             4369.59  4372.01  4381.34  4401.87  4414.57
                             4415.60  4417.16  4424.98  4436.76  4454.64
                             4471.06  4476.65  4490.16  4507.88  4512.83
                             4514.49  4517.27  4550.57  4563.70  4572.68
                             4589.05  4606.08  5047.76

 Zero-point correction=                           0.386111 (Hartree/Particle)
 Thermal correction to Energy=                    0.404894
 Thermal correction to Enthalpy=                  0.405838
 Thermal correction to Gibbs Free Energy=         0.335612
 Sum of electronic and zero-point Energies=           -717.267216
 Sum of electronic and thermal Energies=              -717.248433
 Sum of electronic and thermal Enthalpies=            -717.247489
 Sum of electronic and thermal Free Energies=         -717.317715

                     E (Thermal)             CV                S
                      KCal/Mol        Cal/Mol-Kelvin    Cal/Mol-Kelvin
 Total                  254.075             71.418            147.803
 Electronic               0.000              0.000              0.000
 Translational            0.889              2.981             42.367
 Rotational               0.889              2.981             34.456
 Vibrational            252.297             65.456             70.980
 Vibration     1          0.593              1.987              7.641
 Vibration     2          0.593              1.985              6.454
 Vibration     3          0.594              1.982              5.526
 Vibration     4          0.594              1.981              5.187
 Vibration     5          0.596              1.974              4.491
 Vibration     6          0.598              1.969              4.187
 Vibration     7          0.601              1.960              3.787
 Vibration     8          0.609              1.932              3.083
 Vibration     9          0.609              1.931              3.080
 Vibration    10          0.631              1.861              2.285
 Vibration    11          0.640              1.834              2.094
 Vibration    12          0.652              1.796              1.882
 Vibration    13          0.658              1.776              1.789
 Vibration    14          0.667              1.750              1.679
 Vibration    15          0.675              1.726              1.589
 Vibration    16          0.688              1.688              1.461
 Vibration    17          0.707              1.633              1.303
 Vibration    18          0.739              1.542              1.095
 Vibration    19          0.753              1.505              1.024
 Vibration    20          0.764              1.474              0.970
 Vibration    21          0.776              1.443              0.917
 Vibration    22          0.794              1.397              0.846
 Vibration    23          0.811              1.355              0.787
 Vibration    24          0.842              1.281              0.694
 Vibration    25          0.898              1.154              0.558
 Vibration    26          0.904              1.142              0.546
 Vibration    27          0.934              1.080              0.490

 Optimization completed.
    -- Stationary point found.
 Normal termination of Gaussian 16 at Fri Dec 11 21:28:26 2020.

 ----------------------------------------------------------------------
 # B3LYP/6-311++G(d,p) empiricaldispersion=gd3bj scf=xqc pop=npa geom=c
 heck
 ----------------------------------------------------------------------

 ---------------------------------------
 CID_116507033_JID_8782_Energie_neutraal
 ---------------------------------------
 Structure from the checkpoint file:  "JID_8782.chk"
 Charge =  0 Multiplicity = 1

 SCF Done:  E(RB3LYP) =  -717.844995340     A.U. after   14 cycles
 Normal termination of Gaussian 16 at Fri Dec 11 21:35:23 2020.

 ----------------------------------------------------------------------
 # B3LYP/6-311++G(d,p) empiricaldispersion=gd3bj scf=xqc pop=npa geom=c
 heck
 ----------------------------------------------------------------------

 -------------------------------------
 CID_116507033_JID_8782_Energie_kation
 -------------------------------------
 Structure from the checkpoint file:  "JID_8782.chk"
 Charge =  1 Multiplicity = 2

 SCF Done:  E(UB3LYP) =  -717.579031608     A.U. after   21 cycles
 Normal termination of Gaussian 16 at Fri Dec 11 21:49:47 2020.
 Gaussian 16:  ES64L-G16RevA.03 25-Dec-2016

 ----------------------------------------------------------------------
 # B3LYP/6-311++G(d,p) empiricaldispersion=gd3bj scf=xqc pop=npa geom=c
 heck
 ----------------------------------------------------------------------

 ------------------------------------
 CID_116507033_JID_8782_Energie_anion
 ------------------------------------
 Structure from the checkpoint file:  "JID_8782.chk"
 Charge = -1 Multiplicity = 2

                         Standard orientation:
 ---------------------------------------------------------------------
 Center     Atomic      Atomic             Coordinates (Angstroms)
 Number     Number       Type             X           Y           Z
 ---------------------------------------------------------------------
      1          6           0        5.902940    2.145763   -0.661650
      2          6           0        5.155260    1.018137    0.060836
      3          6           0        4.323523    1.591012    1.222727
      4          7           0        4.387257    0.252482   -0.926750
      5          6           0        4.184448   -1.170048   -0.699994
      6          6           0        3.302523   -1.616413    0.497744
      7          6           0        1.920185   -1.038540    0.454220
      8          6           0        0.806190   -1.750006    0.225991
      9          6           0       -0.570036   -1.248691    0.135429
     10          6           0       -1.608356   -2.148865   -0.148876
     11          6           0       -2.930196   -1.721804   -0.249548
     12          6           0       -3.272964   -0.378145   -0.069251
     13          6           0       -2.235708    0.524290    0.217946
     14          6           0       -0.917222    0.103026    0.318782
     15          6           0       -4.699053    0.080415   -0.178178
     16          6           0       -5.344872    0.902840    0.979925
     17          6           0       -6.100578    1.741390   -0.082076
     18          6           0       -5.069122    1.257795   -1.132923
     19          1           0        5.189930    2.846155   -1.115451
     20          1           0        6.525572    1.736543   -1.462101
     21          1           0        6.536510    2.713947    0.029678
     22          1           0        5.899388    0.324177    0.475299
     23          1           0        3.545898    2.263318    0.835627
     24          1           0        3.832403    0.807726    1.806059
     25          1           0        4.951080    2.176036    1.905532
     26          1           0        3.508020    0.718118   -1.138747
     27          1           0        3.740596   -1.583295   -1.614337
     28          1           0        5.174368   -1.632474   -0.592314
     29          1           0        3.247417   -2.712952    0.487479
     30          1           0        3.801684   -1.335457    1.435305
     31          1           0        1.848970    0.039116    0.594033
     32          1           0        0.908346   -2.827330    0.087538
     33          1           0       -1.371119   -3.200192   -0.294167
     34          1           0       -3.711677   -2.444664   -0.472086
     35          1           0       -2.466253    1.576343    0.366413
     36          1           0       -0.145905    0.832866    0.546176
     37          1           0       -5.338079   -0.780384   -0.406192
     38          1           0       -5.930058    0.348945    1.720587
     39          1           0       -4.592070    1.499475    1.505541
     40          1           0       -6.186579    2.818775    0.087681
     41          1           0       -7.099464    1.338884   -0.280093
     42          1           0       -4.234550    1.959511   -1.233164
     43          1           0       -5.427006    0.996499   -2.133659
 ---------------------------------------------------------------------

 SCF Done:  E(UB3LYP) =  -717.838503329     A.U. after   33 cycles
 SCF Done:  E(UB3LYP) =  -717.838503329     a.u. after    1 cycles

 The electronic state is 2-A.
 Alpha  occ. eigenvalues --  -14.18601 -10.09984 -10.08189 -10.08091 -10.07752
 Alpha  occ. eigenvalues --  -10.07494 -10.07363 -10.06078 -10.06005 -10.05258
 Alpha  occ. eigenvalues --  -10.05217 -10.04877 -10.04702 -10.04647 -10.04565
 Alpha  occ. eigenvalues --  -10.04338 -10.03495 -10.03001  -0.80005  -0.75946
 Alpha  occ. eigenvalues --   -0.73046  -0.68459  -0.66492  -0.63688  -0.62372
 Alpha  occ. eigenvalues --   -0.59189  -0.58708  -0.56741  -0.55317  -0.51171
 Alpha  occ. eigenvalues --   -0.49301  -0.48828  -0.47308  -0.44629  -0.42581
 Alpha  occ. eigenvalues --   -0.40151  -0.39013  -0.38058  -0.36550  -0.36073
 Alpha  occ. eigenvalues --   -0.33990  -0.33077  -0.32833  -0.31990  -0.31098
 Alpha  occ. eigenvalues --   -0.29947  -0.29836  -0.29355  -0.28986  -0.28487
 Alpha  occ. eigenvalues --   -0.28245  -0.28039  -0.26559  -0.25314  -0.24718
 Alpha  occ. eigenvalues --   -0.24550  -0.23923  -0.23186  -0.22581  -0.22078
 Alpha  occ. eigenvalues --   -0.21486  -0.21162  -0.20201  -0.16856  -0.13645
 Alpha  occ. eigenvalues --   -0.11695  -0.09408   0.04535
 Alpha virt. eigenvalues --    0.06061   0.06409   0.07535   0.07805   0.08302
 Alpha virt. eigenvalues --    0.08464   0.08575   0.09412   0.09517   0.10362
 Alpha virt. eigenvalues --    0.10393   0.10720   0.11014   0.11318   0.11476

  Beta  occ. eigenvalues --  -14.18584 -10.09969 -10.08152 -10.08086 -10.07770
  Beta  occ. eigenvalues --  -10.07470 -10.07325 -10.06068 -10.05989 -10.05278
  Beta  occ. eigenvalues --  -10.05267 -10.04854 -10.04611 -10.04480 -10.04420
  Beta  occ. eigenvalues --  -10.04231 -10.03432 -10.02735  -0.79973  -0.75844
  Beta  occ. eigenvalues --   -0.72834  -0.68258  -0.66271  -0.63434  -0.62202
  Beta  occ. eigenvalues --   -0.59060  -0.58638  -0.56687  -0.55173  -0.51020
  Beta  occ. eigenvalues --   -0.49203  -0.48716  -0.47149  -0.44551  -0.42290
  Beta  occ. eigenvalues --   -0.40072  -0.38977  -0.37986  -0.36483  -0.35959
  Beta  occ. eigenvalues --   -0.33883  -0.32993  -0.32758  -0.31921  -0.30998
  Beta  occ. eigenvalues --   -0.29909  -0.29805  -0.29284  -0.28953  -0.28343
  Beta  occ. eigenvalues --   -0.27995  -0.27955  -0.26492  -0.25239  -0.24641
  Beta  occ. eigenvalues --   -0.24108  -0.23843  -0.23140  -0.22527  -0.21890
  Beta  occ. eigenvalues --   -0.21359  -0.21074  -0.20105  -0.15917  -0.13166
  Beta  occ. eigenvalues --   -0.11541  -0.08329
  Beta virt. eigenvalues --    0.06056   0.06652   0.07492   0.07930   0.08229
  Beta virt. eigenvalues --    0.08312   0.08595   0.09053   0.09457   0.09592
  Beta virt. eigenvalues --    0.10390   0.10468   0.10772   0.11016   0.11289

 Mulliken charges and spin densities:
               1          2
     1  C    0.153715  -0.639690
     2  C   -0.243434   0.036608
     3  C   -0.182187  -0.288053
     4  N   -0.041859   0.058546
     5  C   -0.121840  -0.363643
     6  C   -0.377258   0.356770
     7  C    0.444957  -0.017536
     8  C   -0.183793  -0.114584
     9  C    1.502516  -0.138457
    10  C   -0.377117  -0.004953
    11  C   -0.530709   0.021590
    12  C    0.642471   0.137463
    13  C   -1.027324   0.063306
    14  C   -0.786830   0.159930
    15  C   -0.307991   0.056781
    16  C   -0.161949  -0.166123
    17  C   -0.256170  -0.073173
    18  C   -0.363161   0.034468
    19  H    0.020740   0.100686
    20  H   -0.002629   0.155681
    21  H   -0.075573   0.191018
    22  H   -0.171902   0.304652
    23  H    0.130404   0.002575
    24  H    0.134044   0.023520
    25  H   -0.104960   0.240898
    26  H    0.151947   0.076176
    27  H    0.129406   0.031197
    28  H   -0.231902   0.358295
    29  H   -0.004216   0.153230
    30  H    0.025159   0.123493
    31  H    0.158181  -0.210763
    32  H    0.077107  -0.015986
    33  H    0.092293   0.023288
    34  H    0.089822   0.000765
    35  H    0.164393   0.014280
    36  H   -0.062154   0.072945
    37  H    0.151405   0.031209
    38  H    0.022656   0.115426
    39  H    0.105450   0.017769
    40  H    0.093400   0.051793
    41  H    0.070464   0.017822
    42  H    0.122113   0.000647
    43  H    0.132312   0.000132
 Sum of Mulliken charges =  -1.00000   1.00000

 Dipole moment (field-independent basis, Debye):
    X=             -5.8025    Y=              0.9885    Z=             -0.5469  Tot=              5.9115
 Quadrupole moment (field-independent basis, Debye-Ang):
   XX=           -226.5398   YY=           -136.1052   ZZ=           -136.4654
   XY=             -1.4741   XZ=              4.4414   YZ=              1.2827

 Summary of Natural Population Analysis:

                                       Natural Population
                Natural  -----------------------------------------------
    Atom  No    Charge         Core      Valence    Rydberg      Total
 -----------------------------------------------------------------------
      C    1   -0.28292      0.99965     2.27782    0.00544     3.28292
      C    2   -0.01444      0.99962     2.00261    0.01221     3.01444
      C    3   -0.29462      0.99965     2.28854    0.00644     3.29462
      N    4   -0.34631      0.99974     2.83463    0.01194     3.84631
      C    5   -0.07676      0.99962     2.06491    0.01223     3.07676
      C    6   -0.21590      0.99962     2.20693    0.00935     3.21590
      C    7   -0.04014      0.99953     2.03264    0.00797     3.04014
      C    8   -0.09502      0.99951     2.08713    0.00838     3.09502
      C    9   -0.01122      0.99950     2.00287    0.00884     3.01122
      C   10   -0.08809      0.99954     2.08042    0.00813     3.08809
      C   11   -0.10159      0.99953     2.09391    0.00814     3.10159
      C   12    0.00521      0.99949     1.98617    0.00913     2.99479
      C   13   -0.11252      0.99953     2.10525    0.00774     3.11252
      C   14   -0.07140      0.99954     2.06393    0.00792     3.07140
      C   15   -0.10879      0.99959     2.09882    0.01038     3.10879
      C   16   -0.18178      0.99964     2.17342    0.00872     3.18178
      C   17   -0.19411      0.99966     2.18720    0.00725     3.19411
      C   18   -0.17944      0.99964     2.17349    0.00631     3.17944
      H   19    0.09376      0.00000     0.40521    0.00103     0.40624
      H   20    0.10161      0.00000     0.39690    0.00149     0.39839
      H   21    0.09422      0.00000     0.40483    0.00095     0.40578
      H   22    0.08943      0.00000     0.40848    0.00209     0.41057
      H   23    0.09443      0.00000     0.40471    0.00086     0.40557
      H   24    0.10290      0.00000     0.39607    0.00103     0.39710
      H   25    0.09684      0.00000     0.40237    0.00080     0.40316
      H   26    0.17404      0.00000     0.32358    0.00238     0.32596
      H   27    0.09099      0.00000     0.40800    0.00101     0.40901
      H   28    0.08788      0.00000     0.41070    0.00142     0.41212
      H   29    0.09654      0.00000     0.40228    0.00118     0.40346
      H   30    0.09610      0.00000     0.40265    0.00125     0.40390
      H   31    0.08334      0.00000     0.41490    0.00176     0.41666
      H   32    0.08418      0.00000     0.41418    0.00164     0.41582
      H   33    0.09119      0.00000     0.40748    0.00134     0.40881
      H   34    0.09243      0.00000     0.40637    0.00120     0.40757
      H   35    0.09085      0.00000     0.40732    0.00183     0.40915
      H   36    0.09363      0.00000     0.40478    0.00159     0.40637
      H   37    0.09341      0.00000     0.40474    0.00185     0.40659
      H   38    0.09369      0.00000     0.40491    0.00141     0.40631
      H   39    0.09698      0.00000     0.40190    0.00111     0.40302
      H   40    0.09148      0.00000     0.40708    0.00144     0.40852
      H   41    0.09105      0.00000     0.40740    0.00155     0.40895
      H   42    0.09653      0.00000     0.40211    0.00136     0.40347
      H   43    0.09235      0.00000     0.40675    0.00091     0.40765
 =======================================================================
   * Total *    0.00001     17.99257    48.81642    0.19100    66.99999

 Normal termination of Gaussian 16 at Fri Dec 11 22:12:52 2020.
