 Gaussian 16, Revision A.03,

 -----------------------------------------------------------
 # opt freq B3LYP/6-31G(d) empiricaldispersion=gd3bj scf=xqc
 -----------------------------------------------------------

 -------------------------------
 CID_131268344_JID_5184_neutraal
 -------------------------------
 Symbolic Z-matrix:
 Charge =  0 Multiplicity = 1

 SCF Done:  E(RB3LYP) =  -1372.04345668     A.U. after   15 cycles
 SCF Done:  E(RB3LYP) =  -1372.05068477     A.U. after   13 cycles
 SCF Done:  E(RB3LYP) =  -1372.05088580     A.U. after   13 cycles
 SCF Done:  E(RB3LYP) =  -1372.04925337     A.U. after   13 cycles
 SCF Done:  E(RB3LYP) =  -1372.05147890     A.U. after   11 cycles
 SCF Done:  E(RB3LYP) =  -1372.05152110     A.U. after   12 cycles
 SCF Done:  E(RB3LYP) =  -1372.05073598     A.U. after   14 cycles
 SCF Done:  E(RB3LYP) =  -1372.05157119     A.U. after   13 cycles
 SCF Done:  E(RB3LYP) =  -1372.05165507     A.U. after   11 cycles
 SCF Done:  E(RB3LYP) =  -1372.05168352     A.U. after   13 cycles
 SCF Done:  E(RB3LYP) =  -1372.05172576     A.U. after    8 cycles
 SCF Done:  E(RB3LYP) =  -1372.05172589     A.U. after    8 cycles
 SCF Done:  E(RB3LYP) =  -1372.05172617     A.U. after    8 cycles
 SCF Done:  E(RB3LYP) =  -1372.05172651     A.U. after    9 cycles
 SCF Done:  E(RB3LYP) =  -1372.05172667     A.U. after    8 cycles
 SCF Done:  E(RB3LYP) =  -1372.05172668     A.U. after    7 cycles
 Optimization completed.
    -- Stationary point found.
 Normal termination of Gaussian 16 at Thu Dec 10 14:58:10 2020.

 --------------------------------------------------------------------
 #N Geom=AllCheck Guess=TCheck SCRF=Check GenChk RB3LYP/6-31G(d) Freq
 --------------------------------------------------------------------

 Structure from the checkpoint file:  "JID_5184.chk"
 -------------------------------
 CID_131268344_JID_5184_neutraal
 -------------------------------
 Charge =  0 Multiplicity = 1

 SCF Done:  E(RB3LYP) =  -1372.05172669     A.U. after    1 cycles

  Exact polarizability: 239.234  -3.205 168.507  -2.504  -4.905  78.527
 Approx polarizability: 379.470 -17.634 291.747  -7.849 -17.495 126.336

                      1                      2                      3
                      A                      A                      A
 Frequencies --     30.3392                51.7892                64.7051
 Red. masses --      3.0147                 3.4733                 5.5781
 Frc consts  --      0.0016                 0.0055                 0.0138
 IR Inten    --      3.2611                 1.9189                 2.7933

                      4                      5                      6
                      A                      A                      A
 Frequencies --     91.6673               132.1531               147.0232
 Red. masses --      4.6804                 4.2336                 2.8874
 Frc consts  --      0.0232                 0.0436                 0.0368
 IR Inten    --      2.0964                 0.6208                 0.3193

                      7                      8                      9
                      A                      A                      A
 Frequencies --    153.0530               166.9337               197.0602
 Red. masses --      3.0374                 1.1915                 2.0265
 Frc consts  --      0.0419                 0.0196                 0.0464
 IR Inten    --      6.3430                 0.0414                 0.5848

                     10                     11                     12
                      A                      A                      A
 Frequencies --    215.0530               219.8862               246.8721
 Red. masses --      3.2060                 3.1047                 4.3001
 Frc consts  --      0.0874                 0.0884                 0.1544
 IR Inten    --      2.7502                 2.1952                 0.6889

                     13                     14                     15
                      A                      A                      A
 Frequencies --    315.0949               331.4660               342.5015
 Red. masses --      4.5747                 7.9241                 5.6793
 Frc consts  --      0.2676                 0.5130                 0.3925
 IR Inten    --      0.7447                 1.1691                 5.7604

                     16                     17                     18
                      A                      A                      A
 Frequencies --    387.0243               400.6992               459.7118
 Red. masses --      9.4485                 7.1107                 7.2348
 Frc consts  --      0.8338                 0.6727                 0.9008
 IR Inten    --      3.7911                16.2701                 3.9675

                     19                     20                     21
                      A                      A                      A
 Frequencies --    518.2600               528.1278               554.8141
 Red. masses --      5.9516                 5.8038                 5.0844
 Frc consts  --      0.9418                 0.9538                 0.9221
 IR Inten    --      3.7591                 5.1094                 1.2495

                     22                     23                     24
                      A                      A                      A
 Frequencies --    595.7968               626.0816               676.3224
 Red. masses --      4.1440                 8.6007                 6.3123
 Frc consts  --      0.8667                 1.9863                 1.7012
 IR Inten    --      0.3683                 0.4394                 4.5467

                     25                     26                     27
                      A                      A                      A
 Frequencies --    698.0962               711.8900               751.5286
 Red. masses --      6.0931                 6.3198                 4.4787
 Frc consts  --      1.7495                 1.8870                 1.4904
 IR Inten    --      1.3095                28.3881                 1.7893

                     28                     29                     30
                      A                      A                      A
 Frequencies --    778.7717               820.8120               831.2950
 Red. masses --      6.1989                 1.5938                 1.3094
 Frc consts  --      2.2151                 0.6327                 0.5331
 IR Inten    --     13.4869                21.9736                29.1525

                     31                     32                     33
                      A                      A                      A
 Frequencies --    832.3945               971.4810               977.5444
 Red. masses --      5.7232                 1.2887                 3.2182
 Frc consts  --      2.3364                 0.7166                 1.8119
 IR Inten    --     22.8731                 0.1811                 6.4373

                     34                     35                     36
                      A                      A                      A
 Frequencies --    993.6501              1011.5513              1037.0281
 Red. masses --      1.1773                 1.3230                 1.7902
 Frc consts  --      0.6848                 0.7976                 1.1343
 IR Inten    --      3.9506                27.9037                 0.9362

                     37                     38                     39
                      A                      A                      A
 Frequencies --   1042.5334              1108.3755              1177.4851
 Red. masses --      4.9210                 6.8827                 1.2845
 Frc consts  --      3.1513                 4.9818                 1.0493
 IR Inten    --     70.5780                40.9424                 3.2106

                     40                     41                     42
                      A                      A                      A
 Frequencies --   1180.9522              1193.8434              1223.7225
 Red. masses --      1.2623                 1.6812                 1.9288
 Frc consts  --      1.0373                 1.4117                 1.7017
 IR Inten    --      1.2000                46.6766               108.5583

                     43                     44                     45
                      A                      A                      A
 Frequencies --   1241.7326              1285.8497              1324.0680
 Red. masses --      2.0850                 3.5693                 5.2904
 Frc consts  --      1.8941                 3.4770                 5.4646
 IR Inten    --     62.7437               237.8055               110.4756

                     46                     47                     48
                      A                      A                      A
 Frequencies --   1361.5519              1385.8241              1422.0857
 Red. masses --      5.8450                 1.1618                 1.4953
 Frc consts  --      6.3842                 1.3146                 1.7817
 IR Inten    --      0.7514                 4.0578                35.5045

                     49                     50                     51
                      A                      A                      A
 Frequencies --   1461.0502              1473.4658              1496.0826
 Red. masses --      3.1060                 2.8414                 1.0574
 Frc consts  --      3.9065                 3.6346                 1.3944
 IR Inten    --     28.9380                16.1616                11.9699

                     52                     53                     54
                      A                      A                      A
 Frequencies --   1498.2814              1515.6220              1519.4770
 Red. masses --      1.3037                 1.0543                 1.0465
 Frc consts  --      1.7244                 1.4269                 1.4235
 IR Inten    --     11.0629                 6.2696                 9.5912

                     55                     56                     57
                      A                      A                      A
 Frequencies --   1528.3288              1588.6290              1618.2737
 Red. masses --      1.0489                 5.8832                 6.3603
 Frc consts  --      1.4435                 8.7481                 9.8137
 IR Inten    --     50.6671               109.4611                 1.6711

                     58                     59                     60
                      A                      A                      A
 Frequencies --   1629.7186              1782.9810              3006.6855
 Red. masses --      6.8842                 9.6056                 1.0859
 Frc consts  --     10.7728                17.9915                 5.7840
 IR Inten    --    315.6182               277.7660                63.8508

                     61                     62                     63
                      A                      A                      A
 Frequencies --   3040.3296              3068.7667              3106.1863
 Red. masses --      1.0339                 1.0288                 1.1073
 Frc consts  --      5.6309                 5.7086                 6.2945
 IR Inten    --     40.9519                24.6236                26.1019

                     64                     65                     66
                      A                      A                      A
 Frequencies --   3158.7767              3161.4948              3176.2956
 Red. masses --      1.1083                 1.1055                 1.1011
 Frc consts  --      6.5152                 6.5099                 6.5450
 IR Inten    --      7.3753                 7.0104                20.2470

                     67                     68                     69
                      A                      A                      A
 Frequencies --   3204.1696              3227.2446              3260.7856
 Red. masses --      1.0895                 1.0928                 1.0931
 Frc consts  --      6.5903                 6.7060                 6.8478
 IR Inten    --      4.8928                 4.1331                 2.6289

 - Thermochemistry -
 -------------------
 Temperature   298.150 Kelvin.  Pressure   1.00000 Atm.
 Atom     1 has atomic number  6 and mass  12.00000

 Molecular mass:   238.01222 amu.
 Principal axes and moments of inertia in atomic units:
                           1         2         3
     Eigenvalues --  2069.350565762.146497559.34802
           X            0.99998   0.00399   0.00517
           Y           -0.00408   0.99982   0.01842
           Z           -0.00510  -0.01844   0.99982
 This molecule is an asymmetric top.
 Rotational symmetry number  1.
 Warning -- assumption of classical behavior for rotation
           may cause significant error
 Rotational temperatures (Kelvin)      0.04186     0.01503     0.01146
 Rotational constants (GHZ):           0.87213     0.31321     0.23874
 Zero-point vibrational energy     486516.1 (Joules/Mol)
                                  116.28015 (Kcal/Mol)
 Warning -- explicit consideration of  22 degrees of freedom as
           vibrations may cause significant error
 Vibrational temperatures:     43.65    74.51    93.10   131.89   190.14
          (Kelvin)            211.53   220.21   240.18   283.53   309.41
                              316.37   355.19   453.35   476.91   492.78
                              556.84   576.52   661.42   745.66   759.86
                              798.25   857.22   900.79   973.08  1004.40
                             1024.25  1081.28  1120.48  1180.97  1196.05
                             1197.63  1397.74  1406.47  1429.64  1455.40
                             1492.05  1499.97  1594.71  1694.14  1699.13
                             1717.67  1760.66  1786.58  1850.05  1905.04
                             1958.97  1993.89  2046.06  2102.13  2119.99
                             2152.53  2155.69  2180.64  2186.19  2198.92
                             2285.68  2328.33  2344.80  2565.31  4325.95
                             4374.36  4415.27  4469.11  4544.78  4548.69
                             4569.98  4610.09  4643.29  4691.54

 Zero-point correction=                           0.185304 (Hartree/Particle)
 Thermal correction to Energy=                    0.200199
 Thermal correction to Enthalpy=                  0.201144
 Thermal correction to Gibbs Free Energy=         0.142040
 Sum of electronic and zero-point Energies=          -1371.866422
 Sum of electronic and thermal Energies=             -1371.851527
 Sum of electronic and thermal Enthalpies=           -1371.850583
 Sum of electronic and thermal Free Energies=        -1371.909687

                     E (Thermal)             CV                S
                      KCal/Mol        Cal/Mol-Kelvin    Cal/Mol-Kelvin
 Total                  125.627             53.998            124.394
 Electronic               0.000              0.000              0.000
 Translational            0.889              2.981             42.303
 Rotational               0.889              2.981             32.866
 Vibrational            123.850             48.036             49.225
 Vibration     1          0.594              1.984              5.807
 Vibration     2          0.596              1.977              4.748
 Vibration     3          0.597              1.971              4.308
 Vibration     4          0.602              1.955              3.624
 Vibration     5          0.612              1.921              2.914
 Vibration     6          0.617              1.906              2.710
 Vibration     7          0.619              1.899              2.634
 Vibration     8          0.624              1.883              2.470
 Vibration     9          0.636              1.844              2.160
 Vibration    10          0.645              1.818              2.000
 Vibration    11          0.647              1.811              1.960
 Vibration    12          0.661              1.768              1.753
 Vibration    13          0.702              1.645              1.335
 Vibration    14          0.714              1.613              1.253
 Vibration    15          0.722              1.591              1.200
 Vibration    16          0.755              1.498              1.012
 Vibration    17          0.767              1.469              0.960
 Vibration    18          0.818              1.339              0.767
 Vibration    19          0.873              1.210              0.614
 Vibration    20          0.883              1.188              0.591
 Vibration    21          0.910              1.129              0.534
 Vibration    22          0.954              1.041              0.457

 Optimization completed.
    -- Stationary point found.
 Normal termination of Gaussian 16 at Thu Dec 10 15:04:56 2020.

 ----------------------------------------------------------------------
 # B3LYP/6-311++G(d,p) empiricaldispersion=gd3bj scf=xqc pop=npa geom=c
 heck
 ----------------------------------------------------------------------

 ---------------------------------------
 CID_131268344_JID_5184_Energie_neutraal
 ---------------------------------------
 Structure from the checkpoint file:  "JID_5184.chk"
 Charge =  0 Multiplicity = 1

 SCF Done:  E(RB3LYP) =  -1372.25900119     A.U. after   17 cycles
 Normal termination of Gaussian 16 at Thu Dec 10 15:08:30 2020.

 ----------------------------------------------------------------------
 # B3LYP/6-311++G(d,p) empiricaldispersion=gd3bj scf=xqc pop=npa geom=c
 heck
 ----------------------------------------------------------------------

 -------------------------------------
 CID_131268344_JID_5184_Energie_kation
 -------------------------------------
 Structure from the checkpoint file:  "JID_5184.chk"
 Charge =  1 Multiplicity = 2

 SCF Done:  E(UB3LYP) =  -1371.97476585     A.U. after   27 cycles
 Normal termination of Gaussian 16 at Thu Dec 10 15:16:52 2020.
 Gaussian 16:  ES64L-G16RevA.03 25-Dec-2016

 ----------------------------------------------------------------------
 # B3LYP/6-311++G(d,p) empiricaldispersion=gd3bj scf=xqc pop=npa geom=c
 heck
 ----------------------------------------------------------------------

 ------------------------------------
 CID_131268344_JID_5184_Energie_anion
 ------------------------------------
 Structure from the checkpoint file:  "JID_5184.chk"
 Charge = -1 Multiplicity = 2

                         Standard orientation:
 ---------------------------------------------------------------------
 Center     Atomic      Atomic             Coordinates (Angstroms)
 Number     Number       Type             X           Y           Z
 ---------------------------------------------------------------------
      1          6           0       -4.821342    0.205282   -0.116383
      2          8           0       -3.636912    0.998217   -0.151851
      3          6           0       -2.449931    0.372082   -0.102476
      4          6           0       -1.246250    0.989738   -0.255248
      5          6           0       -0.140122    0.081895   -0.136469
      6          6           0       -0.556554   -1.253456    0.101481
      7         16           0       -2.306646   -1.378070    0.195293
      8          6           0        0.347727   -2.309894    0.221598
      9          6           0        1.698461   -2.027432    0.113158
     10          6           0        2.157025   -0.710435   -0.099825
     11          6           0        1.244386    0.351460   -0.224472
     12         16           0        1.777064    2.043006   -0.515018
     13          6           0        1.472632    2.743236    1.153283
     14          6           0        3.628029   -0.512616   -0.160490
     15          8           0        4.430494   -1.425749   -0.071722
     16          1           0       -5.652567    0.907199   -0.186641
     17          1           0       -4.891192   -0.352255    0.825809
     18          1           0       -4.852621   -0.491802   -0.962062
     19          1           0       -1.150695    2.044892   -0.471841
     20          1           0        0.001227   -3.324384    0.392933
     21          1           0        2.445621   -2.809019    0.198489
     22          1           0        0.426804    2.615504    1.442594
     23          1           0        2.123083    2.271277    1.893276
     24          1           0        1.704370    3.809875    1.094096
     25          1           0        3.966267    0.530840   -0.287402
 ---------------------------------------------------------------------

 SCF Done:  E(UB3LYP) =  -1372.27559833     A.U. after   28 cycles

 The electronic state is 2-A.
 Alpha  occ. eigenvalues --  -88.75704 -88.71226 -19.07242 -18.91813 -10.15040
 Alpha  occ. eigenvalues --  -10.14626 -10.07416 -10.06081 -10.05444 -10.05330
 Alpha  occ. eigenvalues --  -10.04999 -10.04903 -10.04070 -10.02648 -10.01573
 Alpha  occ. eigenvalues --   -7.84332  -7.79787  -5.80658  -5.80299  -5.79849
 Alpha  occ. eigenvalues --   -5.76192  -5.75819  -5.75158  -0.99034  -0.85573
 Alpha  occ. eigenvalues --   -0.76240  -0.69999  -0.67001  -0.64833  -0.62429
 Alpha  occ. eigenvalues --   -0.59342  -0.57541  -0.52156  -0.48287  -0.47562
 Alpha  occ. eigenvalues --   -0.43525  -0.41608  -0.40155  -0.39295  -0.37789
 Alpha  occ. eigenvalues --   -0.34830  -0.32822  -0.32049  -0.30682  -0.30212
 Alpha  occ. eigenvalues --   -0.29417  -0.28713  -0.27788  -0.27081  -0.25590
 Alpha  occ. eigenvalues --   -0.25269  -0.23259  -0.22981  -0.22386  -0.21920
 Alpha  occ. eigenvalues --   -0.18887  -0.17559  -0.15569  -0.11060  -0.10284
 Alpha  occ. eigenvalues --   -0.08617  -0.07342   0.04119
 Alpha virt. eigenvalues --    0.06090   0.08262   0.08930   0.09923   0.10084
 Alpha virt. eigenvalues --    0.10229   0.10537   0.11325   0.11849   0.12801
 Alpha virt. eigenvalues --    0.13135   0.13374   0.13973   0.14455   0.14978

  Beta  occ. eigenvalues --  -88.75703 -88.71232 -19.07258 -18.91223 -10.15036
  Beta  occ. eigenvalues --  -10.14675 -10.07367 -10.05741 -10.05543 -10.05062
  Beta  occ. eigenvalues --  -10.04966 -10.04567 -10.04063 -10.02598 -10.01392
  Beta  occ. eigenvalues --   -7.84330  -7.79791  -5.80661  -5.80307  -5.79831
  Beta  occ. eigenvalues --   -5.76199  -5.75832  -5.75159  -0.99068  -0.84510
  Beta  occ. eigenvalues --   -0.76027  -0.69715  -0.66786  -0.64745  -0.62354
  Beta  occ. eigenvalues --   -0.58935  -0.57286  -0.51978  -0.47910  -0.47235
  Beta  occ. eigenvalues --   -0.43294  -0.41227  -0.40104  -0.39323  -0.37649
  Beta  occ. eigenvalues --   -0.34615  -0.32650  -0.31940  -0.30626  -0.30029
  Beta  occ. eigenvalues --   -0.29233  -0.28591  -0.27635  -0.26853  -0.25025
  Beta  occ. eigenvalues --   -0.24712  -0.23076  -0.22723  -0.21627  -0.20380
  Beta  occ. eigenvalues --   -0.18495  -0.16586  -0.15182  -0.10829  -0.08714
  Beta  occ. eigenvalues --   -0.07897  -0.06879
  Beta virt. eigenvalues --    0.06042   0.08168   0.08885   0.09912   0.10014
  Beta virt. eigenvalues --    0.10299   0.10552   0.10819   0.11357   0.11838
  Beta virt. eigenvalues --    0.12773   0.13096   0.13693   0.14112   0.14479

 Mulliken charges and spin densities:
               1          2
     1  C   -0.322750  -0.012973
     2  O   -0.096966  -0.001444
     3  C   -0.682703  -0.020543
     4  C   -0.179981   0.045055
     5  C    0.759958  -0.049389
     6  C    0.623986   0.157222
     7  S   -0.761728   0.025593
     8  C   -0.587660   0.048595
     9  C   -0.608006   0.076919
    10  C    0.521996   0.122654
    11  C    0.337328   0.215826
    12  S   -0.431727  -0.015715
    13  C   -0.645611  -0.025535
    14  C    0.131027   0.179076
    15  O   -0.401188   0.200761
    16  H    0.144758   0.000233
    17  H    0.135074   0.013052
    18  H    0.156598   0.001206
    19  H    0.140544   0.007833
    20  H    0.131544  -0.001611
    21  H    0.153442  -0.005203
    22  H    0.139616   0.009460
    23  H    0.159369   0.005751
    24  H    0.090907   0.039477
    25  H    0.092174  -0.016300
 Sum of Mulliken charges =  -1.00000   1.00000

 Dipole moment (field-independent basis, Debye):
    X=            -11.0545    Y=              2.4675    Z=              1.1252  Tot=             11.3823
 Quadrupole moment (field-independent basis, Debye-Ang):
   XX=           -153.8378   YY=           -121.1787   ZZ=           -111.9492
   XY=             13.3847   XZ=              2.9818   YZ=              2.2758

 Summary of Natural Population Analysis:

                                       Natural Population
                Natural  -----------------------------------------------
    Atom  No    Charge         Core      Valence    Rydberg      Total
 -----------------------------------------------------------------------
      C    1   -0.10284      0.99961     2.09496    0.00828     3.10284
      O    2   -0.27628      0.99983     3.26515    0.01130     4.27628
      C    3    0.07271      0.99942     1.91256    0.01532     2.92729
      C    4   -0.14415      0.99938     2.13456    0.01021     3.14415
      C    5   -0.06727      0.99944     2.05831    0.00952     3.06727
      C    6   -0.02874      0.99940     2.01980    0.00955     3.02874
      S    7    0.14003      4.99943     2.84094    0.01960     7.85997
      C    8   -0.11697      0.99950     2.10768    0.00978     3.11697
      C    9   -0.07045      0.99954     2.06143    0.00948     3.07045
      C   10   -0.04352      0.99944     2.03412    0.00995     3.04352
      C   11   -0.00433      0.99928     1.99488    0.01017     3.00433
      S   12    0.08644      4.99959     2.89281    0.02116     7.91356
      C   13   -0.34221      0.99962     2.33640    0.00619     3.34221
      C   14    0.23067      0.99969     1.74893    0.02071     2.76933
      O   15   -0.24390      0.99988     3.23625    0.00777     4.24390
      H   16    0.08942      0.00000     0.40981    0.00077     0.41058
      H   17    0.08583      0.00000     0.41261    0.00156     0.41417
      H   18    0.08595      0.00000     0.41243    0.00162     0.41405
      H   19    0.11146      0.00000     0.38584    0.00269     0.38854
      H   20    0.09388      0.00000     0.40499    0.00113     0.40612
      H   21    0.10608      0.00000     0.39167    0.00225     0.39392
      H   22    0.09846      0.00000     0.39905    0.00248     0.40154
      H   23    0.10006      0.00000     0.39851    0.00144     0.39994
      H   24    0.09537      0.00000     0.40263    0.00200     0.40463
      H   25    0.04431      0.00000     0.45317    0.00252     0.45569
 =======================================================================
   * Total *    0.00000     22.99305    38.80950    0.19745    62.00000

 Normal termination of Gaussian 16 at Thu Dec 10 15:25:10 2020.
