 Gaussian 16, Revision A.03,

 -----------------------------------------------------------
 # opt freq B3LYP/6-31G(d) empiricaldispersion=gd3bj scf=xqc
 -----------------------------------------------------------

 ------------------------------
 CID_66166079_JID_5467_neutraal
 ------------------------------
 Symbolic Z-matrix:
 Charge =  0 Multiplicity = 1

 SCF Done:  E(RB3LYP) =  -1144.13657274     A.U. after   14 cycles
 SCF Done:  E(RB3LYP) =  -1144.14488218     A.U. after   12 cycles
 SCF Done:  E(RB3LYP) =  -1144.14623898     A.U. after   12 cycles
 SCF Done:  E(RB3LYP) =  -1144.14630505     A.U. after   12 cycles
 SCF Done:  E(RB3LYP) =  -1144.14721283     A.U. after   12 cycles
 SCF Done:  E(RB3LYP) =  -1144.14729132     A.U. after   11 cycles
 SCF Done:  E(RB3LYP) =  -1144.14738452     A.U. after   12 cycles
 SCF Done:  E(RB3LYP) =  -1144.14755261     A.U. after   11 cycles
 SCF Done:  E(RB3LYP) =  -1144.14764386     A.U. after   11 cycles
 SCF Done:  E(RB3LYP) =  -1144.14768808     A.U. after   11 cycles
 SCF Done:  E(RB3LYP) =  -1144.14792033     A.U. after    7 cycles
 SCF Done:  E(RB3LYP) =  -1144.14792423     A.U. after   10 cycles
 SCF Done:  E(RB3LYP) =  -1144.14792451     A.U. after    8 cycles
 SCF Done:  E(RB3LYP) =  -1144.14792470     A.U. after    8 cycles
 SCF Done:  E(RB3LYP) =  -1144.14792483     A.U. after    8 cycles
 Optimization completed.
    -- Stationary point found.
 Normal termination of Gaussian 16 at Thu Dec 10 16:21:23 2020.

 --------------------------------------------------------------------
 #N Geom=AllCheck Guess=TCheck SCRF=Check GenChk RB3LYP/6-31G(d) Freq
 --------------------------------------------------------------------

 Structure from the checkpoint file:  "JID_5467.chk"
 ------------------------------
 CID_66166079_JID_5467_neutraal
 ------------------------------
 Charge =  0 Multiplicity = 1

 SCF Done:  E(RB3LYP) =  -1144.14792483     A.U. after    1 cycles

  Exact polarizability: 143.227  -1.052 120.327  -1.101   2.254 101.753
 Approx polarizability: 178.804   8.802 182.789  -4.567   6.764 162.815

                      1                      2                      3
                      A                      A                      A
 Frequencies --     29.3161                38.8513                47.4876
 Red. masses --      5.4034                 5.2535                 5.9134
 Frc consts  --      0.0027                 0.0047                 0.0079
 IR Inten    --      0.3992                 2.4653                 0.9074

                      4                      5                      6
                      A                      A                      A
 Frequencies --     53.1563                86.7422               111.5701
 Red. masses --      4.4789                 5.3481                 3.3356
 Frc consts  --      0.0075                 0.0237                 0.0245
 IR Inten    --      4.0471                 2.6377                 1.7767

                      7                      8                      9
                      A                      A                      A
 Frequencies --    144.0954               191.2015               204.1751
 Red. masses --      4.2045                 3.7121                 4.6120
 Frc consts  --      0.0514                 0.0800                 0.1133
 IR Inten    --      1.6108                 1.0813                 3.5521

                     10                     11                     12
                      A                      A                      A
 Frequencies --    216.2528               231.8673               259.4370
 Red. masses --      3.7342                 1.1218                 3.1636
 Frc consts  --      0.1029                 0.0355                 0.1255
 IR Inten    --      5.4748                 0.7965                 2.2899

                     13                     14                     15
                      A                      A                      A
 Frequencies --    261.0680               279.2529               293.9070
 Red. masses --      1.4955                 1.3747                 3.1018
 Frc consts  --      0.0601                 0.0632                 0.1579
 IR Inten    --      1.2746                 1.5173                 2.9311

                     16                     17                     18
                      A                      A                      A
 Frequencies --    302.3058               324.2246               343.9565
 Red. masses --      1.8499                 4.2091                 1.2783
 Frc consts  --      0.0996                 0.2607                 0.0891
 IR Inten    --      0.8344                11.1562                74.6872

                     19                     20                     21
                      A                      A                      A
 Frequencies --    346.6710               391.6486               396.7087
 Red. masses --      1.9952                 2.3636                 2.3957
 Frc consts  --      0.1413                 0.2136                 0.2221
 IR Inten    --      2.5247                 1.2185                26.6020

                     22                     23                     24
                      A                      A                      A
 Frequencies --    412.7358               428.1795               462.6187
 Red. masses --      1.9627                 2.9658                 5.3754
 Frc consts  --      0.1970                 0.3204                 0.6778
 IR Inten    --      0.0982                 4.9400                 6.1129

                     25                     26                     27
                      A                      A                      A
 Frequencies --    491.8866               516.5432               579.5656
 Red. masses --      2.9396                 3.3821                 4.7461
 Frc consts  --      0.4191                 0.5317                 0.9393
 IR Inten    --     12.1451                27.8587                71.4796

                     28                     29                     30
                      A                      A                      A
 Frequencies --    587.5093               621.7506               665.9613
 Red. masses --      1.8189                 4.4269                 2.4546
 Frc consts  --      0.3699                 1.0083                 0.6414
 IR Inten    --     45.9549                38.0759                93.4730

                     31                     32                     33
                      A                      A                      A
 Frequencies --    730.4573               748.7855               781.8064
 Red. masses --      2.9939                 3.9940                 2.9253
 Frc consts  --      0.9412                 1.3194                 1.0535
 IR Inten    --     58.7591                19.5740                 4.5532

                     34                     35                     36
                      A                      A                      A
 Frequencies --    825.9898               877.5769               887.0535
 Red. masses --      2.6638                 2.1499                 2.9305
 Frc consts  --      1.0708                 0.9755                 1.3586
 IR Inten    --     82.4898                42.3493                29.1910

                     37                     38                     39
                      A                      A                      A
 Frequencies --    931.1200               950.4214               956.0518
 Red. masses --      2.1988                 2.6478                 1.6623
 Frc consts  --      1.1232                 1.4092                 0.8952
 IR Inten    --      1.6273                14.4235                 0.6651

                     40                     41                     42
                      A                      A                      A
 Frequencies --    963.3560               987.4199              1042.7648
 Red. masses --      1.6324                 1.2211                 3.6078
 Frc consts  --      0.8926                 0.7015                 2.3113
 IR Inten    --      1.5778                 0.0465                52.7140

                     43                     44                     45
                      A                      A                      A
 Frequencies --   1065.0659              1071.5848              1114.7331
 Red. masses --      1.4158                 1.4423                 7.9686
 Frc consts  --      0.9463                 0.9758                 5.8341
 IR Inten    --      0.2523                 7.3824               100.1381

                     46                     47                     48
                      A                      A                      A
 Frequencies --   1124.6423              1145.0432              1191.6768
 Red. masses --      3.3586                 4.3972                 1.3747
 Frc consts  --      2.5029                 3.3968                 1.1502
 IR Inten    --     74.2371               252.4019                18.1769

                     49                     50                     51
                      A                      A                      A
 Frequencies --   1208.3308              1234.9746              1266.8457
 Red. masses --      2.1526                 2.0824                 1.5128
 Frc consts  --      1.8517                 1.8713                 1.4304
 IR Inten    --    106.1190                 9.5679                64.9392

                     52                     53                     54
                      A                      A                      A
 Frequencies --   1288.0752              1300.6951              1315.7574
 Red. masses --      2.7170                 1.3420                 2.0950
 Frc consts  --      2.6559                 1.3377                 2.1369
 IR Inten    --      8.0359                51.3782                53.8988

                     55                     56                     57
                      A                      A                      A
 Frequencies --   1330.5814              1351.1782              1364.3767
 Red. masses --      1.7545                 1.4761                 1.5340
 Frc consts  --      1.8302                 1.5878                 1.6825
 IR Inten    --     27.4396                17.6221               126.7537

                     58                     59                     60
                      A                      A                      A
 Frequencies --   1387.8141              1403.8065              1430.4006
 Red. masses --      1.3911                 1.3366                 1.2153
 Frc consts  --      1.5785                 1.5519                 1.4651
 IR Inten    --     14.1301                44.0551                 2.0881

                     61                     62                     63
                      A                      A                      A
 Frequencies --   1439.1964              1455.2794              1464.7086
 Red. masses --      1.2298                 1.2872                 1.2375
 Frc consts  --      1.5008                 1.6062                 1.5642
 IR Inten    --      7.7330                 8.8768                 6.3381

                     64                     65                     66
                      A                      A                      A
 Frequencies --   1477.1765              1480.2807              1508.7483
 Red. masses --      1.1805                 1.5382                 1.0488
 Frc consts  --      1.5177                 1.9859                 1.4067
 IR Inten    --      9.1142                20.0025                 1.8225

                     67                     68                     69
                      A                      A                      A
 Frequencies --   1510.4111              1514.2384              1520.8000
 Red. masses --      1.0861                 1.0495                 1.0471
 Frc consts  --      1.4598                 1.4178                 1.4268
 IR Inten    --      3.6260                 0.5493                 0.4059

                     70                     71                     72
                      A                      A                      A
 Frequencies --   1537.6018              1539.8590              1551.5353
 Red. masses --      1.0540                 1.0565                 1.0592
 Frc consts  --      1.4682                 1.4760                 1.5023
 IR Inten    --      4.8254                 5.4512                10.0993

                     73                     74                     75
                      A                      A                      A
 Frequencies --   1829.8800              3039.2857              3043.6934
 Red. masses --      9.8779                 1.0374                 1.0400
 Frc consts  --     19.4876                 5.6462                 5.6765
 IR Inten    --    267.2848                16.8209                47.2404

                     76                     77                     78
                      A                      A                      A
 Frequencies --   3060.0937              3069.2605              3070.3869
 Red. masses --      1.0413                 1.0584                 1.0628
 Frc consts  --      5.7453                 5.8747                 5.9030
 IR Inten    --     20.8711                 4.3768                21.8656

                     79                     80                     81
                      A                      A                      A
 Frequencies --   3076.9579              3100.8354              3107.4084
 Red. masses --      1.0786                 1.0999                 1.1027
 Frc consts  --      6.0164                 6.2309                 6.2735
 IR Inten    --      5.7143                17.0372                31.3681

                     82                     83                     84
                      A                      A                      A
 Frequencies --   3116.2736              3122.2113              3124.3567
 Red. masses --      1.1021                 1.1019                 1.1058
 Frc consts  --      6.3061                 6.3285                 6.3598
 IR Inten    --      8.4881                46.0606                 0.7899

                     85                     86                     87
                      A                      A                      A
 Frequencies --   3124.6190              3168.3291              3175.9960
 Red. masses --      1.1053                 1.0973                 1.0968
 Frc consts  --      6.3583                 6.4899                 6.5185
 IR Inten    --     28.0160                14.7632                 0.8304

                     88                     89                     90
                      A                      A                      A
 Frequencies --   3542.5995              3650.0313              3680.1391
 Red. masses --      1.0755                 1.0650                 1.0642
 Frc consts  --      7.9523                 8.3599                 8.4915
 IR Inten    --     23.5732               103.4134                66.1220

 - Thermochemistry -
 -------------------
 Temperature   298.150 Kelvin.  Pressure   1.00000 Atm.
 Atom     1 has atomic number  6 and mass  12.00000

 Molecular mass:   239.08274 amu.
 Principal axes and moments of inertia in atomic units:
                           1         2         3
     Eigenvalues --  2189.193185372.776576532.57799
           X            0.99930  -0.03733   0.00317
           Y            0.03736   0.99922  -0.01265
           Z           -0.00270   0.01276   0.99991
 This molecule is an asymmetric top.
 Rotational symmetry number  1.
 Warning -- assumption of classical behavior for rotation
           may cause significant error
 Rotational temperatures (Kelvin)      0.03956     0.01612     0.01326
 Rotational constants (GHZ):           0.82439     0.33590     0.27627
 Zero-point vibrational energy     698028.3 (Joules/Mol)
                                  166.83278 (Kcal/Mol)
 Warning -- explicit consideration of  28 degrees of freedom as
           vibrations may cause significant error
 Vibrational temperatures:     42.18    55.90    68.32    76.48   124.80
          (Kelvin)            160.52   207.32   275.10   293.76   311.14
                              333.61   373.27   375.62   401.78   422.87
                              434.95   466.49   494.88   498.78   563.49
                              570.78   593.83   616.05   665.61   707.72
                              743.19   833.87   845.29   894.56   958.17
                             1050.97  1077.34  1124.85  1188.42  1262.64
                             1276.27  1339.67  1367.44  1375.55  1386.05
                             1420.68  1500.31  1532.39  1541.77  1603.85
                             1618.11  1647.46  1714.56  1738.52  1776.85
                             1822.71  1853.25  1871.41  1893.08  1914.41
                             1944.04  1963.03  1996.76  2019.76  2058.03
                             2070.68  2093.82  2107.39  2125.33  2129.79
                             2170.75  2173.14  2178.65  2188.09  2212.27
                             2215.51  2232.31  2632.79  4372.85  4379.20
                             4402.79  4415.98  4417.60  4427.06  4461.41
                             4470.87  4483.62  4492.17  4495.25  4495.63
                             4558.52  4569.55  5097.01  5251.58  5294.90

 Zero-point correction=                           0.265865 (Hartree/Particle)
 Thermal correction to Energy=                    0.283329
 Thermal correction to Enthalpy=                  0.284274
 Thermal correction to Gibbs Free Energy=         0.219989
 Sum of electronic and zero-point Energies=          -1143.882060
 Sum of electronic and thermal Energies=             -1143.864595
 Sum of electronic and thermal Enthalpies=           -1143.863651
 Sum of electronic and thermal Free Energies=        -1143.927936

                     E (Thermal)             CV                S
                      KCal/Mol        Cal/Mol-Kelvin    Cal/Mol-Kelvin
 Total                  177.792             64.504            135.298
 Electronic               0.000              0.000              0.000
 Translational            0.889              2.981             42.316
 Rotational               0.889              2.981             32.707
 Vibrational            176.014             58.543             60.274
 Vibration     1          0.593              1.984              5.875
 Vibration     2          0.594              1.981              5.317
 Vibration     3          0.595              1.979              4.919
 Vibration     4          0.596              1.976              4.696
 Vibration     5          0.601              1.958              3.732
 Vibration     6          0.607              1.940              3.241
 Vibration     7          0.616              1.909              2.749
 Vibration     8          0.634              1.852              2.216
 Vibration     9          0.640              1.834              2.095
 Vibration    10          0.645              1.816              1.990
 Vibration    11          0.653              1.792              1.864
 Vibration    12          0.668              1.747              1.666
 Vibration    13          0.669              1.744              1.655
 Vibration    14          0.680              1.712              1.538
 Vibration    15          0.689              1.685              1.451
 Vibration    16          0.694              1.669              1.404
 Vibration    17          0.709              1.627              1.289
 Vibration    18          0.723              1.588              1.194
 Vibration    19          0.725              1.582              1.181
 Vibration    20          0.759              1.488              0.994
 Vibration    21          0.763              1.477              0.975
 Vibration    22          0.777              1.443              0.917
 Vibration    23          0.790              1.409              0.865
 Vibration    24          0.820              1.333              0.759
 Vibration    25          0.848              1.268              0.679
 Vibration    26          0.872              1.213              0.618
 Vibration    27          0.936              1.075              0.486
 Vibration    28          0.945              1.058              0.472

 Optimization completed.
    -- Stationary point found.
 Normal termination of Gaussian 16 at Thu Dec 10 16:32:18 2020.

 ----------------------------------------------------------------------
 # B3LYP/6-311++G(d,p) empiricaldispersion=gd3bj scf=xqc pop=npa geom=c
 heck
 ----------------------------------------------------------------------

 --------------------------------------
 CID_66166079_JID_5467_Energie_neutraal
 --------------------------------------
 Structure from the checkpoint file:  "JID_5467.chk"
 Charge =  0 Multiplicity = 1

 SCF Done:  E(RB3LYP) =  -1144.41838288     A.U. after   15 cycles
 Normal termination of Gaussian 16 at Thu Dec 10 16:37:03 2020.

 ----------------------------------------------------------------------
 # B3LYP/6-311++G(d,p) empiricaldispersion=gd3bj scf=xqc pop=npa geom=c
 heck
 ----------------------------------------------------------------------

 ------------------------------------
 CID_66166079_JID_5467_Energie_kation
 ------------------------------------
 Structure from the checkpoint file:  "JID_5467.chk"
 Charge =  1 Multiplicity = 2

 SCF Done:  E(UB3LYP) =  -1144.07078398     A.U. after   28 cycles
 Normal termination of Gaussian 16 at Thu Dec 10 16:53:39 2020.
 Gaussian 16:  ES64L-G16RevA.03 25-Dec-2016

 ----------------------------------------------------------------------
 # B3LYP/6-311++G(d,p) empiricaldispersion=gd3bj scf=xqc pop=npa geom=c
 heck
 ----------------------------------------------------------------------

 -----------------------------------
 CID_66166079_JID_5467_Energie_anion
 -----------------------------------
 Structure from the checkpoint file:  "JID_5467.chk"
 Charge = -1 Multiplicity = 2

                         Standard orientation:
 ---------------------------------------------------------------------
 Center     Atomic      Atomic             Coordinates (Angstroms)
 Number     Number       Type             X           Y           Z
 ---------------------------------------------------------------------
      1          6           0        1.665424   -1.468576    1.367929
      2          6           0        2.456454   -1.018432    0.129211
      3          6           0        3.942617   -1.387498    0.322353
      4          6           0        1.924794   -1.736487   -1.122786
      5          6           0        2.451487    0.516615   -0.051594
      6         16           0        0.922120    1.489245    0.033665
      7          8           0        0.256143    1.288650    1.326589
      8          8           0        1.298132    2.843184   -0.397174
      9          7           0       -0.086296    0.781996   -1.132137
     10          6           0       -1.530320    0.771360   -0.847491
     11          6           0       -1.920347   -0.446046    0.009352
     12          6           0       -3.421852   -0.468478    0.239096
     13          8           0       -4.128208   -1.394871   -0.105035
     14          8           0       -3.883517    0.634567    0.851449
     15          8           0       -1.526049   -1.649234   -0.606508
     16          1           0        1.868013   -2.527958    1.561840
     17          1           0        0.590228   -1.358908    1.218898
     18          1           0        1.946967   -0.896326    2.258048
     19          1           0        4.049555   -2.474451    0.407136
     20          1           0        4.552648   -1.056187   -0.526726
     21          1           0        4.352594   -0.935899    1.233545
     22          1           0        0.862466   -1.543415   -1.277665
     23          1           0        2.476873   -1.422131   -2.018044
     24          1           0        2.063352   -2.818059   -1.011048
     25          1           0        3.045412    0.997809    0.734408
     26          1           0        2.898505    0.794877   -1.011438
     27          1           0        0.126309    1.195416   -2.036377
     28          1           0       -1.874803    1.688646   -0.358467
     29          1           0       -2.027042    0.686353   -1.818574
     30          1           0       -1.432162   -0.339005    0.985096
     31          1           0       -4.847533    0.520260    0.954887
     32          1           0       -2.342763   -2.166026   -0.740173
 ---------------------------------------------------------------------

 SCF Done:  E(UB3LYP) =  -1144.41154092     A.U. after   33 cycles
 SCF Done:  E(UB3LYP) =  -1144.41154092     a.u. after    1 cycles

 The electronic state is 2-A.
 Alpha  occ. eigenvalues --  -88.96930 -19.08855 -19.04139 -19.03585 -19.02537
 Alpha  occ. eigenvalues --  -19.02300 -14.25093 -10.22688 -10.14904 -10.12781
 Alpha  occ. eigenvalues --  -10.12029 -10.11049 -10.07860 -10.06745 -10.05905
 Alpha  occ. eigenvalues --   -8.03147  -5.99438  -5.99391  -5.99204  -1.03392
 Alpha  occ. eigenvalues --   -1.02588  -0.95696  -0.93363  -0.91577  -0.83500
 Alpha  occ. eigenvalues --   -0.75030  -0.68711  -0.65374  -0.60372  -0.59480
 Alpha  occ. eigenvalues --   -0.58871  -0.53292  -0.50989  -0.47387  -0.46050
 Alpha  occ. eigenvalues --   -0.43715  -0.41520  -0.41228  -0.40006  -0.39310
 Alpha  occ. eigenvalues --   -0.37739  -0.37326  -0.36137  -0.35074  -0.34866
 Alpha  occ. eigenvalues --   -0.33756  -0.32833  -0.32393  -0.30481  -0.30103
 Alpha  occ. eigenvalues --   -0.28619  -0.27960  -0.26884  -0.26207  -0.25935
 Alpha  occ. eigenvalues --   -0.24932  -0.24787  -0.24307  -0.23248  -0.21634
 Alpha  occ. eigenvalues --   -0.21492  -0.21159  -0.19767  -0.17638   0.03833
 Alpha virt. eigenvalues --    0.05352   0.06515   0.07396   0.08029   0.08332
 Alpha virt. eigenvalues --    0.08899   0.09691   0.10252   0.10622   0.11197
 Alpha virt. eigenvalues --    0.11562   0.12392   0.12883   0.13451   0.13751

  Beta  occ. eigenvalues --  -88.96928 -19.08779 -19.04117 -19.03574 -19.02523
  Beta  occ. eigenvalues --  -19.02294 -14.25064 -10.22678 -10.14891 -10.12749
  Beta  occ. eigenvalues --  -10.12009 -10.11049 -10.07835 -10.06731 -10.05885
  Beta  occ. eigenvalues --   -8.03144  -5.99436  -5.99389  -5.99203  -1.03297
  Beta  occ. eigenvalues --   -1.02562  -0.95634  -0.93321  -0.91551  -0.83448
  Beta  occ. eigenvalues --   -0.75014  -0.68653  -0.65332  -0.60333  -0.59445
  Beta  occ. eigenvalues --   -0.58786  -0.53207  -0.50914  -0.47341  -0.45982
  Beta  occ. eigenvalues --   -0.43676  -0.41468  -0.41185  -0.39980  -0.39269
  Beta  occ. eigenvalues --   -0.37703  -0.37291  -0.36087  -0.35047  -0.34820
  Beta  occ. eigenvalues --   -0.33726  -0.32791  -0.32356  -0.30449  -0.30075
  Beta  occ. eigenvalues --   -0.28596  -0.27933  -0.26858  -0.26185  -0.25903
  Beta  occ. eigenvalues --   -0.24881  -0.24735  -0.24286  -0.23233  -0.21613
  Beta  occ. eigenvalues --   -0.21456  -0.21135  -0.19743  -0.17610
  Beta virt. eigenvalues --    0.05900   0.06975   0.07489   0.07838   0.08305
  Beta virt. eigenvalues --    0.08722   0.09267   0.09834   0.10385   0.10738
  Beta virt. eigenvalues --    0.11503   0.11833   0.12524   0.12973   0.13649

 Mulliken charges and spin densities:
               1          2
     1  C   -0.128627  -0.475080
     2  C   -0.697467   1.371683
     3  C   -0.029346  -0.483147
     4  C    0.333766  -0.909183
     5  C   -0.403823  -0.462217
     6  S    1.116628  -0.956128
     7  O   -0.225665   0.028625
     8  O   -0.068100   0.020695
     9  N   -0.447037   0.295035
    10  C    0.660842  -0.914061
    11  C    0.413697  -0.634945
    12  C   -0.624951   0.213323
    13  O   -0.279368  -0.006929
    14  O   -0.157014   0.054728
    15  O   -0.189676   0.039561
    16  H    0.068337   0.064156
    17  H    0.039278   0.076715
    18  H    0.054185   0.115117
    19  H   -0.117246   0.260760
    20  H   -0.130449   0.279642
    21  H   -0.006062   0.142580
    22  H    0.145186   0.101159
    23  H   -0.168179   0.314075
    24  H    0.061274   0.068657
    25  H    0.176123   0.060120
    26  H   -0.112392   0.392236
    27  H   -0.061810   0.425271
    28  H    0.321850  -0.078625
    29  H   -0.493805   0.677628
    30  H    0.238749   0.068102
    31  H   -0.548376   0.864114
    32  H    0.259480  -0.013667
 Sum of Mulliken charges =  -1.00000   1.00000

 Dipole moment (field-independent basis, Debye):
    X=              4.1547    Y=             -2.3501    Z=              1.2209  Tot=              4.9269
 Quadrupole moment (field-independent basis, Debye-Ang):
   XX=           -183.9901   YY=           -139.4156   ZZ=           -134.9247
   XY=              3.4429   XZ=              9.5753   YZ=             -1.5372

 Summary of Natural Population Analysis:

                                       Natural Population
                Natural  -----------------------------------------------
    Atom  No    Charge         Core      Valence    Rydberg      Total
 -----------------------------------------------------------------------
      C    1   -0.28467      0.99962     2.27886    0.00619     3.28467
      C    2   -0.05578      0.99959     2.04471    0.01148     3.05578
      C    3   -0.28227      0.99963     2.27516    0.00748     3.28227
      C    4   -0.29078      0.99962     2.28326    0.00790     3.29078
      C    5   -0.28559      0.99950     2.26990    0.01618     3.28559
      S    6    1.09679      4.99927     1.80621    0.09772     6.90321
      O    7   -0.46653      0.99990     3.46127    0.00536     4.46653
      O    8   -0.46569      0.99991     3.46052    0.00526     4.46569
      N    9   -0.43568      0.99975     2.92193    0.01399     3.93568
      C   10   -0.09602      0.99958     2.08326    0.01318     3.09602
      C   11    0.00815      0.99952     1.97663    0.01570     2.99185
      C   12    0.40085      0.99970     1.57434    0.02511     2.59915
      O   13   -0.31273      0.99987     3.30604    0.00682     4.31273
      O   14   -0.33391      0.99987     3.32699    0.00706     4.33391
      O   15   -0.37104      0.99989     3.36458    0.00657     4.37104
      H   16    0.09790      0.00000     0.40133    0.00077     0.40210
      H   17    0.10856      0.00000     0.39010    0.00133     0.39144
      H   18    0.10101      0.00000     0.39820    0.00079     0.39899
      H   19    0.10197      0.00000     0.39721    0.00082     0.39803
      H   20    0.10139      0.00000     0.39757    0.00103     0.39861
      H   21    0.09808      0.00000     0.40107    0.00085     0.40192
      H   22    0.12167      0.00000     0.37622    0.00211     0.37833
      H   23    0.09701      0.00000     0.40186    0.00113     0.40299
      H   24    0.09689      0.00000     0.40229    0.00082     0.40311
      H   25    0.11697      0.00000     0.38209    0.00095     0.38303
      H   26    0.12000      0.00000     0.37866    0.00134     0.38000
      H   27    0.20154      0.00000     0.29438    0.00408     0.29846
      H   28    0.10614      0.00000     0.39227    0.00159     0.39386
      H   29    0.10648      0.00000     0.39151    0.00201     0.39352
      H   30    0.10982      0.00000     0.38811    0.00207     0.39018
      H   31    0.24863      0.00000     0.22148    0.02989     0.25137
      H   32    0.24080      0.00000     0.25594    0.00326     0.25920
 =======================================================================
   * Total *    0.00000     18.99522    44.70393    0.30084    64.00000

 Normal termination of Gaussian 16 at Thu Dec 10 17:21:24 2020.
