 Gaussian 16, Revision A.03,

 -----------------------------------------------------------
 # opt freq B3LYP/6-31G(d) empiricaldispersion=gd3bj scf=xqc
 -----------------------------------------------------------

 ------------------------------
 CID_62999568_JID_7664_neutraal
 ------------------------------
 Symbolic Z-matrix:
 Charge =  0 Multiplicity = 1

 SCF Done:  E(RB3LYP) =  -1068.11129424     A.U. after   14 cycles
 SCF Done:  E(RB3LYP) =  -1067.69765025     A.U. after   17 cycles
 SCF Done:  E(RB3LYP) =  -1068.10960922     A.U. after   13 cycles
 SCF Done:  E(RB3LYP) =  -1068.11440545     A.U. after   10 cycles
 SCF Done:  E(RB3LYP) =  -1068.11603347     A.U. after   12 cycles
 SCF Done:  E(RB3LYP) =  -1068.11691115     A.U. after   12 cycles
 SCF Done:  E(RB3LYP) =  -1068.11670132     A.U. after   13 cycles
 SCF Done:  E(RB3LYP) =  -1068.11784402     A.U. after   13 cycles
 SCF Done:  E(RB3LYP) =  -1068.11847717     A.U. after   13 cycles
 SCF Done:  E(RB3LYP) =  -1068.11930610     A.U. after   12 cycles
 SCF Done:  E(RB3LYP) =  -1068.11996384     A.U. after    7 cycles
 SCF Done:  E(RB3LYP) =  -1068.11996415     A.U. after    7 cycles
 SCF Done:  E(RB3LYP) =  -1068.11996450     A.U. after    7 cycles
 SCF Done:  E(RB3LYP) =  -1068.11996467     A.U. after    7 cycles
 SCF Done:  E(RB3LYP) =  -1068.11996478     A.U. after    7 cycles
 Optimization completed.
    -- Stationary point found.
 Normal termination of Gaussian 16 at Fri Dec 11 13:15:09 2020.

 --------------------------------------------------------------------
 #N Geom=AllCheck Guess=TCheck SCRF=Check GenChk RB3LYP/6-31G(d) Freq
 --------------------------------------------------------------------

 Structure from the checkpoint file:  "JID_7664.chk"
 ------------------------------
 CID_62999568_JID_7664_neutraal
 ------------------------------
 Charge =  0 Multiplicity = 1

 SCF Done:  E(RB3LYP) =  -1068.11996478     A.U. after    1 cycles

  Exact polarizability: 185.458  32.410 140.864  -9.563  12.754 145.985
 Approx polarizability: 283.504  57.416 214.684 -24.491  33.353 269.285

                      1                      2                      3
                      A                      A                      A
 Frequencies --     24.8574                46.9772                60.4363
 Red. masses --      5.0072                 7.0733                 4.3843
 Frc consts  --      0.0018                 0.0092                 0.0094
 IR Inten    --      1.0947                 0.5974                 0.2323

                      4                      5                      6
                      A                      A                      A
 Frequencies --     80.5366                92.0665               131.0498
 Red. masses --      3.2726                 3.7436                 3.0164
 Frc consts  --      0.0125                 0.0187                 0.0305
 IR Inten    --      3.0520                 0.3873                 2.0290

                      7                      8                      9
                      A                      A                      A
 Frequencies --    134.7440               152.9032               201.6207
 Red. masses --      3.6104                 1.2874                 3.6030
 Frc consts  --      0.0386                 0.0177                 0.0863
 IR Inten    --      2.1561                 0.1620                 0.6726

                     10                     11                     12
                      A                      A                      A
 Frequencies --    216.8677               233.3545               261.1085
 Red. masses --      2.7886                 3.6126                 2.8862
 Frc consts  --      0.0773                 0.1159                 0.1159
 IR Inten    --      0.6281                 1.2644                 2.7315

                     13                     14                     15
                      A                      A                      A
 Frequencies --    264.4994               293.8296               306.8219
 Red. masses --      3.7197                 3.5693                 4.1343
 Frc consts  --      0.1533                 0.1816                 0.2293
 IR Inten    --      1.8263                 1.6136                 0.1201

                     16                     17                     18
                      A                      A                      A
 Frequencies --    351.3462               411.3641               421.1412
 Red. masses --      2.3784                 5.7328                 3.2081
 Frc consts  --      0.1730                 0.5716                 0.3352
 IR Inten    --      1.5851                 0.7145                 0.1924

                     19                     20                     21
                      A                      A                      A
 Frequencies --    469.9877               492.5140               508.4679
 Red. masses --      3.7131                 3.2302                 2.7076
 Frc consts  --      0.4832                 0.4617                 0.4124
 IR Inten    --      2.2171                 4.3471                 5.5705

                     22                     23                     24
                      A                      A                      A
 Frequencies --    631.6941               632.2317               653.5296
 Red. masses --      6.3351                 3.5414                 4.2607
 Frc consts  --      1.4894                 0.8340                 1.0722
 IR Inten    --      0.0961                 1.7006                 1.0208

                     25                     26                     27
                      A                      A                      A
 Frequencies --    669.0468               677.3038               708.3742
 Red. masses --      4.0231                 4.5509                 2.5345
 Frc consts  --      1.0610                 1.2300                 0.7493
 IR Inten    --     13.6086                 9.5555                18.3590

                     28                     29                     30
                      A                      A                      A
 Frequencies --    713.6914               757.1683               775.2107
 Red. masses --      5.5347                 1.5255                 1.6497
 Frc consts  --      1.6610                 0.5153                 0.5841
 IR Inten    --      8.2238                54.9238                34.7528

                     31                     32                     33
                      A                      A                      A
 Frequencies --    780.2354               804.5905               834.8711
 Red. masses --      1.6460                 1.8567                 1.9104
 Frc consts  --      0.5904                 0.7082                 0.7845
 IR Inten    --     15.1322                58.2674                19.5833

                     34                     35                     36
                      A                      A                      A
 Frequencies --    844.5520               854.2794               925.9367
 Red. masses --      1.4209                 1.2494                 1.3417
 Frc consts  --      0.5971                 0.5372                 0.6778
 IR Inten    --     13.4057                 1.0471                 1.0913

                     37                     38                     39
                      A                      A                      A
 Frequencies --    937.6914               954.0563               970.6169
 Red. masses --      2.7031                 3.2225                 1.3520
 Frc consts  --      1.4003                 1.7282                 0.7504
 IR Inten    --      4.0584                27.3763                 0.4117

                     40                     41                     42
                      A                      A                      A
 Frequencies --    994.0438               998.5830              1021.3136
 Red. masses --      1.2643                 2.0043                 6.1290
 Frc consts  --      0.7360                 1.1775                 3.7667
 IR Inten    --      0.2508                 5.7073                 2.4571

                     43                     44                     45
                      A                      A                      A
 Frequencies --   1036.7301              1053.9160              1085.6687
 Red. masses --      1.7635                 2.9505                 1.6702
 Frc consts  --      1.1167                 1.9309                 1.1599
 IR Inten    --      4.5893                 3.6629                10.8443

                     46                     47                     48
                      A                      A                      A
 Frequencies --   1107.0695              1114.6627              1118.7840
 Red. masses --      1.6125                 2.6918                 1.8502
 Frc consts  --      1.1644                 1.9705                 1.3644
 IR Inten    --      2.0218                 2.5080                11.3973

                     49                     50                     51
                      A                      A                      A
 Frequencies --   1148.1239              1163.2144              1163.8462
 Red. masses --      2.1253                 2.6950                 1.3105
 Frc consts  --      1.6506                 2.1485                 1.0459
 IR Inten    --      6.1981                35.8706                 0.2033

                     52                     53                     54
                      A                      A                      A
 Frequencies --   1194.4639              1203.7334              1213.9107
 Red. masses --      1.0964                 2.5857                 1.1400
 Frc consts  --      0.9217                 2.2075                 0.9897
 IR Inten    --      0.0055                 1.6275                 0.1115

                     55                     56                     57
                      A                      A                      A
 Frequencies --   1227.5773              1241.1544              1261.9555
 Red. masses --      1.4337                 1.2479                 1.3203
 Frc consts  --      1.2729                 1.1326                 1.2389
 IR Inten    --      5.3921                 4.7852                 7.6657

                     58                     59                     60
                      A                      A                      A
 Frequencies --   1295.0529              1310.2103              1331.3110
 Red. masses --      1.5798                 1.9973                 2.3355
 Frc consts  --      1.5611                 2.0201                 2.4388
 IR Inten    --      7.1387                12.0409                 1.4457

                     61                     62                     63
                      A                      A                      A
 Frequencies --   1339.8981              1358.3764              1387.5307
 Red. masses --      1.2652                 2.1042                 3.2374
 Frc consts  --      1.3383                 2.2875                 3.6722
 IR Inten    --     20.1636                 2.0765                 7.6397

                     64                     65                     66
                      A                      A                      A
 Frequencies --   1406.9115              1407.9539              1458.3333
 Red. masses --      2.5797                 1.2507                 2.6928
 Frc consts  --      3.0086                 1.4608                 3.3742
 IR Inten    --      9.1418                10.9587                 4.1360

                     67                     68                     69
                      A                      A                      A
 Frequencies --   1476.5286              1485.5532              1488.7625
 Red. masses --      1.3439                 1.6586                 1.2762
 Frc consts  --      1.7263                 2.1566                 1.6666
 IR Inten    --     10.4090                 0.3092                13.7883

                     70                     71                     72
                      A                      A                      A
 Frequencies --   1500.2407              1514.3397              1521.6251
 Red. masses --      1.0958                 1.0450                 1.3335
 Frc consts  --      1.4532                 1.4119                 1.8191
 IR Inten    --      1.7814                 5.8475                21.7810

                     73                     74                     75
                      A                      A                      A
 Frequencies --   1527.7088              1534.1419              1544.9057
 Red. masses --      1.8523                 1.3884                 1.1062
 Frc consts  --      2.5471                 1.9252                 1.5556
 IR Inten    --     31.9987                17.0377                 4.1221

                     76                     77                     78
                      A                      A                      A
 Frequencies --   1547.1523              1610.2126              1634.0964
 Red. masses --      1.8223                 5.1940                 5.4634
 Frc consts  --      2.5700                 7.9345                 8.5955
 IR Inten    --     32.7157                 3.4249                 1.0266

                     79                     80                     81
                      A                      A                      A
 Frequencies --   1645.0826              2949.2810              3005.0431
 Red. masses --      5.4057                 1.0716                 1.0853
 Frc consts  --      8.6194                 5.4920                 5.7743
 IR Inten    --      6.0330                42.6995                39.6695

                     82                     83                     84
                      A                      A                      A
 Frequencies --   3033.7543              3061.8299              3077.3569
 Red. masses --      1.0649                 1.0342                 1.0606
 Frc consts  --      5.7746                 5.7122                 5.9180
 IR Inten    --     53.8666                38.5809                24.6346

                     85                     86                     87
                      A                      A                      A
 Frequencies --   3090.8076              3127.6328              3130.7756
 Red. masses --      1.0995                 1.1042                 1.1050
 Frc consts  --      6.1886                 6.3638                 6.3814
 IR Inten    --     18.2763                11.8643                22.2101

                     88                     89                     90
                      A                      A                      A
 Frequencies --   3155.2745              3182.1731              3197.7912
 Red. masses --      1.1035                 1.0858                 1.0893
 Frc consts  --      6.4728                 6.4778                 6.5626
 IR Inten    --      9.2167                 3.7637                 8.5376

                     91                     92                     93
                      A                      A                      A
 Frequencies --   3205.4672              3207.7634              3224.3840
 Red. masses --      1.0914                 1.0936                 1.0965
 Frc consts  --      6.6071                 6.6301                 6.7166
 IR Inten    --      4.5952                16.2084                 6.5672

                     94                     95                     96
                      A                      A                      A
 Frequencies --   3252.8039              3269.1895              3516.5873
 Red. masses --      1.0957                 1.0970                 1.0727
 Frc consts  --      6.8304                 6.9079                 7.8160
 IR Inten    --      4.3323                 3.4189                 1.1011

 - Thermochemistry -
 -------------------
 Temperature   298.150 Kelvin.  Pressure   1.00000 Atm.
 Atom     1 has atomic number  6 and mass  12.00000

 Molecular mass:   247.11432 amu.
 Principal axes and moments of inertia in atomic units:
                           1         2         3
     Eigenvalues --  2911.854224679.976685928.59082
           X            0.99875   0.05002   0.00138
           Y           -0.05003   0.99873   0.00559
           Z           -0.00110  -0.00565   0.99998
 This molecule is an asymmetric top.
 Rotational symmetry number  1.
 Warning -- assumption of classical behavior for rotation
           may cause significant error
 Rotational temperatures (Kelvin)      0.02975     0.01851     0.01461
 Rotational constants (GHZ):           0.61979     0.38563     0.30441
 Zero-point vibrational energy     751519.0 (Joules/Mol)
                                  179.61736 (Kcal/Mol)
 Warning -- explicit consideration of  21 degrees of freedom as
           vibrations may cause significant error
 Vibrational temperatures:     35.76    67.59    86.95   115.87   132.46
          (Kelvin)            188.55   193.87   219.99   290.09   312.02
                              335.75   375.68   380.56   422.76   441.45
                              505.51   591.86   605.93   676.21   708.62
                              731.57   908.87   909.64   940.28   962.61
                              974.49  1019.19  1026.84  1089.40  1115.36
                             1122.58  1157.63  1201.19  1215.12  1229.12
                             1332.22  1349.13  1372.67  1396.50  1430.21
                             1436.74  1469.44  1491.62  1516.35  1562.04
                             1592.83  1603.75  1609.68  1651.89  1673.61
                             1674.52  1718.57  1731.90  1746.55  1766.21
                             1785.74  1815.67  1863.29  1885.10  1915.46
                             1927.81  1954.40  1996.35  2024.23  2025.73
                             2098.22  2124.40  2137.38  2142.00  2158.51
                             2178.80  2189.28  2198.03  2207.29  2222.77
                             2226.01  2316.74  2351.10  2366.91  4243.36
                             4323.59  4364.90  4405.29  4427.63  4446.98
                             4499.97  4504.49  4539.74  4578.44  4600.91
                             4611.95  4615.26  4639.17  4680.06  4703.63
                             5059.58

 Zero-point correction=                           0.286238 (Hartree/Particle)
 Thermal correction to Energy=                    0.302301
 Thermal correction to Enthalpy=                  0.303245
 Thermal correction to Gibbs Free Energy=         0.241727
 Sum of electronic and zero-point Energies=          -1067.833726
 Sum of electronic and thermal Energies=             -1067.817664
 Sum of electronic and thermal Enthalpies=           -1067.816720
 Sum of electronic and thermal Free Energies=        -1067.878238

                     E (Thermal)             CV                S
                      KCal/Mol        Cal/Mol-Kelvin    Cal/Mol-Kelvin
 Total                  189.696             61.214            129.476
 Electronic               0.000              0.000              0.000
 Translational            0.889              2.981             42.415
 Rotational               0.889              2.981             32.757
 Vibrational            187.919             55.253             54.304
 Vibration     1          0.593              1.985              6.203
 Vibration     2          0.595              1.979              4.941
 Vibration     3          0.597              1.973              4.443
 Vibration     4          0.600              1.962              3.878
 Vibration     5          0.602              1.955              3.616
 Vibration     6          0.612              1.922              2.931
 Vibration     7          0.613              1.919              2.877
 Vibration     8          0.619              1.899              2.636
 Vibration     9          0.639              1.838              2.118
 Vibration    10          0.646              1.815              1.985
 Vibration    11          0.654              1.790              1.853
 Vibration    12          0.669              1.744              1.654
 Vibration    13          0.671              1.738              1.632
 Vibration    14          0.689              1.685              1.452
 Vibration    15          0.697              1.661              1.379
 Vibration    16          0.728              1.572              1.160
 Vibration    17          0.775              1.446              0.922
 Vibration    18          0.784              1.424              0.888
 Vibration    19          0.827              1.317              0.738
 Vibration    20          0.848              1.267              0.677
 Vibration    21          0.864              1.231              0.637

 Optimization completed.
    -- Stationary point found.
 Normal termination of Gaussian 16 at Fri Dec 11 13:29:55 2020.

 ----------------------------------------------------------------------
 # B3LYP/6-311++G(d,p) empiricaldispersion=gd3bj scf=xqc pop=npa geom=c
 heck
 ----------------------------------------------------------------------

 --------------------------------------
 CID_62999568_JID_7664_Energie_neutraal
 --------------------------------------
 Structure from the checkpoint file:  "JID_7664.chk"
 Charge =  0 Multiplicity = 1

 SCF Done:  E(RB3LYP) =  -1068.32599957     A.U. after   16 cycles
 Normal termination of Gaussian 16 at Fri Dec 11 13:36:12 2020.

 ----------------------------------------------------------------------
 # B3LYP/6-311++G(d,p) empiricaldispersion=gd3bj scf=xqc pop=npa geom=c
 heck
 ----------------------------------------------------------------------

 ------------------------------------
 CID_62999568_JID_7664_Energie_kation
 ------------------------------------
 Structure from the checkpoint file:  "JID_7664.chk"
 Charge =  1 Multiplicity = 2

 SCF Done:  E(UB3LYP) =  -1068.04359446     A.U. after   27 cycles
 Normal termination of Gaussian 16 at Fri Dec 11 13:50:38 2020.
 Gaussian 16:  ES64L-G16RevA.03 25-Dec-2016

 ----------------------------------------------------------------------
 # B3LYP/6-311++G(d,p) empiricaldispersion=gd3bj scf=xqc pop=npa geom=c
 heck
 ----------------------------------------------------------------------

 -----------------------------------
 CID_62999568_JID_7664_Energie_anion
 -----------------------------------
 Structure from the checkpoint file:  "JID_7664.chk"
 Charge = -1 Multiplicity = 2

                         Standard orientation:
 ---------------------------------------------------------------------
 Center     Atomic      Atomic             Coordinates (Angstroms)
 Number     Number       Type             X           Y           Z
 ---------------------------------------------------------------------
      1          6           0        2.342671    0.056319    2.005481
      2          7           0        2.357309   -0.497716    0.666398
      3          6           0        3.327105   -0.310689   -0.283737
      4          7           0        3.047448   -0.931971   -1.409341
      5          6           0        1.838253   -1.555751   -1.181990
      6          6           0        1.384182   -1.298005    0.092150
      7          6           0        0.105604   -1.635735    0.788839
      8          7           0       -0.871835   -2.115366   -0.182079
      9          6           0       -2.230559   -2.224887    0.323053
     10          6           0       -2.915111   -0.913224    0.754963
     11         16           0       -2.996218    0.349093   -0.589297
     12          6           0       -1.436967    1.214300   -0.377371
     13          6           0       -1.200733    1.991204    0.764899
     14          6           0        0.005750    2.676131    0.907533
     15          6           0        0.980169    2.600264   -0.091827
     16          6           0        0.742639    1.840774   -1.236239
     17          6           0       -0.461744    1.150661   -1.379168
     18          1           0        1.484205    0.721009    2.137962
     19          1           0        2.304573   -0.739784    2.756395
     20          1           0        3.258046    0.633250    2.154258
     21          1           0        4.212826    0.277550   -0.081209
     22          1           0        1.358160   -2.156919   -1.941058
     23          1           0        0.252629   -2.427223    1.540404
     24          1           0       -0.230314   -0.741845    1.345874
     25          1           0       -0.869357   -1.492259   -0.986444
     26          1           0       -2.838096   -2.692779   -0.459468
     27          1           0       -2.228448   -2.911406    1.181758
     28          1           0       -3.954208   -1.111754    1.038087
     29          1           0       -2.425420   -0.454852    1.618562
     30          1           0       -1.967458    2.066160    1.530353
     31          1           0        0.179287    3.280786    1.793855
     32          1           0        1.920691    3.131373    0.022689
     33          1           0        1.505495    1.750120   -2.002450
     34          1           0       -0.641123    0.550280   -2.265166
 ---------------------------------------------------------------------

 SCF Done:  E(UB3LYP) =  -1068.31867756     A.U. after   33 cycles
 SCF Done:  E(UB3LYP) =  -1068.31867756     a.u. after    1 cycles

 The electronic state is 2-A.
 Alpha  occ. eigenvalues --  -88.75058 -14.27325 -14.20910 -14.19585 -10.12280
 Alpha  occ. eigenvalues --  -10.11313 -10.11228 -10.10915 -10.10857 -10.10512
 Alpha  occ. eigenvalues --  -10.10508 -10.08640 -10.08358 -10.08272 -10.08189
 Alpha  occ. eigenvalues --  -10.08187 -10.08011  -7.83647  -5.80037  -5.79677
 Alpha  occ. eigenvalues --   -5.79032  -0.92141  -0.82462  -0.78929  -0.77100
 Alpha  occ. eigenvalues --   -0.70801  -0.67817  -0.65756  -0.64963  -0.61907
 Alpha  occ. eigenvalues --   -0.59851  -0.57211  -0.52015  -0.51633  -0.49688
 Alpha  occ. eigenvalues --   -0.48114  -0.46779  -0.43458  -0.42274  -0.39382
 Alpha  occ. eigenvalues --   -0.38740  -0.37660  -0.36594  -0.36258  -0.35240
 Alpha  occ. eigenvalues --   -0.33974  -0.33456  -0.33136  -0.32314  -0.31539
 Alpha  occ. eigenvalues --   -0.30649  -0.30181  -0.29591  -0.28807  -0.28548
 Alpha  occ. eigenvalues --   -0.27090  -0.25878  -0.25183  -0.22503  -0.17881
 Alpha  occ. eigenvalues --   -0.17528  -0.17086  -0.16753  -0.14609  -0.13317
 Alpha  occ. eigenvalues --   -0.12630   0.03920
 Alpha virt. eigenvalues --    0.05869   0.06321   0.07341   0.07407   0.07650
 Alpha virt. eigenvalues --    0.08435   0.08980   0.09141   0.10074   0.10342
 Alpha virt. eigenvalues --    0.10792   0.10920   0.11159   0.11813   0.12192

  Beta  occ. eigenvalues --  -88.75057 -14.27324 -14.20908 -14.19584 -10.12269
  Beta  occ. eigenvalues --  -10.11257 -10.11213 -10.10864 -10.10844 -10.10506
  Beta  occ. eigenvalues --  -10.10459 -10.08644 -10.08351 -10.08216 -10.08189
  Beta  occ. eigenvalues --  -10.08167 -10.07949  -7.83646  -5.80036  -5.79675
  Beta  occ. eigenvalues --   -5.79030  -0.92134  -0.82450  -0.78917  -0.77012
  Beta  occ. eigenvalues --   -0.70728  -0.67770  -0.65679  -0.64887  -0.61844
  Beta  occ. eigenvalues --   -0.59805  -0.57165  -0.51922  -0.51591  -0.49650
  Beta  occ. eigenvalues --   -0.48043  -0.46746  -0.43414  -0.42212  -0.39357
  Beta  occ. eigenvalues --   -0.38704  -0.37625  -0.36536  -0.36197  -0.35191
  Beta  occ. eigenvalues --   -0.33935  -0.33415  -0.33098  -0.32280  -0.31503
  Beta  occ. eigenvalues --   -0.30614  -0.30123  -0.29562  -0.28669  -0.28511
  Beta  occ. eigenvalues --   -0.27023  -0.25830  -0.25122  -0.22409  -0.17873
  Beta  occ. eigenvalues --   -0.17505  -0.16874  -0.16603  -0.14559  -0.13245
  Beta  occ. eigenvalues --   -0.12604
  Beta virt. eigenvalues --    0.06405   0.06728   0.07145   0.07418   0.08001
  Beta virt. eigenvalues --    0.08158   0.08844   0.09310   0.09559   0.10221
  Beta virt. eigenvalues --    0.10541   0.11018   0.11141   0.11450   0.12119

 Mulliken charges and spin densities:
               1          2
     1  C    0.963212  -1.280747
     2  N   -0.086391   0.183882
     3  C    0.046840  -0.128522
     4  N   -0.108641   0.012469
     5  C   -0.344474  -0.466737
     6  C    0.663621   0.084887
     7  C   -0.837259   0.093643
     8  N   -0.008609   0.005640
     9  C   -0.296233  -0.223749
    10  C    0.376057  -0.595531
    11  S    0.335058  -0.396539
    12  C    0.549408   0.152718
    13  C   -0.082913  -0.312470
    14  C    0.131165  -0.437765
    15  C    0.016232  -0.408971
    16  C   -0.328336   0.126804
    17  C   -0.588288   0.237766
    18  H    0.006858   0.202776
    19  H   -0.421584   0.596644
    20  H   -0.672895   0.816773
    21  H   -0.114288   0.266502
    22  H    0.130454  -0.009114
    23  H   -0.077506   0.308110
    24  H    0.618055  -0.479052
    25  H    0.167088   0.012689
    26  H    0.116162   0.043615
    27  H   -0.152105   0.274623
    28  H   -0.374765   0.612844
    29  H   -0.197326   0.359804
    30  H   -0.183579   0.376265
    31  H   -0.574786   0.767781
    32  H   -0.017476   0.187221
    33  H    0.175592   0.000268
    34  H    0.171651   0.015471
 Sum of Mulliken charges =  -1.00000   1.00000

 Dipole moment (field-independent basis, Debye):
    X=             -1.8040    Y=             -1.1828    Z=             -4.9999  Tot=              5.4454
 Quadrupole moment (field-independent basis, Debye-Ang):
   XX=           -178.6067   YY=           -154.2756   ZZ=           -157.4381
   XY=             -0.1581   XZ=              0.0858   YZ=             -6.2026

 Summary of Natural Population Analysis:

                                       Natural Population
                Natural  -----------------------------------------------
    Atom  No    Charge         Core      Valence    Rydberg      Total
 -----------------------------------------------------------------------
      C    1   -0.17531      0.99963     2.16692    0.00877     3.17531
      N    2   -0.20568      0.99962     2.69371    0.01235     3.70568
      C    3    0.10302      0.99962     1.87900    0.01836     2.89698
      N    4   -0.25965      0.99973     2.75017    0.00975     3.75965
      C    5   -0.03826      0.99950     2.02637    0.01239     3.03826
      C    6    0.06215      0.99951     1.92535    0.01299     2.93785
      C    7   -0.10382      0.99959     2.09350    0.01073     3.10382
      N    8   -0.33815      0.99975     2.82776    0.01064     3.83815
      C    9   -0.09111      0.99962     2.07837    0.01312     3.09111
      C   10   -0.25452      0.99958     2.24413    0.01080     3.25452
      S   11    0.09643      4.99954     2.88586    0.01816     7.90357
      C   12   -0.08824      0.99939     2.07481    0.01404     3.08824
      C   13   -0.10022      0.99948     2.08887    0.01187     3.10022
      C   14   -0.10591      0.99955     2.09536    0.01099     3.10591
      C   15   -0.09266      0.99955     2.08250    0.01061     3.09266
      C   16   -0.09421      0.99955     2.08511    0.00955     3.09421
      C   17   -0.10902      0.99948     2.09868    0.01085     3.10902
      H   18    0.10540      0.00000     0.39223    0.00237     0.39460
      H   19    0.10043      0.00000     0.39779    0.00178     0.39957
      H   20    0.10599      0.00000     0.39153    0.00248     0.39401
      H   21    0.09285      0.00000     0.40567    0.00147     0.40715
      H   22    0.09876      0.00000     0.40018    0.00106     0.40124
      H   23    0.09887      0.00000     0.39960    0.00153     0.40113
      H   24    0.09010      0.00000     0.40639    0.00351     0.40990
      H   25    0.17876      0.00000     0.31831    0.00293     0.32124
      H   26    0.09410      0.00000     0.40478    0.00111     0.40590
      H   27    0.09468      0.00000     0.40417    0.00115     0.40532
      H   28    0.10800      0.00000     0.39031    0.00170     0.39200
      H   29    0.10512      0.00000     0.39312    0.00176     0.39488
      H   30    0.10570      0.00000     0.39297    0.00133     0.39430
      H   31    0.10502      0.00000     0.39358    0.00141     0.39498
      H   32    0.10249      0.00000     0.39647    0.00104     0.39751
      H   33    0.10534      0.00000     0.39333    0.00133     0.39466
      H   34    0.10352      0.00000     0.39538    0.00110     0.39648
 =======================================================================
   * Total *   -0.00000     20.99269    44.77227    0.23504    66.00000

 Normal termination of Gaussian 16 at Fri Dec 11 14:08:10 2020.
