 Gaussian 16, Revision A.03,

 -----------------------------------------------------------
 # opt freq B3LYP/6-31G(d) empiricaldispersion=gd3bj scf=xqc
 -----------------------------------------------------------

 -------------------------------
 CID_141286772_JID_1504_neutraal
 -------------------------------
 Symbolic Z-matrix:
 Charge =  0 Multiplicity = 1

 SCF Done:  E(RB3LYP) =  -987.952041936     A.U. after   14 cycles
 SCF Done:  E(RB3LYP) =  -987.956293803     A.U. after   13 cycles
 SCF Done:  E(RB3LYP) =  -987.954437095     A.U. after   13 cycles
 SCF Done:  E(RB3LYP) =  -987.960439526     A.U. after   13 cycles
 SCF Done:  E(RB3LYP) =  -987.963021022     A.U. after   12 cycles
 SCF Done:  E(RB3LYP) =  -987.964215895     A.U. after   13 cycles
 SCF Done:  E(RB3LYP) =  -987.964865695     A.U. after   12 cycles
 SCF Done:  E(RB3LYP) =  -987.965258346     A.U. after   13 cycles
 SCF Done:  E(RB3LYP) =  -987.965386667     A.U. after   12 cycles
 SCF Done:  E(RB3LYP) =  -987.965598165     A.U. after   12 cycles
 SCF Done:  E(RB3LYP) =  -987.965656074     A.U. after   11 cycles
 SCF Done:  E(RB3LYP) =  -987.965690464     A.U. after   10 cycles
 SCF Done:  E(RB3LYP) =  -987.965699699     A.U. after    9 cycles
 SCF Done:  E(RB3LYP) =  -987.965701613     A.U. after    8 cycles
 SCF Done:  E(RB3LYP) =  -987.965702193     A.U. after    7 cycles
 SCF Done:  E(RB3LYP) =  -987.965702343     A.U. after    7 cycles
 Optimization completed.
    -- Stationary point found.
 Normal termination of Gaussian 16 at Tue Dec  8 20:13:31 2020.

 --------------------------------------------------------------------
 #N Geom=AllCheck Guess=TCheck SCRF=Check GenChk RB3LYP/6-31G(d) Freq
 --------------------------------------------------------------------

 Structure from the checkpoint file:  "JID_1504.chk"
 -------------------------------
 CID_141286772_JID_1504_neutraal
 -------------------------------
 Charge =  0 Multiplicity = 1

 SCF Done:  E(RB3LYP) =  -987.965702343     A.U. after    1 cycles

  Exact polarizability:  93.214   1.028  83.350   1.393  -1.424  73.380
 Approx polarizability: 120.190  -0.891 125.572   0.183   2.384 113.045

                      1                      2                      3
                      A                      A                      A
 Frequencies --     53.5564                80.0545                96.4517
 Red. masses --      4.7042                 5.1085                 2.4588
 Frc consts  --      0.0079                 0.0193                 0.0135
 IR Inten    --      1.5131                 4.8024                 2.4177

                      4                      5                      6
                      A                      A                      A
 Frequencies --    116.0214               155.2573               176.0517
 Red. masses --      2.3198                 1.3464                 2.7029
 Frc consts  --      0.0184                 0.0191                 0.0494
 IR Inten    --      0.9085                 0.2718                 0.9358

                      7                      8                      9
                      A                      A                      A
 Frequencies --    182.3609               188.1293               233.4235
 Red. masses --      1.7253                 3.4753                 3.7898
 Frc consts  --      0.0338                 0.0725                 0.1217
 IR Inten    --      0.9192                 5.4860                 8.4705

                     10                     11                     12
                      A                      A                      A
 Frequencies --    290.5472               323.2822               362.7691
 Red. masses --      3.4583                 4.2654                 3.1831
 Frc consts  --      0.1720                 0.2626                 0.2468
 IR Inten    --      4.4774                 0.9908                14.9753

                     13                     14                     15
                      A                      A                      A
 Frequencies --    392.4220               422.9723               451.6816
 Red. masses --      4.2435                 2.9836                 4.9174
 Frc consts  --      0.3850                 0.3145                 0.5911
 IR Inten    --      1.1068                 0.8523                18.7676

                     16                     17                     18
                      A                      A                      A
 Frequencies --    472.8562               522.1994               526.8618
 Red. masses --      7.1366                 4.6389                 5.1342
 Frc consts  --      0.9402                 0.7453                 0.8397
 IR Inten    --     21.3794                 7.5217                16.2180

                     19                     20                     21
                      A                      A                      A
 Frequencies --    628.3357               686.3360               731.4184
 Red. masses --      2.9063                 3.9182                 1.3188
 Frc consts  --      0.6760                 1.0874                 0.4157
 IR Inten    --      1.8837                 7.5491                47.5939

                     22                     23                     24
                      A                      A                      A
 Frequencies --    756.0596               829.6642               892.7082
 Red. masses --      4.3618                 6.0412                 4.6499
 Frc consts  --      1.4690                 2.4501                 2.1833
 IR Inten    --     78.0842               165.6822                15.1078

                     25                     26                     27
                      A                      A                      A
 Frequencies --    910.4540               970.7720              1052.3652
 Red. masses --      2.5023                 2.0837                 5.9630
 Frc consts  --      1.2221                 1.1569                 3.8909
 IR Inten    --     36.9957                26.5776               103.8512

                     28                     29                     30
                      A                      A                      A
 Frequencies --   1063.0751              1079.3589              1122.5738
 Red. masses --      2.3305                 5.8080                 4.5637
 Frc consts  --      1.5518                 3.9867                 3.3884
 IR Inten    --     16.5286                86.4712                42.8667

                     31                     32                     33
                      A                      A                      A
 Frequencies --   1149.2048              1187.0589              1193.2840
 Red. masses --      9.4924                 1.2789                 1.2668
 Frc consts  --      7.3862                 1.0618                 1.0628
 IR Inten    --    149.7825                 0.8353                 1.4174

                     34                     35                     36
                      A                      A                      A
 Frequencies --   1208.5156              1228.0665              1241.3657
 Red. masses --      1.2794                 1.5872                 1.5354
 Frc consts  --      1.1010                 1.4103                 1.3940
 IR Inten    --     11.2708                 5.0860                 5.5569

                     37                     38                     39
                      A                      A                      A
 Frequencies --   1283.0869              1292.2531              1352.6295
 Red. masses --      1.6713                 1.3523                 1.2422
 Frc consts  --      1.6211                 1.3306                 1.3391
 IR Inten    --     82.7557                 4.9721                37.8724

                     40                     41                     42
                      A                      A                      A
 Frequencies --   1391.1075              1414.5702              1475.2111
 Red. masses --      2.2577                 1.4430                 1.1167
 Frc consts  --      2.5741                 1.7013                 1.4318
 IR Inten    --    222.7727                49.3981                 1.6457

                     43                     44                     45
                      A                      A                      A
 Frequencies --   1476.1769              1479.7948              1492.4935
 Red. masses --      1.1185                 1.1162                 1.0780
 Frc consts  --      1.4360                 1.4401                 1.4148
 IR Inten    --      6.5688                 5.9684                 4.2256

                     46                     47                     48
                      A                      A                      A
 Frequencies --   1503.5129              1516.6562              1534.6788
 Red. masses --      1.0537                 1.0777                 1.0466
 Frc consts  --      1.4033                 1.4605                 1.4524
 IR Inten    --      7.7973                 9.8797                 5.2472

                     49                     50                     51
                      A                      A                      A
 Frequencies --   1539.3049              3056.4620              3060.6877
 Red. masses --      1.0483                 1.0298                 1.0288
 Frc consts  --      1.4635                 5.6681                 5.6785
 IR Inten    --     12.9567                40.9233                38.0130

                     52                     53                     54
                      A                      A                      A
 Frequencies --   3096.0437              3106.7195              3130.1794
 Red. masses --      1.0633                 1.0627                 1.1081
 Frc consts  --      6.0049                 6.0434                 6.3966
 IR Inten    --      9.7669                 2.4611                28.4664

                     55                     56                     57
                      A                      A                      A
 Frequencies --   3139.5794              3151.7697              3163.0191
 Red. masses --      1.1083                 1.1036                 1.1059
 Frc consts  --      6.4364                 6.4590                 6.5187
 IR Inten    --     22.0264                 2.1220                11.0218

                     58                     59                     60
                      A                      A                      A
 Frequencies --   3167.7874              3176.8813              3376.1929
 Red. masses --      1.1047                 1.1021                 1.0652
 Frc consts  --      6.5316                 6.5537                 7.1539
 IR Inten    --     14.1557                 0.0510               571.7436

 - Thermochemistry -
 -------------------
 Temperature   298.150 Kelvin.  Pressure   1.00000 Atm.
 Atom     1 has atomic number  6 and mass  12.00000

 Molecular mass:   185.03579 amu.
 Principal axes and moments of inertia in atomic units:
                           1         2         3
     Eigenvalues --  1089.066142744.976343046.19797
           X            0.99992  -0.00368   0.01196
           Y            0.00390   0.99983  -0.01814
           Z           -0.01189   0.01819   0.99976
 This molecule is an asymmetric top.
 Rotational symmetry number  1.
 Warning -- assumption of classical behavior for rotation
           may cause significant error
 Rotational temperatures (Kelvin)      0.07953     0.03155     0.02843
 Rotational constants (GHZ):           1.65715     0.65747     0.59246
 Zero-point vibrational energy     456700.2 (Joules/Mol)
                                  109.15397 (Kcal/Mol)
 Warning -- explicit consideration of  18 degrees of freedom as
           vibrations may cause significant error
 Vibrational temperatures:     77.06   115.18   138.77   166.93   223.38
          (Kelvin)            253.30   262.38   270.68   335.84   418.03
                              465.13   521.94   564.61   608.56   649.87
                              680.33   751.33   758.04   904.03   987.48
                             1052.35  1087.80  1193.70  1284.41  1309.94
                             1396.72  1514.12  1529.53  1552.96  1615.13
                             1653.45  1707.91  1716.87  1738.78  1766.91
                             1786.05  1846.08  1859.26  1946.13  2001.49
                             2035.25  2122.50  2123.89  2129.09  2147.37
                             2163.22  2182.13  2208.06  2214.72  4397.57
                             4403.65  4454.52  4469.88  4503.63  4517.15
                             4534.69  4550.88  4557.74  4570.82  4857.59

 Zero-point correction=                           0.173948 (Hartree/Particle)
 Thermal correction to Energy=                    0.186407
 Thermal correction to Enthalpy=                  0.187351
 Thermal correction to Gibbs Free Energy=         0.135186
 Sum of electronic and zero-point Energies=           -987.791754
 Sum of electronic and thermal Energies=              -987.779296
 Sum of electronic and thermal Enthalpies=            -987.778352
 Sum of electronic and thermal Free Energies=         -987.830516

                     E (Thermal)             CV                S
                      KCal/Mol        Cal/Mol-Kelvin    Cal/Mol-Kelvin
 Total                  116.972             44.900            109.789
 Electronic               0.000              0.000              0.000
 Translational            0.889              2.981             41.552
 Rotational               0.889              2.981             30.588
 Vibrational            115.194             38.938             37.649
 Vibration     1          0.596              1.976              4.682
 Vibration     2          0.600              1.963              3.890
 Vibration     3          0.603              1.952              3.525
 Vibration     4          0.608              1.936              3.166
 Vibration     5          0.620              1.897              2.607
 Vibration     6          0.628              1.872              2.370
 Vibration     7          0.630              1.864              2.304
 Vibration     8          0.633              1.856              2.246
 Vibration     9          0.654              1.790              1.852
 Vibration    10          0.687              1.691              1.471
 Vibration    11          0.708              1.629              1.293
 Vibration    12          0.737              1.549              1.110
 Vibration    13          0.760              1.486              0.991
 Vibration    14          0.785              1.420              0.882
 Vibration    15          0.810              1.357              0.791
 Vibration    16          0.830              1.310              0.730
 Vibration    17          0.877              1.201              0.605
 Vibration    18          0.882              1.191              0.594

 Optimization completed.
    -- Stationary point found.
 Normal termination of Gaussian 16 at Tue Dec  8 20:18:13 2020.

 ----------------------------------------------------------------------
 # B3LYP/6-311++G(d,p) empiricaldispersion=gd3bj scf=xqc pop=npa geom=c
 heck
 ----------------------------------------------------------------------

 ---------------------------------------
 CID_141286772_JID_1504_Energie_neutraal
 ---------------------------------------
 Structure from the checkpoint file:  "JID_1504.chk"
 Charge =  0 Multiplicity = 1

 SCF Done:  E(RB3LYP) =  -988.178687815     A.U. after   14 cycles
 Normal termination of Gaussian 16 at Tue Dec  8 20:20:41 2020.

 ----------------------------------------------------------------------
 # B3LYP/6-311++G(d,p) empiricaldispersion=gd3bj scf=xqc pop=npa geom=c
 heck
 ----------------------------------------------------------------------

 -------------------------------------
 CID_141286772_JID_1504_Energie_kation
 -------------------------------------
 Structure from the checkpoint file:  "JID_1504.chk"
 Charge =  1 Multiplicity = 2

 SCF Done:  E(UB3LYP) =  -987.826131433     A.U. after   27 cycles
 Normal termination of Gaussian 16 at Tue Dec  8 20:26:45 2020.
 Gaussian 16:  ES64L-G16RevA.03 25-Dec-2016

 ----------------------------------------------------------------------
 # B3LYP/6-311++G(d,p) empiricaldispersion=gd3bj scf=xqc pop=npa geom=c
 heck
 ----------------------------------------------------------------------

 ------------------------------------
 CID_141286772_JID_1504_Energie_anion
 ------------------------------------
 Structure from the checkpoint file:  "JID_1504.chk"
 Charge = -1 Multiplicity = 2

                         Standard orientation:
 ---------------------------------------------------------------------
 Center     Atomic      Atomic             Coordinates (Angstroms)
 Number     Number       Type             X           Y           Z
 ---------------------------------------------------------------------
      1          6           0       -3.311793   -0.938699   -0.669836
      2          8           0       -1.990379   -1.121413   -0.158879
      3          7           0       -1.631815   -0.002957    0.607678
      4          6           0       -0.506993   -0.444034    1.450282
      5          6           0        0.656870   -1.173348    0.778376
      6         16           0        1.821514   -0.098810   -0.112331
      7          8           0        1.847629    1.196307    0.573978
      8          8           0        3.046101   -0.849710   -0.345046
      9          8           0        1.110854    0.060455   -1.558753
     10          8           0       -1.128580    0.949789   -0.386996
     11          6           0       -1.283666    2.283786    0.100654
     12          1           0       -3.543574   -1.863411   -1.201965
     13          1           0       -3.342145   -0.092768   -1.363939
     14          1           0       -4.021987   -0.778603    0.148094
     15          1           0       -0.144411    0.442540    1.974961
     16          1           0       -0.961828   -1.113313    2.186511
     17          1           0        1.273909   -1.644038    1.549116
     18          1           0        0.323967   -1.942700    0.080319
     19          1           0        0.230241    0.480846   -1.375371
     20          1           0       -2.303095    2.428747    0.469524
     21          1           0       -0.551463    2.504613    0.883912
     22          1           0       -1.092637    2.930109   -0.758898
 ---------------------------------------------------------------------

 SCF Done:  E(UB3LYP) =  -988.168783948     A.U. after   25 cycles

 The electronic state is 2-A.
 Alpha  occ. eigenvalues --  -88.98285 -19.08112 -19.07731 -19.07101 -19.03012
 Alpha  occ. eigenvalues --  -19.02999 -14.33299 -10.12676 -10.12625 -10.12322
 Alpha  occ. eigenvalues --  -10.11579  -8.04376  -6.00760  -6.00579  -6.00415
 Alpha  occ. eigenvalues --   -1.05499  -1.04015  -0.94811  -0.93936  -0.92384
 Alpha  occ. eigenvalues --   -0.76690  -0.68863  -0.60978  -0.59478  -0.56049
 Alpha  occ. eigenvalues --   -0.51185  -0.46368  -0.44824  -0.43033  -0.41618
 Alpha  occ. eigenvalues --   -0.40326  -0.38195  -0.36761  -0.35937  -0.34765
 Alpha  occ. eigenvalues --   -0.34190  -0.34010  -0.32057  -0.30418  -0.29254
 Alpha  occ. eigenvalues --   -0.27438  -0.27183  -0.25656  -0.23598  -0.22609
 Alpha  occ. eigenvalues --   -0.21928  -0.21382  -0.20786  -0.16073   0.04275
 Alpha virt. eigenvalues --    0.06676   0.07399   0.08434   0.09976   0.10308
 Alpha virt. eigenvalues --    0.10460   0.11088   0.11577   0.13086   0.13394
 Alpha virt. eigenvalues --    0.14103   0.14337   0.14953   0.15751   0.16091

  Beta  occ. eigenvalues --  -88.98282 -19.08101 -19.07718 -19.07089 -19.03002
  Beta  occ. eigenvalues --  -19.02996 -14.33286 -10.12638 -10.12590 -10.12299
  Beta  occ. eigenvalues --  -10.11524  -8.04372  -6.00755  -6.00575  -6.00412
  Beta  occ. eigenvalues --   -1.05478  -1.03993  -0.94792  -0.93916  -0.92367
  Beta  occ. eigenvalues --   -0.76649  -0.68821  -0.60909  -0.59388  -0.56004
  Beta  occ. eigenvalues --   -0.51113  -0.46347  -0.44778  -0.42987  -0.41562
  Beta  occ. eigenvalues --   -0.40305  -0.38174  -0.36725  -0.35883  -0.34723
  Beta  occ. eigenvalues --   -0.34136  -0.33948  -0.32023  -0.30370  -0.29204
  Beta  occ. eigenvalues --   -0.27392  -0.27166  -0.25640  -0.23579  -0.22585
  Beta  occ. eigenvalues --   -0.21897  -0.21366  -0.20754  -0.16026
  Beta virt. eigenvalues --    0.06946   0.07958   0.08223   0.09173   0.10511
  Beta virt. eigenvalues --    0.10937   0.11182   0.11556   0.12289   0.13427
  Beta virt. eigenvalues --    0.13759   0.14062   0.14607   0.15018   0.15823

 Mulliken charges and spin densities:
               1          2
     1  C    1.375245  -1.643495
     2  O    0.020208   0.044283
     3  N   -0.527461   0.311012
     4  C    0.349771  -0.794533
     5  C   -0.293290  -0.390300
     6  S    0.519597  -0.147343
     7  O   -0.281978  -0.008068
     8  O   -0.142962   0.019920
     9  O   -0.258778  -0.007172
    10  O   -0.102095  -0.043882
    11  C    0.660457  -0.971411
    12  H   -0.392491   0.544606
    13  H   -0.494509   0.662383
    14  H   -0.468884   0.631186
    15  H    0.119665   0.082147
    16  H   -0.879411   1.117870
    17  H   -0.235538   0.478211
    18  H    0.226038   0.060312
    19  H    0.284337   0.069859
    20  H   -0.379735   0.546405
    21  H    0.043690   0.130088
    22  H   -0.141878   0.307921
 Sum of Mulliken charges =  -1.00000   1.00000

 Dipole moment (field-independent basis, Debye):
    X=              4.0809    Y=              1.5268    Z=             -1.3853  Tot=              4.5720
 Quadrupole moment (field-independent basis, Debye-Ang):
   XX=           -145.3280   YY=           -108.5868   ZZ=           -111.0973
   XY=             -1.4777   XZ=              1.9112   YZ=              4.3008

 Summary of Natural Population Analysis:

                                       Natural Population
                Natural  -----------------------------------------------
    Atom  No    Charge         Core      Valence    Rydberg      Total
 -----------------------------------------------------------------------
      C    1   -0.09795      0.99961     2.08899    0.00935     3.09795
      O    2   -0.21886      0.99989     3.20737    0.01159     4.21886
      N    3    0.03841      0.99974     2.44395    0.01790     3.46159
      C    4   -0.10886      0.99958     2.09444    0.01484     3.10886
      C    5   -0.30608      0.99955     2.29408    0.01246     3.30608
      S    6    1.12550      4.99939     1.77114    0.10396     6.87450
      O    7   -0.46279      0.99990     3.45688    0.00601     4.46279
      O    8   -0.45534      0.99990     3.44965    0.00579     4.45534
      O    9   -0.44350      0.99990     3.43745    0.00616     4.44350
      O   10   -0.25558      0.99990     3.24353    0.01215     4.25558
      C   11   -0.10053      0.99961     2.09153    0.00939     3.10053
      H   12    0.09303      0.00000     0.40520    0.00176     0.40697
      H   13    0.08845      0.00000     0.40859    0.00295     0.41155
      H   14    0.08962      0.00000     0.40676    0.00363     0.41038
      H   15    0.11257      0.00000     0.38573    0.00170     0.38743
      H   16    0.11863      0.00000     0.37661    0.00476     0.38137
      H   17    0.12472      0.00000     0.37377    0.00152     0.37528
      H   18    0.12737      0.00000     0.37109    0.00154     0.37263
      H   19    0.25465      0.00000     0.24055    0.00480     0.24535
      H   20    0.09339      0.00000     0.40438    0.00223     0.40661
      H   21    0.08941      0.00000     0.40941    0.00118     0.41059
      H   22    0.09374      0.00000     0.40503    0.00123     0.40626
 =======================================================================
   * Total *    0.00000     14.99697    33.76614    0.23689    49.00000

 Normal termination of Gaussian 16 at Tue Dec  8 20:33:21 2020.
