 Gaussian 16, Revision A.03,

 -----------------------------------------------------------
 # opt freq B3LYP/6-31G(d) empiricaldispersion=gd3bj scf=xqc
 -----------------------------------------------------------

 -----------------------------
 CID_11367064_JID_709_neutraal
 -----------------------------
 Symbolic Z-matrix:
 Charge =  0 Multiplicity = 1

 SCF Done:  E(RB3LYP) =  -442.455183951     A.U. after   13 cycles
 SCF Done:  E(RB3LYP) =  -442.457848142     A.U. after   11 cycles
 SCF Done:  E(RB3LYP) =  -442.457886005     A.U. after   11 cycles
 SCF Done:  E(RB3LYP) =  -442.458853527     A.U. after   11 cycles
 SCF Done:  E(RB3LYP) =  -442.459385599     A.U. after   10 cycles
 SCF Done:  E(RB3LYP) =  -442.459490661     A.U. after   10 cycles
 SCF Done:  E(RB3LYP) =  -442.459571246     A.U. after   10 cycles
 SCF Done:  E(RB3LYP) =  -442.459630259     A.U. after   10 cycles
 SCF Done:  E(RB3LYP) =  -442.459636959     A.U. after    8 cycles
 SCF Done:  E(RB3LYP) =  -442.459642139     A.U. after    9 cycles
 SCF Done:  E(RB3LYP) =  -442.459644328     A.U. after    9 cycles
 SCF Done:  E(RB3LYP) =  -442.459645572     A.U. after    8 cycles
 SCF Done:  E(RB3LYP) =  -442.459646130     A.U. after    7 cycles
 SCF Done:  E(RB3LYP) =  -442.459646177     A.U. after    6 cycles
 Optimization completed.
    -- Stationary point found.

 1\1\GINC-NODE204\FOpt\RB3LYP\6-31G(d)\C7H19N3\VSC10255\08-Dec-2020\0\\
 # opt freq B3LYP/6-31G(d) empiricaldispersion=gd3bj scf=xqc\\CID_11367
 064_JID_709_neutraal\\0,1\C,1.0103902141,-0.0790014937,0.0608491142\C,
 0.5931186334,0.3462558209,-1.3511686618\C,1.2734755615,-0.5126140973,-
 2.4379073275\C,0.9790020043,-2.0231824556,-2.3783464365\N,-0.390033270
 6,-2.4382667506,-2.7107759929\N,-0.8873153571,0.3336533488,-1.45557481
 65\C,-1.4784347863,1.5711918033,-1.9817714295\C,-1.3243977878,1.741397
 1644,-3.4954444524\C,-1.8697662778,0.5666531464,-4.3146841233\N,-3.225

 Normal termination of Gaussian 16 at Tue Dec  8 12:41:19 2020.

 --------------------------------------------------------------------
 #N Geom=AllCheck Guess=TCheck SCRF=Check GenChk RB3LYP/6-31G(d) Freq
 --------------------------------------------------------------------

 Structure from the checkpoint file:  "JID_709.chk"
 -----------------------------
 CID_11367064_JID_709_neutraal
 -----------------------------
 Charge =  0 Multiplicity = 1

 SCF Done:  E(RB3LYP) =  -442.459646177     A.U. after    1 cycles

  Exact polarizability: 106.602  -2.220  94.964   1.093   0.646  85.547
 Approx polarizability: 133.568  -1.827 126.724   2.475  -0.440 128.703

                      1                      2                      3
                      A                      A                      A
 Frequencies --     41.2135                58.4210                77.1329
 Red. masses --      2.7271                 3.7645                 2.9325
 Frc consts  --      0.0027                 0.0076                 0.0103
 IR Inten    --      0.2810                 1.7855                 0.5398

                      4                      5                      6
                      A                      A                      A
 Frequencies --    108.7168               160.5023               184.7180
 Red. masses --      4.0654                 3.2592                 2.1998
 Frc consts  --      0.0283                 0.0495                 0.0442
 IR Inten    --      0.1998                 1.3980                 8.0027

                      7                      8                      9
                      A                      A                      A
 Frequencies --    212.5096               246.6483               287.0190
 Red. masses --      2.1301                 1.6248                 1.3595
 Frc consts  --      0.0567                 0.0582                 0.0660
 IR Inten    --      2.2142                 3.7970                 2.1972

                     10                     11                     12
                      A                      A                      A
 Frequencies --    313.6361               335.7610               353.6349
 Red. masses --      1.1587                 1.3979                 2.5380
 Frc consts  --      0.0672                 0.0929                 0.1870
 IR Inten    --     50.4044                30.4632                 9.3255

                     13                     14                     15
                      A                      A                      A
 Frequencies --    366.3689               373.3800               425.2815
 Red. masses --      1.8350                 2.0115                 2.0323
 Frc consts  --      0.1451                 0.1652                 0.2166
 IR Inten    --     17.5416                 4.6062                 2.8314

                     16                     17                     18
                      A                      A                      A
 Frequencies --    473.7534               567.1986               599.3809
 Red. masses --      1.8727                 2.2361                 2.2581
 Frc consts  --      0.2476                 0.4238                 0.4780
 IR Inten    --      4.9255                10.8863                 0.8239

                     19                     20                     21
                      A                      A                      A
 Frequencies --    743.7355               788.1265               810.3814
 Red. masses --      1.8626                 1.8772                 1.6440
 Frc consts  --      0.6070                 0.6870                 0.6361
 IR Inten    --     20.9199                 0.7844                15.6084

                     22                     23                     24
                      A                      A                      A
 Frequencies --    838.9494               882.0434               898.6573
 Red. masses --      2.4028                 1.9878                 1.3950
 Frc consts  --      0.9964                 0.9112                 0.6638
 IR Inten    --      2.3945                 4.4739               134.6455

                     25                     26                     27
                      A                      A                      A
 Frequencies --    909.3066               939.8157               946.2454
 Red. masses --      1.5367                 1.5529                 1.7395
 Frc consts  --      0.7486                 0.8081                 0.9177
 IR Inten    --     31.3361                89.0175                63.4958

                     28                     29                     30
                      A                      A                      A
 Frequencies --    995.7851              1000.6230              1020.9860
 Red. masses --      1.6829                 1.6295                 1.6337
 Frc consts  --      0.9832                 0.9613                 1.0034
 IR Inten    --      0.4426                 1.9790                76.1188

                     31                     32                     33
                      A                      A                      A
 Frequencies --   1031.8233              1083.0339              1109.3651
 Red. masses --      1.9195                 1.6331                 1.7141
 Frc consts  --      1.2041                 1.1286                 1.2429
 IR Inten    --      1.8800                 5.5249                 7.6225

                     34                     35                     36
                      A                      A                      A
 Frequencies --   1125.7538              1145.5842              1167.9965
 Red. masses --      1.8626                 2.8255                 2.1978
 Frc consts  --      1.3908                 2.1847                 1.7665
 IR Inten    --     17.6526                12.7197                39.6109

                     37                     38                     39
                      A                      A                      A
 Frequencies --   1194.3547              1199.2378              1219.3269
 Red. masses --      1.8494                 1.3914                 1.5169
 Frc consts  --      1.5543                 1.1790                 1.3287
 IR Inten    --     25.2671                 6.3288                 1.2356

                     40                     41                     42
                      A                      A                      A
 Frequencies --   1274.5976              1282.1038              1321.7350
 Red. masses --      1.2272                 1.2782                 1.2031
 Frc consts  --      1.1746                 1.2379                 1.2383
 IR Inten    --      6.2404                 3.3161                14.7905

                     43                     44                     45
                      A                      A                      A
 Frequencies --   1353.3878              1371.0279              1389.0084
 Red. masses --      1.3674                 1.1466                 1.4144
 Frc consts  --      1.4757                 1.2698                 1.6078
 IR Inten    --     10.0844                 4.2301                 8.5704

                     46                     47                     48
                      A                      A                      A
 Frequencies --   1401.0281              1407.2065              1415.3231
 Red. masses --      1.2915                 1.2803                 1.3591
 Frc consts  --      1.4937                 1.4938                 1.6040
 IR Inten    --      4.9798                19.7302                 9.7535

                     49                     50                     51
                      A                      A                      A
 Frequencies --   1423.3284              1430.6829              1440.0400
 Red. masses --      1.2386                 1.2884                 1.2985
 Frc consts  --      1.4784                 1.5538                 1.5865
 IR Inten    --     11.6812                 4.5565                 9.8069

                     52                     53                     54
                      A                      A                      A
 Frequencies --   1452.7934              1505.1124              1508.3114
 Red. masses --      1.4139                 1.0907                 1.0995
 Frc consts  --      1.7582                 1.4558                 1.4738
 IR Inten    --     10.4554                 2.8921                 3.6579

                     55                     56                     57
                      A                      A                      A
 Frequencies --   1517.8230              1525.7699              1527.1525
 Red. masses --      1.1427                 1.1396                 1.0610
 Frc consts  --      1.5511                 1.5631                 1.4578
 IR Inten    --     12.5074                 3.1624                 4.1640

                     58                     59                     60
                      A                      A                      A
 Frequencies --   1532.3215              1537.2540              1544.1427
 Red. masses --      1.1015                 1.0850                 1.0668
 Frc consts  --      1.5238                 1.5107                 1.4987
 IR Inten    --      2.9028                 8.7391                 1.0337

                     61                     62                     63
                      A                      A                      A
 Frequencies --   1698.4568              1725.4188              2950.6876
 Red. masses --      1.0868                 1.0775                 1.0741
 Frc consts  --      1.8473                 1.8900                 5.5100
 IR Inten    --     31.7927                22.5749                76.1857

                     64                     65                     66
                      A                      A                      A
 Frequencies --   2972.3121              3013.8795              3025.1304
 Red. masses --      1.0829                 1.0672                 1.0664
 Frc consts  --      5.6368                 5.7116                 5.7501
 IR Inten    --     44.1484                50.9840                35.2800

                     67                     68                     69
                      A                      A                      A
 Frequencies --   3040.4857              3043.1851              3050.1864
 Red. masses --      1.0575                 1.0621                 1.0421
 Frc consts  --      5.7599                 5.7950                 5.7126
 IR Inten    --     20.8644                32.2160                36.8442

                     70                     71                     72
                      A                      A                      A
 Frequencies --   3071.3822              3072.6559              3081.4387
 Red. masses --      1.0978                 1.0937                 1.0983
 Frc consts  --      6.1017                 6.0841                 6.1445
 IR Inten    --     51.2994                23.6099                96.7717

                     73                     74                     75
                      A                      A                      A
 Frequencies --   3084.1833              3096.1327              3112.5675
 Red. masses --      1.0972                 1.0946                 1.1022
 Frc consts  --      6.1491                 6.1821                 6.2914
 IR Inten    --     16.6404                57.5388                31.6440

                     76                     77                     78
                      A                      A                      A
 Frequencies --   3124.0321              3444.5294              3466.2432
 Red. masses --      1.1017                 1.0505                 1.0500
 Frc consts  --      6.3352                 7.3433                 7.4330
 IR Inten    --     26.9237                18.6444                 1.8943

                     79                     80                     81
                      A                      A                      A
 Frequencies --   3501.0223              3528.0009              3548.9954
 Red. masses --      1.0747                 1.0904                 1.0920
 Frc consts  --      7.7614                 7.9962                 8.1034
 IR Inten    --      0.0264                17.6205                 0.2305

 - Thermochemistry -
 -------------------
 Temperature   298.150 Kelvin.  Pressure   1.00000 Atm.
 Atom     1 has atomic number  6 and mass  12.00000

 Molecular mass:   145.15790 amu.
 Principal axes and moments of inertia in atomic units:
                           1         2         3
     Eigenvalues --  1117.244442051.482932618.07675
           X            0.99985  -0.01717  -0.00372
           Y            0.01722   0.99972   0.01616
           Z            0.00344  -0.01622   0.99986
 This molecule is an asymmetric top.
 Rotational symmetry number  1.
 Warning -- assumption of classical behavior for rotation
           may cause significant error
 Rotational temperatures (Kelvin)      0.07752     0.04222     0.03308
 Rotational constants (GHZ):           1.61535     0.87973     0.68934
 Zero-point vibrational energy     718043.4 (Joules/Mol)
                                  171.61649 (Kcal/Mol)
 Warning -- explicit consideration of  18 degrees of freedom as
           vibrations may cause significant error
 Vibrational temperatures:     59.30    84.05   110.98   156.42   230.93
          (Kelvin)            265.77   305.75   354.87   412.96   451.25
                              483.09   508.80   527.12   537.21   611.89
                              681.63   816.07   862.38  1070.07  1133.94
                             1165.96  1207.06  1269.06  1292.97  1308.29
                             1352.19  1361.44  1432.71  1439.67  1468.97
                             1484.56  1558.24  1596.13  1619.71  1648.24
                             1680.49  1718.41  1725.44  1754.34  1833.86
                             1844.66  1901.68  1947.22  1972.60  1998.47
                             2015.77  2024.66  2036.33  2047.85  2058.43
                             2071.90  2090.25  2165.52  2170.12  2183.81
                             2195.24  2197.23  2204.67  2211.77  2221.68
                             2443.70  2482.49  4245.38  4276.49  4336.30
                             4352.49  4374.58  4378.46  4388.54  4419.03
                             4420.87  4433.50  4437.45  4454.64  4478.29
                             4494.79  4955.91  4987.15  5037.19  5076.01
                             5106.21

 Zero-point correction=                           0.273488 (Hartree/Particle)
 Thermal correction to Energy=                    0.285883
 Thermal correction to Enthalpy=                  0.286827
 Thermal correction to Gibbs Free Energy=         0.234974
 Sum of electronic and zero-point Energies=           -442.186158
 Sum of electronic and thermal Energies=              -442.173764
 Sum of electronic and thermal Enthalpies=            -442.172819
 Sum of electronic and thermal Free Energies=         -442.224672

                     E (Thermal)             CV                S
                      KCal/Mol        Cal/Mol-Kelvin    Cal/Mol-Kelvin
 Total                  179.394             46.122            109.133
 Electronic               0.000              0.000              0.000
 Translational            0.889              2.981             40.829
 Rotational               0.889              2.981             30.174
 Vibrational            177.617             40.161             38.131
 Vibration     1          0.594              1.981              5.200
 Vibration     2          0.596              1.974              4.510
 Vibration     3          0.599              1.964              3.963
 Vibration     4          0.606              1.942              3.292
 Vibration     5          0.622              1.891              2.544
 Vibration     6          0.631              1.861              2.280
 Vibration     7          0.644              1.822              2.022
 Vibration     8          0.661              1.768              1.754
 Vibration     9          0.684              1.698              1.491
 Vibration    10          0.701              1.648              1.343
 Vibration    11          0.717              1.604              1.232
 Vibration    12          0.730              1.568              1.150
 Vibration    13          0.739              1.541              1.095
 Vibration    14          0.745              1.527              1.066
 Vibration    15          0.787              1.415              0.874
 Vibration    16          0.831              1.308              0.727
 Vibration    17          0.923              1.102              0.510
 Vibration    18          0.957              1.033              0.451

                           ! Non-Optimized Parameters !

 1\1\GINC-NODE204\Freq\RB3LYP\6-31G(d)\C7H19N3\VSC10255\08-Dec-2020\0\\
 #N Geom=AllCheck Guess=TCheck SCRF=Check GenChk RB3LYP/6-31G(d) Freq\\
 CID_11367064_JID_709_neutraal\\0,1\C,1.0103902141,-0.0790014937,0.0608
 491142\C,0.5931186334,0.3462558209,-1.3511686618\C,1.2734755615,-0.512
 6140973,-2.4379073275\C,0.9790020043,-2.0231824556,-2.3783464365\N,-0.
 3900332706,-2.4382667506,-2.7107759929\N,-0.8873153571,0.3336533488,-1
 .4555748165\C,-1.4784347863,1.5711918033,-1.9817714295\C,-1.3243977878
 ,1.7413971644,-3.4954444524\C,-1.8697662778,0.5666531464,-4.3146841233

 Normal termination of Gaussian 16 at Tue Dec  8 12:52:09 2020.

 ----------------------------------------------------------------------
 # B3LYP/6-311++G(d,p) empiricaldispersion=gd3bj scf=xqc pop=npa geom=c
 heck
 ----------------------------------------------------------------------

 -------------------------------------
 CID_11367064_JID_709_Energie_neutraal
 -------------------------------------
 Structure from the checkpoint file:  "JID_709.chk"
 Charge =  0 Multiplicity = 1

 SCF Done:  E(RB3LYP) =  -442.605557844     A.U. after   13 cycles
 Normal termination of Gaussian 16 at Tue Dec  8 13:09:40 2020.

 ----------------------------------------------------------------------
 # B3LYP/6-311++G(d,p) empiricaldispersion=gd3bj scf=xqc pop=npa geom=c
 heck
 ----------------------------------------------------------------------

 -----------------------------------
 CID_11367064_JID_709_Energie_kation
 -----------------------------------
 Structure from the checkpoint file:  "JID_709.chk"
 Charge =  1 Multiplicity = 2

 SCF Done:  E(UB3LYP) =  -442.311381889     A.U. after   22 cycles
 Normal termination of Gaussian 16 at Tue Dec  8 13:17:18 2020.
 Gaussian 16:  ES64L-G16RevA.03 25-Dec-2016

 ----------------------------------
 CID_11367064_JID_709_Energie_anion
 ----------------------------------
 Structure from the checkpoint file:  "JID_709.chk"
 Charge = -1 Multiplicity = 2

                         Standard orientation:
 ---------------------------------------------------------------------
 Center     Atomic      Atomic             Coordinates (Angstroms)
 Number     Number       Type             X           Y           Z
 ---------------------------------------------------------------------
      1          6           0        2.512659   -1.367065   -0.518875
      2          6           0        1.264841   -0.931845    0.257197
      3          6           0        1.504530    0.367340    1.054826
      4          6           0        1.900061    1.600634    0.221387
      5          7           0        0.861240    2.163455   -0.651048
      6          7           0        0.113445   -0.827642   -0.673487
      7          6           0       -1.090310   -1.554202   -0.248172
      8          6           0       -1.871591   -0.864206    0.873170
      9          6           0       -2.273522    0.580437    0.556841
     10          7           0       -2.903770    0.673229   -0.766392
     11          1           0        2.721463   -0.682368   -1.348891
     12          1           0        2.377349   -2.372161   -0.935176
     13          1           0        3.395722   -1.384834    0.128416
     14          1           0        1.046277   -1.722882    0.994034
     15          1           0        0.604388    0.601708    1.636655
     16          1           0        2.301036    0.161228    1.785050
     17          1           0        2.239097    2.393536    0.899180
     18          1           0        2.769873    1.354957   -0.401686
     19          1           0        0.167381    2.634875   -0.071951
     20          1           0        0.364929    1.378490   -1.075377
     21          1           0        0.397735   -1.207038   -1.573263
     22          1           0       -1.747904   -1.635488   -1.120171
     23          1           0       -0.851250   -2.584780    0.073415
     24          1           0       -2.775454   -1.460041    1.050525
     25          1           0       -1.292418   -0.878024    1.806090
     26          1           0       -3.004129    0.912995    1.303684
     27          1           0       -1.391913    1.230458    0.661041
     28          1           0       -3.324965    1.593781   -0.878004
     29          1           0       -2.173629    0.615741   -1.475322
 ---------------------------------------------------------------------

 SCF Done:  E(UB3LYP) =  -442.590831944     A.U. after   26 cycles

 The electronic state is 2-A.
 Alpha  occ. eigenvalues --  -14.19472 -14.18824 -14.17355 -10.09472 -10.08608
 Alpha  occ. eigenvalues --  -10.08316 -10.08065 -10.05928 -10.05611 -10.05516
 Alpha  occ. eigenvalues --   -0.80698  -0.77674  -0.76615  -0.67538  -0.63965
 Alpha  occ. eigenvalues --   -0.59928  -0.55271  -0.52712  -0.47371  -0.44919
 Alpha  occ. eigenvalues --   -0.39802  -0.39440  -0.38413  -0.35958  -0.35088
 Alpha  occ. eigenvalues --   -0.34011  -0.32580  -0.30844  -0.30120  -0.29223
 Alpha  occ. eigenvalues --   -0.28133  -0.26377  -0.26342  -0.25015  -0.24496
 Alpha  occ. eigenvalues --   -0.22910  -0.22478  -0.21713  -0.14593  -0.13766
 Alpha  occ. eigenvalues --   -0.11856   0.04591
 Alpha virt. eigenvalues --    0.06751   0.07342   0.07954   0.09260   0.09391
 Alpha virt. eigenvalues --    0.09832   0.10376   0.10907   0.12204   0.12258
 Alpha virt. eigenvalues --    0.12903   0.13301   0.14010   0.14636   0.14780

  Beta  occ. eigenvalues --  -14.19446 -14.18796 -14.17339 -10.09459 -10.08587
  Beta  occ. eigenvalues --  -10.08294 -10.08051 -10.05919 -10.05566 -10.05499
  Beta  occ. eigenvalues --   -0.80664  -0.77629  -0.76586  -0.67492  -0.63915
  Beta  occ. eigenvalues --   -0.59865  -0.55198  -0.52648  -0.47319  -0.44858
  Beta  occ. eigenvalues --   -0.39753  -0.39389  -0.38374  -0.35916  -0.35033
  Beta  occ. eigenvalues --   -0.33964  -0.32542  -0.30809  -0.30079  -0.29178
  Beta  occ. eigenvalues --   -0.28088  -0.26333  -0.26305  -0.24977  -0.24463
  Beta  occ. eigenvalues --   -0.22867  -0.22439  -0.21680  -0.14558  -0.13727
  Beta  occ. eigenvalues --   -0.11815
  Beta virt. eigenvalues --    0.06908   0.07813   0.08142   0.08394   0.09768
  Beta virt. eigenvalues --    0.09990   0.10304   0.10864   0.11281   0.12557
  Beta virt. eigenvalues --    0.12799   0.13196   0.13615   0.14294   0.14946

 Mulliken charges and spin densities:
               1          2
     1  C    1.285922  -2.027118
     2  C   -0.896805   0.922418
     3  C    0.208046  -0.327498
     4  C    0.515944  -1.083616
     5  N   -0.297443  -0.026748
     6  N   -0.297600   0.128613
     7  C    0.494242  -0.924671
     8  C   -0.406532   0.275305
     9  C    0.722013  -1.120223
    10  N   -0.434078   0.042069
    11  H   -0.084066   0.243810
    12  H   -0.577621   0.739777
    13  H   -0.183737   0.330231
    14  H   -0.196634   0.375430
    15  H    0.124482  -0.000526
    16  H   -0.479599   0.636557
    17  H   -0.094689   0.256167
    18  H    0.065558   0.079315
    19  H   -0.051079   0.256202
    20  H    0.196566   0.047362
    21  H    0.022577   0.245162
    22  H   -0.183294   0.338989
    23  H   -0.165064   0.302185
    24  H    0.128707   0.010329
    25  H   -0.157448   0.286967
    26  H   -0.600085   0.766402
    27  H    0.232811  -0.126639
    28  H   -0.055244   0.294094
    29  H    0.164147   0.059656
 Sum of Mulliken charges =  -1.00000   1.00000

 Dipole moment (field-independent basis, Debye):
    X=             -0.6963    Y=              0.7147    Z=              0.0376  Tot=              0.9985
 Quadrupole moment (field-independent basis, Debye-Ang):
   XX=           -125.1402   YY=           -114.8705   ZZ=            -99.5739
   XY=              7.9333   XZ=             -0.5286   YZ=             -0.8925

 Summary of Natural Population Analysis:

                                       Natural Population
                Natural  -----------------------------------------------
    Atom  No    Charge         Core      Valence    Rydberg      Total
 -----------------------------------------------------------------------
      C    1   -0.29286      0.99964     2.28655    0.00666     3.29286
      C    2   -0.01230      0.99960     1.99900    0.01370     3.01230
      C    3   -0.19966      0.99960     2.19072    0.00934     3.19966
      C    4   -0.09106      0.99964     2.07991    0.01152     3.09106
      N    5   -0.42808      0.99978     2.91839    0.00991     3.92808
      N    6   -0.35633      0.99972     2.84332    0.01329     3.85633
      C    7   -0.08628      0.99961     2.07507    0.01159     3.08628
      C    8   -0.19619      0.99962     2.18855    0.00802     3.19619
      C    9   -0.09152      0.99963     2.08009    0.01180     3.09152
      N   10   -0.42615      0.99977     2.91594    0.01044     3.92615
      H   11    0.09721      0.00000     0.40152    0.00127     0.40279
      H   12    0.10297      0.00000     0.39512    0.00191     0.39703
      H   13    0.10364      0.00000     0.39509    0.00127     0.39636
      H   14    0.08635      0.00000     0.41113    0.00252     0.41365
      H   15    0.09627      0.00000     0.40185    0.00188     0.40373
      H   16    0.09864      0.00000     0.40000    0.00136     0.40136
      H   17    0.08885      0.00000     0.41011    0.00104     0.41115
      H   18    0.08600      0.00000     0.41255    0.00145     0.41400
      H   19    0.16774      0.00000     0.32962    0.00264     0.33226
      H   20    0.18365      0.00000     0.31309    0.00326     0.31635
      H   21    0.17766      0.00000     0.31936    0.00299     0.32234
      H   22    0.09614      0.00000     0.40246    0.00140     0.40386
      H   23    0.08260      0.00000     0.41566    0.00174     0.41740
      H   24    0.09802      0.00000     0.40072    0.00126     0.40198
      H   25    0.09606      0.00000     0.40255    0.00139     0.40394
      H   26    0.08941      0.00000     0.40907    0.00152     0.41059
      H   27    0.08008      0.00000     0.41730    0.00262     0.41992
      H   28    0.17541      0.00000     0.32271    0.00188     0.32459
      H   29    0.17374      0.00000     0.32407    0.00219     0.32626
 =======================================================================
   * Total *   -0.00000      9.99662    30.86153    0.14186    41.00000

 Normal termination of Gaussian 16 at Tue Dec  8 13:26:51 2020.
