 Gaussian 16, Revision A.03,

 -----------------------------------------------------------
 # opt freq B3LYP/6-31G(d) empiricaldispersion=gd3bj scf=xqc
 -----------------------------------------------------------

 ------------------------------
 CID_53719206_JID_9659_neutraal
 ------------------------------
 Symbolic Z-matrix:
 Charge =  0 Multiplicity = 1

 SCF Done:  E(RB3LYP) =  -808.963016312     A.U. after   16 cycles
 SCF Done:  E(RB3LYP) =  -808.970362077     A.U. after   13 cycles
 SCF Done:  E(RB3LYP) =  -808.971710064     A.U. after   12 cycles
 SCF Done:  E(RB3LYP) =  -808.973211394     A.U. after   12 cycles
 SCF Done:  E(RB3LYP) =  -808.973936251     A.U. after   13 cycles
 SCF Done:  E(RB3LYP) =  -808.975372647     A.U. after   12 cycles
 SCF Done:  E(RB3LYP) =  -808.976257967     A.U. after   12 cycles
 SCF Done:  E(RB3LYP) =  -808.976836274     A.U. after   13 cycles
 SCF Done:  E(RB3LYP) =  -808.977474379     A.U. after   11 cycles
 SCF Done:  E(RB3LYP) =  -808.977691559     A.U. after   12 cycles
 SCF Done:  E(RB3LYP) =  -808.977842427     A.U. after    9 cycles
 SCF Done:  E(RB3LYP) =  -808.977843022     A.U. after    8 cycles
 SCF Done:  E(RB3LYP) =  -808.977843141     A.U. after    7 cycles
 SCF Done:  E(RB3LYP) =  -808.977843221     A.U. after    7 cycles
 SCF Done:  E(RB3LYP) =  -808.977843244     A.U. after    6 cycles
 Optimization completed.
    -- Stationary point found.
 Normal termination of Gaussian 16 at Sat Dec 12 10:15:39 2020.

 --------------------------------------------------------------------
 #N Geom=AllCheck Guess=TCheck SCRF=Check GenChk RB3LYP/6-31G(d) Freq
 --------------------------------------------------------------------

 Structure from the checkpoint file:  "JID_9659.chk"
 ------------------------------
 CID_53719206_JID_9659_neutraal
 ------------------------------
 Charge =  0 Multiplicity = 1

 SCF Done:  E(RB3LYP) =  -808.977843244     A.U. after    1 cycles

  Exact polarizability: 229.499  -4.947 189.984  13.193  -0.012 134.355
 Approx polarizability: 323.910  -6.448 291.236  41.879   2.513 213.541

                      1                      2                      3
                      A                      A                      A
 Frequencies --     35.1112                47.9042                54.8985
 Red. masses --      3.3319                 3.6979                 3.2131
 Frc consts  --      0.0024                 0.0050                 0.0057
 IR Inten    --      0.9899                 0.4337                 0.4691

                      4                      5                      6
                      A                      A                      A
 Frequencies --     63.6414                68.4623                93.2860
 Red. masses --      3.4831                 2.5951                 2.4119
 Frc consts  --      0.0083                 0.0072                 0.0124
 IR Inten    --      0.9819                 0.8591                 1.2547

                      7                      8                      9
                      A                      A                      A
 Frequencies --    101.4703               111.7095               132.3679
 Red. masses --      2.1711                 1.9520                 1.8985
 Frc consts  --      0.0132                 0.0144                 0.0196
 IR Inten    --      0.2016                 0.0567                 0.4790

                     10                     11                     12
                      A                      A                      A
 Frequencies --    149.1360               159.6993               164.2730
 Red. masses --      1.9136                 2.3908                 2.6248
 Frc consts  --      0.0251                 0.0359                 0.0417
 IR Inten    --      0.6887                 2.8241                 0.5585

                     13                     14                     15
                      A                      A                      A
 Frequencies --    197.4902               217.6930               223.7950
 Red. masses --      1.8213                 3.2327                 1.0569
 Frc consts  --      0.0419                 0.0903                 0.0312
 IR Inten    --      0.4806                 0.2533                 0.6526

                     16                     17                     18
                      A                      A                      A
 Frequencies --    256.5847               262.1912               286.3394
 Red. masses --      1.2674                 3.7220                 2.5449
 Frc consts  --      0.0492                 0.1508                 0.1229
 IR Inten    --      0.0365                 3.6171                 0.2730

                     19                     20                     21
                      A                      A                      A
 Frequencies --    307.5277               331.7448               360.6256
 Red. masses --      3.2573                 2.8589                 2.8569
 Frc consts  --      0.1815                 0.1854                 0.2189
 IR Inten    --      1.5522                 7.7467                 3.6057

                     22                     23                     24
                      A                      A                      A
 Frequencies --    375.0204               382.5384               401.8287
 Red. masses --      3.0168                 2.2056                 1.8577
 Frc consts  --      0.2500                 0.1902                 0.1767
 IR Inten    --      4.8366                24.2751                13.7570

                     25                     26                     27
                      A                      A                      A
 Frequencies --    410.8382               415.2897               428.7632
 Red. masses --      3.4980                 2.9080                 3.0104
 Frc consts  --      0.3479                 0.2955                 0.3261
 IR Inten    --      1.8149                 2.9806                 0.5416

                     28                     29                     30
                      A                      A                      A
 Frequencies --    442.7827               481.4929               496.2453
 Red. masses --      1.8185                 2.5458                 5.1315
 Frc consts  --      0.2101                 0.3477                 0.7445
 IR Inten    --     14.2416                 8.2575                 1.9343

                     31                     32                     33
                      A                      A                      A
 Frequencies --    541.6058               580.3989               603.5420
 Red. masses --      3.8803                 2.2584                 4.3762
 Frc consts  --      0.6706                 0.4482                 0.9392
 IR Inten    --      2.7043                40.8313                 6.0637

                     34                     35                     36
                      A                      A                      A
 Frequencies --    616.8592               621.8917               661.7275
 Red. masses --      2.4933                 3.6841                 2.5807
 Frc consts  --      0.5590                 0.8395                 0.6658
 IR Inten    --      2.5228                13.0445                23.7956

                     37                     38                     39
                      A                      A                      A
 Frequencies --    690.0171               742.8073               748.0904
 Red. masses --      3.4246                 1.6333                 1.6749
 Frc consts  --      0.9607                 0.5310                 0.5523
 IR Inten    --     24.3620                93.2007                17.2766

                     40                     41                     42
                      A                      A                      A
 Frequencies --    763.9343               787.7646               807.9041
 Red. masses --      1.6838                 2.6649                 1.4364
 Frc consts  --      0.5790                 0.9744                 0.5524
 IR Inten    --     78.7474                18.0768                15.6486

                     43                     44                     45
                      A                      A                      A
 Frequencies --    823.6682               829.0933               852.7925
 Red. masses --      2.1874                 3.9964                 2.0739
 Frc consts  --      0.8744                 1.6185                 0.8886
 IR Inten    --     25.4848                33.9387                 7.2191

                     46                     47                     48
                      A                      A                      A
 Frequencies --    891.7554               913.0420               934.7069
 Red. masses --      1.6965                 1.9736                 1.9672
 Frc consts  --      0.7949                 0.9694                 1.0127
 IR Inten    --      0.4640                 1.1388                 0.4907

                     49                     50                     51
                      A                      A                      A
 Frequencies --    974.1847               999.7832              1026.7117
 Red. masses --      2.2724                 1.3744                 1.4891
 Frc consts  --      1.2706                 0.8094                 0.9249
 IR Inten    --      2.3331                16.6524                 7.6890

                     52                     53                     54
                      A                      A                      A
 Frequencies --   1042.2324              1047.2077              1053.7353
 Red. masses --      1.0808                 1.4550                 2.5424
 Frc consts  --      0.6917                 0.9401                 1.6632
 IR Inten    --     44.2467                 2.4053                 1.4968

                     55                     56                     57
                      A                      A                      A
 Frequencies --   1062.9404              1074.7916              1085.7287
 Red. masses --      1.6776                 1.5852                 1.5939
 Frc consts  --      1.1167                 1.0789                 1.1070
 IR Inten    --      8.1266                 1.1095                29.9669

                     58                     59                     60
                      A                      A                      A
 Frequencies --   1088.2372              1101.5825              1119.5378
 Red. masses --      1.9274                 2.2082                 2.2609
 Frc consts  --      1.3448                 1.5788                 1.6696
 IR Inten    --      6.1166                 7.1087                 2.3080

                     61                     62                     63
                      A                      A                      A
 Frequencies --   1125.1123              1134.6758              1157.2462
 Red. masses --      2.0521                 1.9744                 2.1057
 Frc consts  --      1.5305                 1.4977                 1.6615
 IR Inten    --      5.3513                13.2841                 3.2968

                     64                     65                     66
                      A                      A                      A
 Frequencies --   1206.4194              1270.9072              1289.9617
 Red. masses --      1.7567                 1.4549                 3.1622
 Frc consts  --      1.5064                 1.3846                 3.1003
 IR Inten    --     26.4677                 1.3697                 5.3432

                     67                     68                     69
                      A                      A                      A
 Frequencies --   1301.5303              1327.8214              1330.9959
 Red. masses --      1.2938                 1.6100                 1.3317
 Frc consts  --      1.2913                 1.6725                 1.3900
 IR Inten    --      2.2950                 5.1971                 3.9937

                     70                     71                     72
                      A                      A                      A
 Frequencies --   1337.7602              1351.1015              1361.0466
 Red. masses --      1.4120                 2.2348                 3.5236
 Frc consts  --      1.4888                 2.4036                 3.8458
 IR Inten    --      4.8811                45.2051               155.3814

                     73                     74                     75
                      A                      A                      A
 Frequencies --   1375.7354              1383.7238              1405.0450
 Red. masses --      1.8462                 2.8882                 1.4650
 Frc consts  --      2.0587                 3.2581                 1.7039
 IR Inten    --     29.3422                33.2501                 1.1404

                     76                     77                     78
                      A                      A                      A
 Frequencies --   1431.1178              1437.9127              1439.6722
 Red. masses --      1.4815                 1.2429                 1.2461
 Frc consts  --      1.7877                 1.5141                 1.5217
 IR Inten    --     13.1120                 1.5637                 1.2632

                     79                     80                     81
                      A                      A                      A
 Frequencies --   1440.8038              1451.6931              1480.2432
 Red. masses --      1.2462                 1.2074                 2.2404
 Frc consts  --      1.5242                 1.4992                 2.8923
 IR Inten    --      2.0939                 0.8963                52.0593

                     82                     83                     84
                      A                      A                      A
 Frequencies --   1482.1893              1488.2216              1510.4150
 Red. masses --      1.6613                 3.0752                 1.0843
 Frc consts  --      2.1503                 4.0129                 1.4574
 IR Inten    --     22.0982                24.6181                 7.9115

                     85                     86                     87
                      A                      A                      A
 Frequencies --   1519.1404              1523.3121              1525.4094
 Red. masses --      1.2199                 1.0770                 1.0568
 Frc consts  --      1.6587                 1.4724                 1.4488
 IR Inten    --     11.3352                 4.2948                 1.2040

                     88                     89                     90
                      A                      A                      A
 Frequencies --   1527.5837              1530.9685              1533.0629
 Red. masses --      1.0682                 1.0669                 1.0816
 Frc consts  --      1.4686                 1.4733                 1.4978
 IR Inten    --      1.7623                 3.8618                 8.6017

                     91                     92                     93
                      A                      A                      A
 Frequencies --   1534.9741              1541.8160              1556.5723
 Red. masses --      1.0600                 1.1027                 1.1044
 Frc consts  --      1.4714                 1.5444                 1.5766
 IR Inten    --      8.0587                 3.1758                 4.1413

                     94                     95                     96
                      A                      A                      A
 Frequencies --   1561.1801              1630.7609              1640.6095
 Red. masses --      1.0980                 3.8801                 5.7194
 Frc consts  --      1.5767                 6.0795                 9.0700
 IR Inten    --      2.5874                12.8659                 0.6700

                     97                     98                     99
                      A                      A                      A
 Frequencies --   1677.6383              1704.9965              1769.7187
 Red. masses --      1.3375                 4.2818                 7.1510
 Frc consts  --      2.2179                 7.3338                13.1955
 IR Inten    --    106.6869                38.8879               283.7867

                    100                    101                    102
                      A                      A                      A
 Frequencies --   3036.5428              3041.5962              3042.7866
 Red. masses --      1.0477                 1.0358                 1.0452
 Frc consts  --      5.6916                 5.6460                 5.7014
 IR Inten    --     34.5528                35.8479                36.6608

                    103                    104                    105
                      A                      A                      A
 Frequencies --   3043.5370              3050.7846              3061.3727
 Red. masses --      1.0394                 1.0647                 1.0670
 Frc consts  --      5.6728                 5.8382                 5.8918
 IR Inten    --     25.1999                15.5522                21.4115

                    106                    107                    108
                      A                      A                      A
 Frequencies --   3066.2888              3082.3062              3086.6471
 Red. masses --      1.0682                 1.0964                 1.0921
 Frc consts  --      5.9174                 6.1372                 6.1304
 IR Inten    --     29.4538                21.6110                 5.9697

                    109                    110                    111
                      A                      A                      A
 Frequencies --   3093.6407              3097.3344              3105.0279
 Red. masses --      1.0970                 1.0937                 1.0996
 Frc consts  --      6.1857                 6.1818                 6.2461
 IR Inten    --      6.9335                12.0558                 8.4163

                    112                    113                    114
                      A                      A                      A
 Frequencies --   3112.9073              3112.9299              3118.7079
 Red. masses --      1.1013                 1.1003                 1.1031
 Frc consts  --      6.2875                 6.2817                 6.3217
 IR Inten    --     42.2239                56.4793                52.5223

                    115                    116                    117
                      A                      A                      A
 Frequencies --   3121.4514              3165.7867              3168.3031
 Red. masses --      1.1030                 1.0939                 1.0599
 Frc consts  --      6.3319                 6.4592                 6.2684
 IR Inten    --     40.6501                28.6226                15.9607

                    118                    119                    120
                      A                      A                      A
 Frequencies --   3170.9318              3196.4523              3258.9447
 Red. masses --      1.0921                 1.0931                 1.1158
 Frc consts  --      6.4695                 6.5803                 6.9819
 IR Inten    --     16.4529                10.5714                 2.5474

                    121                    122                    123
                      A                      A                      A
 Frequencies --   3519.3581              3534.1933              3640.5172
 Red. masses --      1.0736                 1.0491                 1.0957
 Frc consts  --      7.8346                 7.7206                 8.5557
 IR Inten    --     15.8718                14.2753                19.6033

 - Thermochemistry -
 -------------------
 Temperature   298.150 Kelvin.  Pressure   1.00000 Atm.
 Atom     1 has atomic number  6 and mass  12.00000

 Molecular mass:   260.18886 amu.
 Principal axes and moments of inertia in atomic units:
                           1         2         3
     Eigenvalues --  3441.952386095.231608397.59985
           X            0.99922  -0.03907  -0.00519
           Y            0.03906   0.99924  -0.00172
           Z            0.00526   0.00152   0.99999
 This molecule is an asymmetric top.
 Rotational symmetry number  1.
 Warning -- assumption of classical behavior for rotation
           may cause significant error
 Rotational temperatures (Kelvin)      0.02516     0.01421     0.01031
 Rotational constants (GHZ):           0.52434     0.29609     0.21491
 Zero-point vibrational energy     991563.5 (Joules/Mol)
                                  236.98936 (Kcal/Mol)
 Warning -- explicit consideration of  34 degrees of freedom as
           vibrations may cause significant error
 Vibrational temperatures:     50.52    68.92    78.99    91.57    98.50
          (Kelvin)            134.22   145.99   160.73   190.45   214.57
                              229.77   236.35   284.14   313.21   321.99
                              369.17   377.23   411.98   442.46   477.31
                              518.86   539.57   550.39   578.14   591.10
                              597.51   616.89   637.07   692.76   713.99
                              779.25   835.06   868.36   887.52   894.76
                              952.08   992.78  1068.73  1076.34  1099.13
                             1133.42  1162.39  1185.07  1192.88  1226.98
                             1283.04  1313.66  1344.83  1401.63  1438.47
                             1477.21  1499.54  1506.70  1516.09  1529.33
                             1546.39  1562.12  1565.73  1584.93  1610.77
                             1618.79  1632.55  1665.02  1735.77  1828.55
                             1855.97  1872.61  1910.44  1915.01  1924.74
                             1943.93  1958.24  1979.38  1990.87  2021.55
                             2059.06  2068.84  2071.37  2073.00  2088.66
                             2129.74  2132.54  2141.22  2173.15  2185.70
                             2191.71  2194.72  2197.85  2202.72  2205.74
                             2208.49  2218.33  2239.56  2246.19  2346.30
                             2360.47  2413.75  2453.11  2546.23  4368.91
                             4376.18  4377.89  4378.97  4389.40  4404.63
                             4411.71  4434.75  4441.00  4451.06  4456.37
                             4467.44  4478.78  4478.81  4487.13  4491.07
                             4554.86  4558.48  4562.26  4598.98  4688.89
                             5063.57  5084.92  5237.89

 Zero-point correction=                           0.377667 (Hartree/Particle)
 Thermal correction to Energy=                    0.398640
 Thermal correction to Enthalpy=                  0.399585
 Thermal correction to Gibbs Free Energy=         0.328369
 Sum of electronic and zero-point Energies=           -808.600177
 Sum of electronic and thermal Energies=              -808.579203
 Sum of electronic and thermal Enthalpies=            -808.578259
 Sum of electronic and thermal Free Energies=         -808.649475

                     E (Thermal)             CV                S
                      KCal/Mol        Cal/Mol-Kelvin    Cal/Mol-Kelvin
 Total                  250.151             79.086            149.887
 Electronic               0.000              0.000              0.000
 Translational            0.889              2.981             42.568
 Rotational               0.889              2.981             33.532
 Vibrational            248.373             73.124             73.786
 Vibration     1          0.594              1.982              5.517
 Vibration     2          0.595              1.978              4.902
 Vibration     3          0.596              1.976              4.633
 Vibration     4          0.597              1.972              4.341
 Vibration     5          0.598              1.969              4.197
 Vibration     6          0.602              1.954              3.590
 Vibration     7          0.604              1.948              3.426
 Vibration     8          0.607              1.940              3.239
 Vibration     9          0.612              1.921              2.911
 Vibration    10          0.618              1.904              2.683
 Vibration    11          0.622              1.892              2.553
 Vibration    12          0.623              1.886              2.500
 Vibration    13          0.637              1.843              2.156
 Vibration    14          0.646              1.814              1.978
 Vibration    15          0.649              1.805              1.928
 Vibration    16          0.666              1.752              1.685
 Vibration    17          0.669              1.742              1.647
 Vibration    18          0.684              1.699              1.496
 Vibration    19          0.697              1.659              1.376
 Vibration    20          0.714              1.612              1.252
 Vibration    21          0.735              1.553              1.119
 Vibration    22          0.746              1.523              1.059
 Vibration    23          0.752              1.507              1.029
 Vibration    24          0.767              1.466              0.956
 Vibration    25          0.775              1.447              0.924
 Vibration    26          0.779              1.437              0.908
 Vibration    27          0.790              1.408              0.863
 Vibration    28          0.802              1.377              0.818
 Vibration    29          0.838              1.291              0.706
 Vibration    30          0.852              1.258              0.668
 Vibration    31          0.897              1.158              0.562
 Vibration    32          0.937              1.074              0.485
 Vibration    33          0.962              1.024              0.444
 Vibration    34          0.977              0.996              0.422

 Optimization completed.
    -- Stationary point found.
 Normal termination of Gaussian 16 at Sat Dec 12 10:39:33 2020.

 ----------------------------------------------------------------------
 # B3LYP/6-311++G(d,p) empiricaldispersion=gd3bj scf=xqc pop=npa geom=c
 heck
 ----------------------------------------------------------------------

 --------------------------------------
 CID_53719206_JID_9659_Energie_neutraal
 --------------------------------------
 Structure from the checkpoint file:  "JID_9659.chk"
 Charge =  0 Multiplicity = 1

 SCF Done:  E(RB3LYP) =  -809.205573087     A.U. after   16 cycles
 Normal termination of Gaussian 16 at Sat Dec 12 10:50:03 2020.

 ----------------------------------------------------------------------
 # B3LYP/6-311++G(d,p) empiricaldispersion=gd3bj scf=xqc pop=npa geom=c
 heck
 ----------------------------------------------------------------------

 ------------------------------------
 CID_53719206_JID_9659_Energie_kation
 ------------------------------------
 Structure from the checkpoint file:  "JID_9659.chk"
 Charge =  1 Multiplicity = 2

 SCF Done:  E(UB3LYP) =  -808.934676847     A.U. after   24 cycles
 Normal termination of Gaussian 16 at Sat Dec 12 11:11:14 2020.
 Gaussian 16:  ES64L-G16RevA.03 25-Dec-2016

 ----------------------------------------------------------------------
 # B3LYP/6-311++G(d,p) empiricaldispersion=gd3bj scf=xqc pop=npa geom=c
 heck
 ----------------------------------------------------------------------

 -----------------------------------
 CID_53719206_JID_9659_Energie_anion
 -----------------------------------
 Structure from the checkpoint file:  "JID_9659.chk"
 Charge = -1 Multiplicity = 2

                         Standard orientation:
 ---------------------------------------------------------------------
 Center     Atomic      Atomic             Coordinates (Angstroms)
 Number     Number       Type             X           Y           Z
 ---------------------------------------------------------------------
      1          6           0       -4.025947    1.975745    0.118184
      2          6           0       -2.560873    1.707928    0.464321
      3          6           0       -1.701154    1.465567   -0.792103
      4          6           0       -0.329379    0.908634   -0.473898
      5          6           0       -0.127369   -0.480456   -0.539117
      6          6           0        1.119922   -1.050928   -0.247367
      7          6           0        2.190890   -0.229106    0.156657
      8          6           0        2.001058    1.160693    0.198965
      9          6           0        0.743463    1.733464   -0.096797
     10          6           0        0.587997    3.235801    0.000031
     11          6           0        3.138453    2.087204    0.571810
     12          6           0        3.506754   -0.888217    0.516098
     13          6           0        4.443365   -1.069915   -0.691459
     14          7           0        1.251492   -2.447110   -0.279765
     15          7           0       -1.176450   -1.364093   -0.981658
     16          6           0       -2.340781   -1.669413   -0.281689
     17          8           0       -3.383436   -1.888963   -0.888720
     18          6           0       -2.300081   -1.774884    1.202088
     19          6           0       -1.250978   -2.132571    1.947229
     20          1           0       -4.126269    2.837914   -0.552843
     21          1           0       -4.618239    2.180977    1.016932
     22          1           0       -4.465035    1.105843   -0.384401
     23          1           0       -2.141436    2.544569    1.037644
     24          1           0       -2.488952    0.832071    1.118498
     25          1           0       -2.239648    0.770113   -1.442396
     26          1           0       -1.615991    2.398685   -1.359838
     27          1           0        0.920182    3.609360    0.976073
     28          1           0        1.191599    3.756857   -0.755608
     29          1           0       -0.444551    3.557933   -0.131841
     30          1           0        2.984122    2.535058    1.562832
     31          1           0        4.105653    1.584705    0.585432
     32          1           0        3.215824    2.918769   -0.136913
     33          1           0        4.023592   -0.312286    1.288935
     34          1           0        3.301119   -1.864350    0.970967
     35          1           0        4.708381   -0.100801   -1.127787
     36          1           0        5.369262   -1.581215   -0.404524
     37          1           0        3.964707   -1.656693   -1.485148
     38          1           0        2.148937   -2.784446   -0.603139
     39          1           0        0.482900   -2.882409   -0.779451
     40          1           0       -1.395365   -1.310631   -1.973439
     41          1           0       -3.278667   -1.628738    1.651809
     42          1           0       -1.358398   -2.250265    3.022444
     43          1           0       -0.273570   -2.348162    1.527754
 ---------------------------------------------------------------------

 SCF Done:  E(UB3LYP) =  -809.201412464     A.U. after   33 cycles
 SCF Done:  E(UB3LYP) =  -809.201412464     a.u. after    1 cycles

 The electronic state is 2-A.
 Alpha  occ. eigenvalues --  -18.96487 -14.21807 -14.21445 -10.14239 -10.10346
 Alpha  occ. eigenvalues --  -10.09510 -10.07710 -10.07456 -10.07226 -10.07003
 Alpha  occ. eigenvalues --  -10.06992 -10.06948 -10.06911 -10.06850 -10.06739
 Alpha  occ. eigenvalues --  -10.06644 -10.06518 -10.04784 -10.04166  -0.91741
 Alpha  occ. eigenvalues --   -0.83327  -0.79452  -0.74921  -0.70517  -0.68061
 Alpha  occ. eigenvalues --   -0.66169  -0.65179  -0.64013  -0.60659  -0.58153
 Alpha  occ. eigenvalues --   -0.56504  -0.52698  -0.51330  -0.49690  -0.48219
 Alpha  occ. eigenvalues --   -0.46408  -0.44268  -0.42784  -0.40439  -0.38817
 Alpha  occ. eigenvalues --   -0.36707  -0.35554  -0.34741  -0.34577  -0.33859
 Alpha  occ. eigenvalues --   -0.33536  -0.33210  -0.33020  -0.31603  -0.30732
 Alpha  occ. eigenvalues --   -0.30198  -0.29559  -0.29246  -0.29164  -0.28740
 Alpha  occ. eigenvalues --   -0.28111  -0.27196  -0.26574  -0.25817  -0.25460
 Alpha  occ. eigenvalues --   -0.25029  -0.24123  -0.23469  -0.23203  -0.22108
 Alpha  occ. eigenvalues --   -0.19382  -0.16105  -0.15939  -0.14136  -0.12753
 Alpha  occ. eigenvalues --   -0.10318   0.04149
 Alpha virt. eigenvalues --    0.05629   0.06479   0.07342   0.07986   0.08408
 Alpha virt. eigenvalues --    0.08966   0.09130   0.09417   0.09747   0.10137
 Alpha virt. eigenvalues --    0.10707   0.10940   0.11167   0.11313   0.12071

  Beta  occ. eigenvalues --  -18.96302 -14.21774 -14.21432 -10.14082 -10.10335
  Beta  occ. eigenvalues --  -10.09508 -10.07710 -10.07442 -10.07216 -10.07000
  Beta  occ. eigenvalues --  -10.06985 -10.06935 -10.06900 -10.06839 -10.06738
  Beta  occ. eigenvalues --  -10.06617 -10.06474 -10.04716 -10.03915  -0.91418
  Beta  occ. eigenvalues --   -0.83264  -0.79367  -0.74889  -0.70490  -0.68032
  Beta  occ. eigenvalues --   -0.66042  -0.64844  -0.63982  -0.60630  -0.58097
  Beta  occ. eigenvalues --   -0.56467  -0.52631  -0.50802  -0.49645  -0.48125
  Beta  occ. eigenvalues --   -0.46368  -0.44120  -0.42708  -0.40395  -0.38779
  Beta  occ. eigenvalues --   -0.36676  -0.35511  -0.34584  -0.34480  -0.33838
  Beta  occ. eigenvalues --   -0.33381  -0.33117  -0.32948  -0.31575  -0.30688
  Beta  occ. eigenvalues --   -0.30121  -0.29507  -0.29103  -0.29047  -0.28615
  Beta  occ. eigenvalues --   -0.27735  -0.27079  -0.26480  -0.25734  -0.25397
  Beta  occ. eigenvalues --   -0.24982  -0.24065  -0.23373  -0.23173  -0.22050
  Beta  occ. eigenvalues --   -0.19330  -0.15621  -0.14889  -0.13893  -0.12543
  Beta  occ. eigenvalues --   -0.10241
  Beta virt. eigenvalues --    0.06165   0.06745   0.07495   0.08079   0.08301
  Beta virt. eigenvalues --    0.08606   0.09139   0.09238   0.09490   0.09839
  Beta virt. eigenvalues --    0.10194   0.10863   0.11148   0.11180   0.11524

 Mulliken charges and spin densities:
               1          2
     1  C   -0.629938  -0.089009
     2  C   -0.128274   0.002004
     3  C   -0.396621  -0.247983
     4  C    0.761621  -0.152110
     5  C   -0.034074   0.260359
     6  C   -0.387888   0.071230
     7  C    0.966699  -0.485719
     8  C   -0.794976   0.890087
     9  C    0.323594  -0.073198
    10  C   -0.092972  -0.563623
    11  C    0.896676  -1.574146
    12  C   -2.041135   1.494305
    13  C    1.172497  -1.766009
    14  N   -0.358356   0.005414
    15  N   -0.336183   0.025854
    16  C   -0.573856   0.119107
    17  O   -0.298703   0.060787
    18  C    0.349832   0.003342
    19  C   -0.622697   0.258210
    20  H    0.098962   0.015577
    21  H    0.113347   0.008155
    22  H    0.158660   0.016008
    23  H    0.124155   0.020237
    24  H    0.184525   0.012928
    25  H    0.123944   0.011650
    26  H    0.150120   0.041696
    27  H    0.044599   0.105608
    28  H   -0.035565   0.188163
    29  H    0.140332  -0.032579
    30  H   -0.003845   0.176310
    31  H   -0.128275   0.262164
    32  H   -0.064872   0.208617
    33  H   -0.151847   0.317519
    34  H    0.066627   0.096527
    35  H   -0.127725   0.273663
    36  H   -0.477391   0.616840
    37  H   -0.213843   0.346096
    38  H    0.212810   0.055208
    39  H    0.250544   0.021689
    40  H    0.300723   0.016248
    41  H    0.178911   0.003617
    42  H    0.071543   0.027727
    43  H    0.208316  -0.048572
 Sum of Mulliken charges =  -1.00000   1.00000

 Dipole moment (field-independent basis, Debye):
    X=             -2.9555    Y=              2.8171    Z=             -0.1319  Tot=              4.0851
 Quadrupole moment (field-independent basis, Debye-Ang):
   XX=           -209.8809   YY=           -156.2110   ZZ=           -139.7643
   XY=            -11.8911   XZ=             -1.5454   YZ=              0.6922

 Summary of Natural Population Analysis:

                                       Natural Population
                Natural  -----------------------------------------------
    Atom  No    Charge         Core      Valence    Rydberg      Total
 -----------------------------------------------------------------------
      C    1   -0.28655      0.99967     2.28255    0.00432     3.28655
      C    2   -0.19038      0.99963     2.18426    0.00650     3.19038
      C    3   -0.20094      0.99960     2.19309    0.00824     3.20094
      C    4   -0.00372      0.99943     1.99471    0.00958     3.00372
      C    5    0.05309      0.99937     1.93634    0.01120     2.94691
      C    6    0.08935      0.99939     1.90072    0.01055     2.91065
      C    7   -0.03144      0.99943     2.02143    0.01058     3.03144
      C    8   -0.00111      0.99945     1.99273    0.00893     3.00111
      C    9   -0.02845      0.99944     2.01973    0.00929     3.02845
      C   10   -0.29330      0.99964     2.28909    0.00457     3.29330
      C   11   -0.29744      0.99964     2.29200    0.00580     3.29744
      C   12   -0.20430      0.99961     2.19529    0.00940     3.20430
      C   13   -0.28169      0.99966     2.27712    0.00491     3.28169
      N   14   -0.40511      0.99971     2.89615    0.00924     3.90511
      N   15   -0.34163      0.99966     2.83120    0.01077     3.84163
      C   16    0.34698      0.99964     1.63062    0.02276     2.65302
      O   17   -0.30902      0.99988     3.30326    0.00587     4.30902
      C   18   -0.14631      0.99953     2.13653    0.01025     3.14631
      C   19   -0.11661      0.99958     2.10892    0.00811     3.11661
      H   20    0.09030      0.00000     0.40874    0.00097     0.40970
      H   21    0.09505      0.00000     0.40413    0.00082     0.40495
      H   22    0.10423      0.00000     0.39470    0.00107     0.39577
      H   23    0.09038      0.00000     0.40844    0.00119     0.40962
      H   24    0.10720      0.00000     0.39119    0.00161     0.39280
      H   25    0.10613      0.00000     0.39230    0.00157     0.39387
      H   26    0.09725      0.00000     0.40167    0.00108     0.40275
      H   27    0.10148      0.00000     0.39733    0.00119     0.39852
      H   28    0.10098      0.00000     0.39779    0.00122     0.39902
      H   29    0.10126      0.00000     0.39788    0.00086     0.39874
      H   30    0.10267      0.00000     0.39632    0.00101     0.39733
      H   31    0.10480      0.00000     0.39425    0.00095     0.39520
      H   32    0.10383      0.00000     0.39505    0.00112     0.39617
      H   33    0.10228      0.00000     0.39653    0.00118     0.39772
      H   34    0.10210      0.00000     0.39638    0.00151     0.39790
      H   35    0.09925      0.00000     0.39952    0.00123     0.40075
      H   36    0.09859      0.00000     0.39977    0.00164     0.40141
      H   37    0.09321      0.00000     0.40555    0.00125     0.40679
      H   38    0.18552      0.00000     0.31307    0.00141     0.31448
      H   39    0.19304      0.00000     0.30542    0.00154     0.30696
      H   40    0.19067      0.00000     0.30710    0.00224     0.30933
      H   41    0.09640      0.00000     0.40213    0.00147     0.40360
      H   42    0.08464      0.00000     0.41428    0.00108     0.41536
      H   43    0.09734      0.00000     0.40096    0.00170     0.40266
 =======================================================================
   * Total *   -0.00000     18.99196    51.80625    0.20179    71.00000

 Normal termination of Gaussian 16 at Sat Dec 12 11:40:35 2020.
