 Gaussian 16, Revision A.03,

 -----------------------------------------------------------
 # opt freq B3LYP/6-31G(d) empiricaldispersion=gd3bj scf=xqc
 -----------------------------------------------------------

 -------------------------------
 CID_130587436_JID_4196_neutraal
 -------------------------------
 Symbolic Z-matrix:
 Charge =  0 Multiplicity = 1

 SCF Done:  E(RB3LYP) =  -608.539466021     A.U. after   15 cycles
 SCF Done:  E(RB3LYP) =  -608.544840700     A.U. after   13 cycles
 SCF Done:  E(RB3LYP) =  -608.547145279     A.U. after   13 cycles
 SCF Done:  E(RB3LYP) =  -608.548003110     A.U. after   12 cycles
 SCF Done:  E(RB3LYP) =  -608.548193319     A.U. after   12 cycles
 SCF Done:  E(RB3LYP) =  -608.548340058     A.U. after   11 cycles
 SCF Done:  E(RB3LYP) =  -608.548416803     A.U. after   12 cycles
 SCF Done:  E(RB3LYP) =  -608.548425478     A.U. after   10 cycles
 SCF Done:  E(RB3LYP) =  -608.548428225     A.U. after   10 cycles
 SCF Done:  E(RB3LYP) =  -608.548429575     A.U. after    9 cycles
 SCF Done:  E(RB3LYP) =  -608.548429758     A.U. after    7 cycles
 SCF Done:  E(RB3LYP) =  -608.548429869     A.U. after    8 cycles
 Optimization completed.
    -- Stationary point found.
 Normal termination of Gaussian 16 at Thu Dec 10 09:18:40 2020.

 --------------------------------------------------------------------
 #N Geom=AllCheck Guess=TCheck SCRF=Check GenChk RB3LYP/6-31G(d) Freq
 --------------------------------------------------------------------

 Structure from the checkpoint file:  "JID_4196.chk"
 -------------------------------
 CID_130587436_JID_4196_neutraal
 -------------------------------
 Charge =  0 Multiplicity = 1

 SCF Done:  E(RB3LYP) =  -608.548429869     A.U. after    1 cycles

  Exact polarizability: 166.108   5.548 139.175  -6.078  -5.586  82.113
 Approx polarizability: 234.615  18.807 230.293 -13.714 -16.817 116.767

                      1                      2                      3
                      A                      A                      A
 Frequencies --     29.2156                46.9565                65.3603
 Red. masses --      3.4601                 4.0485                 3.2129
 Frc consts  --      0.0017                 0.0053                 0.0081
 IR Inten    --      1.4148                 1.5484                 1.9098

                      4                      5                      6
                      A                      A                      A
 Frequencies --     96.0968               136.8051               169.9807
 Red. masses --      4.4999                 6.5328                 5.5734
 Frc consts  --      0.0245                 0.0720                 0.0949
 IR Inten    --      1.8392                 0.9202                 0.1648

                      7                      8                      9
                      A                      A                      A
 Frequencies --    187.1905               209.3763               223.8370
 Red. masses --      5.3778                 1.5492                 1.2190
 Frc consts  --      0.1110                 0.0400                 0.0360
 IR Inten    --      0.3541                 0.1482                 0.1133

                     10                     11                     12
                      A                      A                      A
 Frequencies --    236.2234               274.2190               336.8477
 Red. masses --      1.1188                 1.8478                 2.6348
 Frc consts  --      0.0368                 0.0819                 0.1761
 IR Inten    --      0.1536                 0.2774                 0.8174

                     13                     14                     15
                      A                      A                      A
 Frequencies --    355.5178               376.8403               382.4712
 Red. masses --      2.4146                 5.1845                 2.1908
 Frc consts  --      0.1798                 0.4338                 0.1888
 IR Inten    --      1.8170                13.3696                 0.0338

                     16                     17                     18
                      A                      A                      A
 Frequencies --    414.1363               448.1063               484.0054
 Red. masses --      1.7381                 1.6907                 2.9039
 Frc consts  --      0.1756                 0.2000                 0.4008
 IR Inten    --     21.0007                62.8878                29.6999

                     19                     20                     21
                      A                      A                      A
 Frequencies --    491.5364               512.2924               539.3208
 Red. masses --      4.5438                 6.3907                 3.1788
 Frc consts  --      0.6468                 0.9882                 0.5448
 IR Inten    --      2.6036                 1.9733                 7.6322

                     22                     23                     24
                      A                      A                      A
 Frequencies --    600.4669               630.7615               705.7431
 Red. masses --      6.1256                 6.3751                 5.1012
 Frc consts  --      1.3013                 1.4944                 1.4970
 IR Inten    --      0.8359                 3.8275                 0.0712

                     25                     26                     27
                      A                      A                      A
 Frequencies --    768.1737               798.8079               821.9241
 Red. masses --      6.6586                 4.2552                 2.1159
 Frc consts  --      2.3150                 1.5998                 0.8422
 IR Inten    --      5.6434                 2.8669                 0.2631

                     28                     29                     30
                      A                      A                      A
 Frequencies --    834.5629               909.7505               944.6988
 Red. masses --      1.7737                 2.3511                 1.1917
 Frc consts  --      0.7279                 1.1465                 0.6266
 IR Inten    --     34.8417                 2.4318                 1.0704

                     31                     32                     33
                      A                      A                      A
 Frequencies --    963.0266               980.6766               994.5600
 Red. masses --      1.8629                 1.4414                 8.1349
 Frc consts  --      1.0179                 0.8167                 4.7409
 IR Inten    --      0.8060                 1.0004                19.2767

                     34                     35                     36
                      A                      A                      A
 Frequencies --    996.0891              1010.7567              1037.5111
 Red. masses --      1.3672                 1.2599                 4.1830
 Frc consts  --      0.7992                 0.7584                 2.6529
 IR Inten    --      0.3776                14.0992                16.6237

                     37                     38                     39
                      A                      A                      A
 Frequencies --   1093.1953              1130.8094              1146.9526
 Red. masses --      3.4277                 1.6155                 2.0174
 Frc consts  --      2.4135                 1.2171                 1.5636
 IR Inten    --     17.2760                18.9530                40.2744

                     40                     41                     42
                      A                      A                      A
 Frequencies --   1181.1211              1202.7464              1212.3900
 Red. masses --      2.3466                 1.9469                 1.7350
 Frc consts  --      1.9288                 1.6593                 1.5026
 IR Inten    --     19.8192                 4.4581                 1.0424

                     43                     44                     45
                      A                      A                      A
 Frequencies --   1265.1577              1287.1655              1324.0786
 Red. masses --      2.2992                 2.0643                 1.7612
 Frc consts  --      2.1683                 2.0151                 1.8192
 IR Inten    --     27.7049                 8.5056                14.6538

                     46                     47                     48
                      A                      A                      A
 Frequencies --   1364.7527              1379.7215              1400.1663
 Red. masses --      1.4086                 1.8503                 1.4649
 Frc consts  --      1.5458                 2.0753                 1.6921
 IR Inten    --      9.6329                29.2417                 0.2239

                     49                     50                     51
                      A                      A                      A
 Frequencies --   1403.7829              1427.8594              1432.1154
 Red. masses --      1.5684                 3.2916                 1.3048
 Frc consts  --      1.8210                 3.9539                 1.5767
 IR Inten    --      6.3038               112.1116                 1.9266

                     52                     53                     54
                      A                      A                      A
 Frequencies --   1437.0336              1452.2841              1499.6093
 Red. masses --      1.2719                 1.2275                 1.6023
 Frc consts  --      1.5476                 1.5253                 2.1230
 IR Inten    --     18.3195                 4.2434                 2.9973

                     55                     56                     57
                      A                      A                      A
 Frequencies --   1516.7604              1520.2906              1522.3062
 Red. masses --      1.1265                 1.0707                 1.1019
 Frc consts  --      1.5269                 1.4580                 1.5045
 IR Inten    --     13.5125                 3.7254                15.9204

                     58                     59                     60
                      A                      A                      A
 Frequencies --   1531.3931              1538.1275              1538.7250
 Red. masses --      1.1422                 1.1064                 2.7223
 Frc consts  --      1.5782                 1.5422                 3.7976
 IR Inten    --     70.5560                18.5181                93.0639

                     61                     62                     63
                      A                      A                      A
 Frequencies --   1549.7177              1618.7897              1650.7949
 Red. masses --      1.0746                 3.4909                 6.2804
 Frc consts  --      1.5206                 5.3897                10.0837
 IR Inten    --     14.7857                56.6388               742.3710

                     64                     65                     66
                      A                      A                      A
 Frequencies --   2370.6924              2983.2465              3048.2035
 Red. masses --     12.6909                 1.0824                 1.0374
 Frc consts  --     42.0236                 5.6758                 5.6793
 IR Inten    --      0.0517                31.2618                17.8005

                     67                     68                     69
                      A                      A                      A
 Frequencies --   3051.5085              3053.5161              3095.6319
 Red. masses --      1.0396                 1.0397                 1.0840
 Frc consts  --      5.7033                 5.7115                 6.1204
 IR Inten    --     30.8178                13.2666                 6.0548

                     70                     71                     72
                      A                      A                      A
 Frequencies --   3111.4668              3117.3853              3127.3595
 Red. masses --      1.1012                 1.1001                 1.0980
 Frc consts  --      6.2811                 6.2988                 6.3271
 IR Inten    --      1.9885                52.5126                28.5401

                     73                     74                     75
                      A                      A                      A
 Frequencies --   3130.5520              3134.3124              3147.2528
 Red. masses --      1.1014                 1.1005                 1.1021
 Frc consts  --      6.3599                 6.3697                 6.4318
 IR Inten    --     35.8373                33.2829                24.9809

                     76                     77                     78
                      A                      A                      A
 Frequencies --   3187.8850              3210.7087              3610.8689
 Red. masses --      1.0891                 1.0956                 1.0765
 Frc consts  --      6.5209                 6.6545                 8.2693
 IR Inten    --     17.4623                13.8639                33.5253

 - Thermochemistry -
 -------------------
 Temperature   298.150 Kelvin.  Pressure   1.00000 Atm.
 Atom     1 has atomic number  6 and mass  12.00000

 Molecular mass:   190.12185 amu.
 Principal axes and moments of inertia in atomic units:
                           1         2         3
     Eigenvalues --  1530.707914850.495505601.16910
           X            0.99970  -0.02392   0.00583
           Y            0.02375   0.99934   0.02751
           Z           -0.00648  -0.02736   0.99960
 This molecule is an asymmetric top.
 Rotational symmetry number  1.
 Warning -- assumption of classical behavior for rotation
           may cause significant error
 Rotational temperatures (Kelvin)      0.05658     0.01786     0.01546
 Rotational constants (GHZ):           1.17902     0.37207     0.32221
 Zero-point vibrational energy     616210.1 (Joules/Mol)
                                  147.27775 (Kcal/Mol)
 Warning -- explicit consideration of  22 degrees of freedom as
           vibrations may cause significant error
 Vibrational temperatures:     42.03    67.56    94.04   138.26   196.83
          (Kelvin)            244.56   269.33   301.25   322.05   339.87
                              394.54   484.65   511.51   542.19   550.29
                              595.85   644.72   696.38   707.21   737.07
                              775.96   863.94   907.53  1015.41  1105.23
                             1149.31  1182.57  1200.75  1308.93  1359.21
                             1385.58  1410.97  1430.95  1433.15  1454.25
                             1492.75  1572.86  1626.98  1650.21  1699.37
                             1730.48  1744.36  1820.28  1851.94  1905.05
                             1963.57  1985.11  2014.53  2019.73  2054.37
                             2060.49  2067.57  2089.51  2157.60  2182.28
                             2187.36  2190.26  2203.33  2213.02  2213.88
                             2229.70  2329.08  2375.13  3410.90  4292.23
                             4385.68  4390.44  4393.33  4453.92  4476.71
                             4485.22  4499.57  4504.17  4509.58  4528.19
                             4586.66  4619.49  5195.23

 Zero-point correction=                           0.234702 (Hartree/Particle)
 Thermal correction to Energy=                    0.248813
 Thermal correction to Enthalpy=                  0.249757
 Thermal correction to Gibbs Free Energy=         0.193013
 Sum of electronic and zero-point Energies=           -608.313728
 Sum of electronic and thermal Energies=              -608.299617
 Sum of electronic and thermal Enthalpies=            -608.298672
 Sum of electronic and thermal Free Energies=         -608.355416

                     E (Thermal)             CV                S
                      KCal/Mol        Cal/Mol-Kelvin    Cal/Mol-Kelvin
 Total                  156.133             52.491            119.428
 Electronic               0.000              0.000              0.000
 Translational            0.889              2.981             41.633
 Rotational               0.889              2.981             32.098
 Vibrational            154.355             46.530             45.697
 Vibration     1          0.593              1.984              5.882
 Vibration     2          0.595              1.979              4.942
 Vibration     3          0.597              1.971              4.288
 Vibration     4          0.603              1.952              3.532
 Vibration     5          0.614              1.917              2.848
 Vibration     6          0.625              1.879              2.436
 Vibration     7          0.632              1.857              2.255
 Vibration     8          0.642              1.826              2.049
 Vibration     9          0.649              1.805              1.928
 Vibration    10          0.655              1.785              1.831
 Vibration    11          0.677              1.721              1.569
 Vibration    12          0.718              1.602              1.227
 Vibration    13          0.731              1.564              1.142
 Vibration    14          0.747              1.519              1.052
 Vibration    15          0.752              1.508              1.029
 Vibration    16          0.778              1.440              0.912
 Vibration    17          0.807              1.365              0.802
 Vibration    18          0.840              1.286              0.699
 Vibration    19          0.847              1.269              0.680
 Vibration    20          0.867              1.223              0.628
 Vibration    21          0.894              1.163              0.567
 Vibration    22          0.959              1.031              0.449

                           ! Non-Optimized Parameters !
 Normal termination of Gaussian 16 at Thu Dec 10 09:25:52 2020.

 ----------------------------------------------------------------------
 # B3LYP/6-311++G(d,p) empiricaldispersion=gd3bj scf=xqc pop=npa geom=c
 heck
 ----------------------------------------------------------------------

 ---------------------------------------
 CID_130587436_JID_4196_Energie_neutraal
 ---------------------------------------
 Structure from the checkpoint file:  "JID_4196.chk"
 Charge =  0 Multiplicity = 1

 SCF Done:  E(RB3LYP) =  -608.713888113     A.U. after   15 cycles
 Normal termination of Gaussian 16 at Thu Dec 10 09:28:41 2020.

 ----------------------------------------------------------------------
 # B3LYP/6-311++G(d,p) empiricaldispersion=gd3bj scf=xqc pop=npa geom=c
 heck
 ----------------------------------------------------------------------

 -------------------------------------
 CID_130587436_JID_4196_Energie_kation
 -------------------------------------
 Structure from the checkpoint file:  "JID_4196.chk"
 Charge =  1 Multiplicity = 2

 SCF Done:  E(UB3LYP) =  -608.395793993     A.U. after   22 cycles
 Normal termination of Gaussian 16 at Thu Dec 10 09:34:10 2020.
 Gaussian 16:  ES64L-G16RevA.03 25-Dec-2016

 ----------------------------------------------------------------------
 # B3LYP/6-311++G(d,p) empiricaldispersion=gd3bj scf=xqc pop=npa geom=c
 heck
 ----------------------------------------------------------------------

 ------------------------------------
 CID_130587436_JID_4196_Energie_anion
 ------------------------------------
 Structure from the checkpoint file:  "JID_4196.chk"
 Charge = -1 Multiplicity = 2

                         Standard orientation:
 ---------------------------------------------------------------------
 Center     Atomic      Atomic             Coordinates (Angstroms)
 Number     Number       Type             X           Y           Z
 ---------------------------------------------------------------------
      1          6           0       -4.073117    1.030960   -0.097994
      2          6           0       -3.074648   -0.129233   -0.199297
      3          6           0       -2.980602   -0.624072   -1.649070
      4          6           0       -1.686220    0.265337    0.344846
      5          6           0       -1.703805    0.851089    1.761703
      6          7           0       -0.810284   -0.911333    0.294481
      7          6           0        0.538416   -0.854725    0.186265
      8          7           0        1.105110    0.351055   -0.015868
      9          6           0        2.434755    0.363654   -0.146841
     10          7           0        3.288158   -0.659410   -0.095808
     11          6           0        2.702910   -1.856475    0.113519
     12          6           0        1.341910   -2.020889    0.261262
     13          6           0        3.021970    1.672635   -0.368050
     14          7           0        3.485292    2.722324   -0.544449
     15          1           0       -3.696745    1.914769   -0.628198
     16          1           0       -4.274177    1.317546    0.938020
     17          1           0       -5.027333    0.751005   -0.556782
     18          1           0       -3.453160   -0.954033    0.428017
     19          1           0       -2.634966    0.182906   -2.306848
     20          1           0       -2.279675   -1.457600   -1.752950
     21          1           0       -3.960605   -0.953704   -2.010497
     22          1           0       -1.240641    1.001645   -0.330908
     23          1           0       -2.183063    0.160442    2.466746
     24          1           0       -0.679146    1.035255    2.096074
     25          1           0       -2.242164    1.802385    1.792886
     26          1           0       -1.211594   -1.796828    0.571860
     27          1           0        3.373011   -2.711798    0.161695
     28          1           0        0.902916   -3.000129    0.424339
 ---------------------------------------------------------------------

 SCF Done:  E(UB3LYP) =  -608.725826154     A.U. after   33 cycles
 SCF Done:  E(UB3LYP) =  -608.725826154     a.u. after    1 cycles

 The electronic state is 2-A.
 Alpha  occ. eigenvalues --  -14.21772 -14.16396 -14.15828 -14.15148 -10.12373
 Alpha  occ. eigenvalues --  -10.10669 -10.09449 -10.08827 -10.07481 -10.07109
 Alpha  occ. eigenvalues --  -10.06643 -10.06149 -10.05025 -10.03290  -0.86169
 Alpha  occ. eigenvalues --   -0.81957  -0.75033  -0.74006  -0.71207  -0.65617
 Alpha  occ. eigenvalues --   -0.63006  -0.59712  -0.54812  -0.54434  -0.50129
 Alpha  occ. eigenvalues --   -0.48048  -0.44428  -0.40353  -0.36556  -0.36196
 Alpha  occ. eigenvalues --   -0.34970  -0.34177  -0.33402  -0.33072  -0.30831
 Alpha  occ. eigenvalues --   -0.30045  -0.29440  -0.28975  -0.27722  -0.26778
 Alpha  occ. eigenvalues --   -0.25042  -0.24798  -0.23041  -0.22207  -0.22007
 Alpha  occ. eigenvalues --   -0.19608  -0.18699  -0.16734  -0.15474  -0.11812
 Alpha  occ. eigenvalues --   -0.10589   0.04022
 Alpha virt. eigenvalues --    0.05591   0.07356   0.07695   0.08713   0.09615
 Alpha virt. eigenvalues --    0.10457   0.10952   0.11192   0.11405   0.11751
 Alpha virt. eigenvalues --    0.12942   0.13256   0.14048   0.14494   0.15207

  Beta  occ. eigenvalues --  -14.21783 -14.16404 -14.15549 -14.14837 -10.12415
  Beta  occ. eigenvalues --  -10.10670 -10.09038 -10.08820 -10.07468 -10.06992
  Beta  occ. eigenvalues --  -10.06630 -10.06144 -10.05058 -10.03014  -0.85913
  Beta  occ. eigenvalues --   -0.81722  -0.74586  -0.73705  -0.71065  -0.65306
  Beta  occ. eigenvalues --   -0.62790  -0.59671  -0.54669  -0.53808  -0.49984
  Beta  occ. eigenvalues --   -0.47945  -0.44205  -0.40270  -0.36451  -0.36099
  Beta  occ. eigenvalues --   -0.34759  -0.34092  -0.33220  -0.33020  -0.30421
  Beta  occ. eigenvalues --   -0.29965  -0.29362  -0.28339  -0.27574  -0.26703
  Beta  occ. eigenvalues --   -0.24968  -0.24672  -0.23021  -0.21564  -0.21434
  Beta  occ. eigenvalues --   -0.18632  -0.18524  -0.16484  -0.13747  -0.11609
  Beta  occ. eigenvalues --   -0.09670
  Beta virt. eigenvalues --    0.05925   0.07463   0.07771   0.08775   0.09560
  Beta virt. eigenvalues --    0.09792   0.10463   0.11120   0.11299   0.11450
  Beta virt. eigenvalues --    0.11817   0.12973   0.13225   0.14057   0.14448

 Mulliken charges and spin densities:
               1          2
     1  C   -0.164532  -0.543877
     2  C   -0.142457   0.462230
     3  C   -0.242432  -0.288993
     4  C   -0.078216  -0.189410
     5  C   -0.253828  -0.321928
     6  N    0.046584   0.052782
     7  C    0.587061  -0.379568
     8  N   -0.121666   0.114835
     9  C    0.830866   0.339018
    10  N   -0.096498  -0.013600
    11  C    0.086776   0.014398
    12  C   -0.800078   0.613125
    13  C   -1.369898  -0.108611
    14  N   -0.340914   0.166317
    15  H    0.115141   0.033436
    16  H    0.062918   0.079178
    17  H   -0.077645   0.219858
    18  H   -0.171052   0.293424
    19  H    0.124656   0.012256
    20  H    0.037125   0.111753
    21  H   -0.077806   0.216805
    22  H    0.258069  -0.005238
    23  H    0.091307   0.050605
    24  H    0.180059  -0.004658
    25  H    0.115097   0.005765
    26  H    0.286253  -0.012124
    27  H    0.129519  -0.004597
    28  H   -0.014410   0.086819
 Sum of Mulliken charges =  -1.00000   1.00000

 Dipole moment (field-independent basis, Debye):
    X=             -7.8521    Y=             -3.7631    Z=              1.9776  Tot=              8.9291
 Quadrupole moment (field-independent basis, Debye-Ang):
   XX=           -156.8632   YY=           -114.0130   ZZ=            -97.8331
   XY=            -19.1315   XZ=              2.1309   YZ=              0.2852

 Summary of Natural Population Analysis:

                                       Natural Population
                Natural  -----------------------------------------------
    Atom  No    Charge         Core      Valence    Rydberg      Total
 -----------------------------------------------------------------------
      C    1   -0.28594      0.99965     2.27998    0.00631     3.28594
      C    2   -0.11303      0.99960     2.10371    0.00971     3.11303
      C    3   -0.28560      0.99965     2.27959    0.00636     3.28560
      C    4   -0.01245      0.99958     2.00027    0.01260     3.01245
      C    5   -0.28982      0.99964     2.28575    0.00443     3.28982
      N    6   -0.31263      0.99965     2.80243    0.01055     3.81263
      C    7    0.20854      0.99955     1.77702    0.01489     2.79146
      N    8   -0.23555      0.99965     2.72714    0.00876     3.73555
      C    9    0.21715      0.99951     1.76613    0.01721     2.78285
      N   10   -0.25715      0.99969     2.74699    0.01047     3.75715
      C   11    0.05358      0.99959     1.93366    0.01317     2.94642
      C   12   -0.12276      0.99952     2.11365    0.00959     3.12276
      C   13    0.13953      0.99964     1.84229    0.01854     2.86047
      N   14   -0.15746      0.99979     2.64635    0.01133     3.65746
      H   15    0.09734      0.00000     0.40190    0.00076     0.40266
      H   16    0.09990      0.00000     0.39934    0.00075     0.40010
      H   17    0.09875      0.00000     0.40045    0.00080     0.40125
      H   18    0.08805      0.00000     0.41001    0.00194     0.41195
      H   19    0.09756      0.00000     0.40163    0.00081     0.40244
      H   20    0.10681      0.00000     0.39231    0.00088     0.39319
      H   21    0.09569      0.00000     0.40355    0.00076     0.40431
      H   22    0.10984      0.00000     0.38831    0.00185     0.39016
      H   23    0.09198      0.00000     0.40716    0.00086     0.40802
      H   24    0.11258      0.00000     0.38658    0.00084     0.38742
      H   25    0.09606      0.00000     0.40319    0.00075     0.40394
      H   26    0.18552      0.00000     0.31278    0.00170     0.31448
      H   27    0.08053      0.00000     0.41837    0.00110     0.41947
      H   28    0.09298      0.00000     0.40601    0.00100     0.40702
 =======================================================================
   * Total *    0.00000     13.99470    36.83655    0.16875    51.00000

 Normal termination of Gaussian 16 at Thu Dec 10 09:42:17 2020.
