 Gaussian 16, Revision A.03,

 -----------------------------------------------------------
 # opt freq B3LYP/6-31G(d) empiricaldispersion=gd3bj scf=xqc
 -----------------------------------------------------------

 -------------------------------
 CID_141418705_JID_3434_neutraal
 -------------------------------
 Symbolic Z-matrix:
 Charge =  0 Multiplicity = 1

 SCF Done:  E(RB3LYP) =  -921.961816818     A.U. after   15 cycles
 SCF Done:  E(RB3LYP) =  -921.966235456     A.U. after   12 cycles
 SCF Done:  E(RB3LYP) =  -921.965122437     A.U. after   12 cycles
 SCF Done:  E(RB3LYP) =  -921.965135552     A.U. after   11 cycles
 SCF Done:  E(RB3LYP) =  -921.966834232     A.U. after    8 cycles
 SCF Done:  E(RB3LYP) =  -921.967032418     A.U. after   10 cycles
 SCF Done:  E(RB3LYP) =  -921.966924147     A.U. after   11 cycles
 SCF Done:  E(RB3LYP) =  -921.967084922     A.U. after   11 cycles
 SCF Done:  E(RB3LYP) =  -921.967099302     A.U. after   10 cycles
 SCF Done:  E(RB3LYP) =  -921.967102921     A.U. after    8 cycles
 SCF Done:  E(RB3LYP) =  -921.967103955     A.U. after    8 cycles
 SCF Done:  E(RB3LYP) =  -921.967104590     A.U. after    8 cycles
 SCF Done:  E(RB3LYP) =  -921.967104721     A.U. after    7 cycles
 Optimization completed.
    -- Stationary point found.
 Normal termination of Gaussian 16 at Wed Dec  9 23:16:52 2020.

 --------------------------------------------------------------------
 #N Geom=AllCheck Guess=TCheck SCRF=Check GenChk RB3LYP/6-31G(d) Freq
 --------------------------------------------------------------------

 Structure from the checkpoint file:  "JID_3434.chk"
 -------------------------------
 CID_141418705_JID_3434_neutraal
 -------------------------------
 Charge =  0 Multiplicity = 1

 SCF Done:  E(RB3LYP) =  -921.967104721     A.U. after    1 cycles

  Exact polarizability: 175.621   0.940 126.405   5.017   0.550 106.549
 Approx polarizability: 212.489   3.575 201.772  12.221   2.913 156.961

                      1                      2                      3
                      A                      A                      A
 Frequencies --     28.5201                50.3040                53.2759
 Red. masses --      4.4934                 2.7561                 3.4559
 Frc consts  --      0.0022                 0.0041                 0.0058
 IR Inten    --      1.6392                 0.0873                 0.3909

                      4                      5                      6
                      A                      A                      A
 Frequencies --     67.7310                93.3836               115.7138
 Red. masses --      2.4323                 2.9616                 2.9495
 Frc consts  --      0.0066                 0.0152                 0.0233
 IR Inten    --      0.2251                 0.0197                 1.6648

                      7                      8                      9
                      A                      A                      A
 Frequencies --    132.4218               149.9217               157.2175
 Red. masses --      2.5447                 4.0882                 2.6546
 Frc consts  --      0.0263                 0.0541                 0.0387
 IR Inten    --      0.0405                 0.8000                 1.2791

                     10                     11                     12
                      A                      A                      A
 Frequencies --    201.9342               209.4330               237.4955
 Red. masses --      1.8447                 1.6840                 1.1087
 Frc consts  --      0.0443                 0.0435                 0.0368
 IR Inten    --      1.7947                 0.7852                 0.6991

                     13                     14                     15
                      A                      A                      A
 Frequencies --    239.3804               252.5171               290.5685
 Red. masses --      1.1199                 1.6131                 1.9593
 Frc consts  --      0.0378                 0.0606                 0.0975
 IR Inten    --      1.0608                 1.4592                 1.1473

                     16                     17                     18
                      A                      A                      A
 Frequencies --    306.1339               314.9599               370.2367
 Red. masses --      2.8254                 2.1301                 2.8243
 Frc consts  --      0.1560                 0.1245                 0.2281
 IR Inten    --      6.8307                 0.3608                 2.7867

                     19                     20                     21
                      A                      A                      A
 Frequencies --    402.7088               423.0374               444.7882
 Red. masses --      3.0510                 2.6790                 2.8532
 Frc consts  --      0.2915                 0.2825                 0.3326
 IR Inten    --      4.9531                 4.6144                 3.1422

                     22                     23                     24
                      A                      A                      A
 Frequencies --    457.7533               475.0966               534.8050
 Red. masses --      2.9790                 3.5753                 4.1077
 Frc consts  --      0.3678                 0.4755                 0.6922
 IR Inten    --      0.6830                 3.2780                 3.8548

                     25                     26                     27
                      A                      A                      A
 Frequencies --    661.5702               668.9105               677.1364
 Red. masses --      3.1354                 8.0006                 3.9165
 Frc consts  --      0.8085                 2.1091                 1.0580
 IR Inten    --      1.4559                15.0655                24.2971

                     28                     29                     30
                      A                      A                      A
 Frequencies --    773.1273               786.4873               795.3631
 Red. masses --      1.3787                 1.1944                 1.2097
 Frc consts  --      0.4855                 0.4353                 0.4509
 IR Inten    --     10.7112                 2.4821                 3.1182

                     31                     32                     33
                      A                      A                      A
 Frequencies --    862.9487               875.1598               877.8965
 Red. masses --      2.3713                 2.2838                 1.5582
 Frc consts  --      1.0404                 1.0306                 0.7075
 IR Inten    --      4.5336                53.9953                 1.0235

                     34                     35                     36
                      A                      A                      A
 Frequencies --    920.8356               953.7643              1010.7155
 Red. masses --      1.6541                 2.1581                 1.4408
 Frc consts  --      0.8264                 1.1567                 0.8672
 IR Inten    --      1.4749                 7.7153                19.8987

                     37                     38                     39
                      A                      A                      A
 Frequencies --   1026.4042              1028.6285              1075.1646
 Red. masses --      1.5598                 2.6658                 1.9708
 Frc consts  --      0.9682                 1.6618                 1.3423
 IR Inten    --      1.1225                 3.2985                11.3850

                     40                     41                     42
                      A                      A                      A
 Frequencies --   1102.6907              1107.9447              1122.8339
 Red. masses --      1.9654                 1.7180                 1.7608
 Frc consts  --      1.4080                 1.2425                 1.3080
 IR Inten    --     11.5790                35.2349                28.5317

                     43                     44                     45
                      A                      A                      A
 Frequencies --   1127.9585              1150.9463              1161.5206
 Red. masses --      1.6731                 2.0591                 2.1226
 Frc consts  --      1.2542                 1.6071                 1.6872
 IR Inten    --     22.4226               103.9814                 0.6448

                     46                     47                     48
                      A                      A                      A
 Frequencies --   1190.8152              1260.4741              1269.6408
 Red. masses --      2.0085                 2.3176                 1.4030
 Frc consts  --      1.6781                 2.1695                 1.3325
 IR Inten    --      6.1419                45.9708                 3.4229

                     49                     50                     51
                      A                      A                      A
 Frequencies --   1295.8386              1297.5470              1328.8781
 Red. masses --      1.7012                 1.2321                 1.1962
 Frc consts  --      1.6830                 1.2222                 1.2446
 IR Inten    --    162.6821                 0.5049                14.6563

                     52                     53                     54
                      A                      A                      A
 Frequencies --   1360.0713              1366.9328              1395.4415
 Red. masses --      1.3470                 1.2753                 1.4024
 Frc consts  --      1.4681                 1.4040                 1.6089
 IR Inten    --     39.0949                 4.0206                10.2287

                     55                     56                     57
                      A                      A                      A
 Frequencies --   1398.6865              1404.8073              1414.8475
 Red. masses --      1.2504                 1.3305                 1.3564
 Frc consts  --      1.4413                 1.5471                 1.5998
 IR Inten    --      9.5473                 1.8363                51.3291

                     58                     59                     60
                      A                      A                      A
 Frequencies --   1432.1550              1432.5899              1439.0411
 Red. masses --      1.2901                 1.2683                 1.3282
 Frc consts  --      1.5590                 1.5336                 1.6205
 IR Inten    --     34.0200                21.7628                45.1119

                     61                     62                     63
                      A                      A                      A
 Frequencies --   1443.5133              1449.2785              1504.6661
 Red. masses --      1.2618                 1.5552                 1.0761
 Frc consts  --      1.5491                 1.9246                 1.4354
 IR Inten    --      6.2095                53.8557                11.3814

                     64                     65                     66
                      A                      A                      A
 Frequencies --   1512.6915              1517.0328              1524.0283
 Red. masses --      1.0552                 1.0475                 1.0728
 Frc consts  --      1.4226                 1.4203                 1.4682
 IR Inten    --      7.0956                 1.7531                 9.9465

                     67                     68                     69
                      A                      A                      A
 Frequencies --   1525.3501              1525.5127              1528.3859
 Red. masses --      1.0644                 1.0533                 1.0457
 Frc consts  --      1.4592                 1.4442                 1.4392
 IR Inten    --      6.1072                 0.5108                 5.7102

                     70                     71                     72
                      A                      A                      A
 Frequencies --   1534.1904              1536.6266              1540.7247
 Red. masses --      1.0537                 1.0598                 1.0668
 Frc consts  --      1.4612                 1.4743                 1.4920
 IR Inten    --      3.7679                 9.5626                 7.5311

                     73                     74                     75
                      A                      A                      A
 Frequencies --   1542.5088              1544.6455              1734.4355
 Red. masses --      1.0753                 1.0562                 9.8044
 Frc consts  --      1.5074                 1.4848                17.3774
 IR Inten    --      4.4499                 3.2272               272.6880

                     76                     77                     78
                      A                      A                      A
 Frequencies --   3042.5719              3044.0574              3048.5722
 Red. masses --      1.0449                 1.0543                 1.0743
 Frc consts  --      5.6991                 5.7561                 5.8824
 IR Inten    --      9.6692                38.0521                 9.6462

                     79                     80                     81
                      A                      A                      A
 Frequencies --   3054.5964              3058.1106              3061.4621
 Red. masses --      1.0754                 1.0360                 1.0375
 Frc consts  --      5.9122                 5.7085                 5.7291
 IR Inten    --     15.1255                10.9561                38.0950

                     82                     83                     84
                      A                      A                      A
 Frequencies --   3062.9071              3065.5533              3075.6721
 Red. masses --      1.0459                 1.0642                 1.0955
 Frc consts  --      5.7812                 5.8923                 6.1060
 IR Inten    --     24.6963                11.6079                25.8148

                     85                     86                     87
                      A                      A                      A
 Frequencies --   3076.8561              3108.6671              3108.9206
 Red. masses --      1.0613                 1.1018                 1.1011
 Frc consts  --      5.9199                 6.2735                 6.2706
 IR Inten    --     47.9409                59.2842                 6.4784

                     88                     89                     90
                      A                      A                      A
 Frequencies --   3113.2925              3119.5528              3123.0764
 Red. masses --      1.1015                 1.1037                 1.0999
 Frc consts  --      6.2904                 6.3284                 6.3210
 IR Inten    --     52.9457                16.9589                24.4515

                     91                     92                     93
                      A                      A                      A
 Frequencies --   3127.7271              3132.2043              3135.4056
 Red. masses --      1.1009                 1.0999                 1.0948
 Frc consts  --      6.3454                 6.3580                 6.3413
 IR Inten    --     44.8219                21.2069                 9.1151

                     94                     95                     96
                      A                      A                      A
 Frequencies --   3144.7721              3156.8586              3171.7723
 Red. masses --      1.1039                 1.1034                 1.1002
 Frc consts  --      6.4324                 6.4791                 6.5214
 IR Inten    --     23.0606                27.8746                 5.0930

 - Thermochemistry -
 -------------------
 Temperature   298.150 Kelvin.  Pressure   1.00000 Atm.
 Atom     1 has atomic number  6 and mass  12.00000

 Molecular mass:   203.13439 amu.
 Principal axes and moments of inertia in atomic units:
                           1         2         3
     Eigenvalues --  1317.763205454.570375985.89623
           X            0.99999   0.00193  -0.00265
           Y           -0.00192   0.99998   0.00562
           Z            0.00266  -0.00562   0.99998
 This molecule is an asymmetric top.
 Rotational symmetry number  1.
 Warning -- assumption of classical behavior for rotation
           may cause significant error
 Rotational temperatures (Kelvin)      0.06573     0.01588     0.01447
 Rotational constants (GHZ):           1.36955     0.33087     0.30150
 Zero-point vibrational energy     801864.7 (Joules/Mol)
                                  191.65027 (Kcal/Mol)
 Warning -- explicit consideration of  24 degrees of freedom as
           vibrations may cause significant error
 Vibrational temperatures:     41.03    72.38    76.65    97.45   134.36
          (Kelvin)            166.49   190.53   215.70   226.20   290.54
                              301.33   341.70   344.41   363.32   418.06
                              440.46   453.16   532.69   579.41   608.66
                              639.95   658.60   683.56   769.47   951.85
                              962.41   974.25  1112.36  1131.58  1144.35
                             1241.59  1259.16  1263.10  1324.88  1372.25
                             1454.19  1476.77  1479.97  1546.92  1586.53
                             1594.09  1615.51  1622.88  1655.96  1671.17
                             1713.32  1813.54  1826.73  1864.42  1866.88
                             1911.96  1956.84  1966.71  2007.73  2012.40
                             2021.20  2035.65  2060.55  2061.18  2070.46
                             2076.89  2085.19  2164.88  2176.43  2182.67
                             2192.74  2194.64  2194.87  2199.01  2207.36
                             2210.86  2216.76  2219.33  2222.40  2495.47
                             4377.58  4379.72  4386.22  4394.88  4399.94
                             4404.76  4406.84  4410.65  4425.21  4426.91
                             4472.68  4473.04  4479.33  4488.34  4493.41
                             4500.10  4506.54  4511.15  4524.63  4542.02
                             4563.47

 Zero-point correction=                           0.305414 (Hartree/Particle)
 Thermal correction to Energy=                    0.322101
 Thermal correction to Enthalpy=                  0.323045
 Thermal correction to Gibbs Free Energy=         0.260521
 Sum of electronic and zero-point Energies=           -921.661691
 Sum of electronic and thermal Energies=              -921.645003
 Sum of electronic and thermal Enthalpies=            -921.644059
 Sum of electronic and thermal Free Energies=         -921.706584

                     E (Thermal)             CV                S
                      KCal/Mol        Cal/Mol-Kelvin    Cal/Mol-Kelvin
 Total                  202.122             60.142            131.594
 Electronic               0.000              0.000              0.000
 Translational            0.889              2.981             41.830
 Rotational               0.889              2.981             32.131
 Vibrational            200.344             54.180             57.632
 Vibration     1          0.593              1.984              5.930
 Vibration     2          0.595              1.977              4.805
 Vibration     3          0.596              1.976              4.692
 Vibration     4          0.598              1.970              4.218
 Vibration     5          0.602              1.954              3.588
 Vibration     6          0.608              1.936              3.171
 Vibration     7          0.613              1.921              2.911
 Vibration     8          0.618              1.903              2.673
 Vibration     9          0.621              1.895              2.583
 Vibration    10          0.639              1.837              2.115
 Vibration    11          0.642              1.826              2.049
 Vibration    12          0.656              1.783              1.822
 Vibration    13          0.657              1.780              1.807
 Vibration    14          0.664              1.759              1.713
 Vibration    15          0.687              1.691              1.471
 Vibration    16          0.697              1.662              1.383
 Vibration    17          0.702              1.645              1.336
 Vibration    18          0.742              1.533              1.079
 Vibration    19          0.768              1.464              0.953
 Vibration    20          0.785              1.420              0.882
 Vibration    21          0.804              1.372              0.812
 Vibration    22          0.816              1.344              0.773
 Vibration    23          0.832              1.305              0.723
 Vibration    24          0.890              1.173              0.577

 Optimization completed.
    -- Stationary point found.
 Normal termination of Gaussian 16 at Wed Dec  9 23:25:37 2020.

 ----------------------------------------------------------------------
 # B3LYP/6-311++G(d,p) empiricaldispersion=gd3bj scf=xqc pop=npa geom=c
 heck
 ----------------------------------------------------------------------

 ---------------------------------------
 CID_141418705_JID_3434_Energie_neutraal
 ---------------------------------------
 Structure from the checkpoint file:  "JID_3434.chk"
 Charge =  0 Multiplicity = 1

 SCF Done:  E(RB3LYP) =  -922.143922647     A.U. after   14 cycles
 Normal termination of Gaussian 16 at Wed Dec  9 23:30:21 2020.

 ----------------------------------------------------------------------
 # B3LYP/6-311++G(d,p) empiricaldispersion=gd3bj scf=xqc pop=npa geom=c
 heck
 ----------------------------------------------------------------------

 -------------------------------------
 CID_141418705_JID_3434_Energie_kation
 -------------------------------------
 Structure from the checkpoint file:  "JID_3434.chk"
 Charge =  1 Multiplicity = 2

 SCF Done:  E(UB3LYP) =  -921.838915646     A.U. after   24 cycles
 Normal termination of Gaussian 16 at Wed Dec  9 23:41:49 2020.
 Gaussian 16:  ES64L-G16RevA.03 25-Dec-2016

 ----------------------------------------------------------------------
 # B3LYP/6-311++G(d,p) empiricaldispersion=gd3bj scf=xqc pop=npa geom=c
 heck
 ----------------------------------------------------------------------

 ------------------------------------
 CID_141418705_JID_3434_Energie_anion
 ------------------------------------
 Structure from the checkpoint file:  "JID_3434.chk"
 Charge = -1 Multiplicity = 2

                         Standard orientation:
 ---------------------------------------------------------------------
 Center     Atomic      Atomic             Coordinates (Angstroms)
 Number     Number       Type             X           Y           Z
 ---------------------------------------------------------------------
      1          6           0        4.907275   -0.316545   -0.225387
      2          6           0        3.905487    0.809458   -0.498781
      3          6           0        2.466297    0.328945   -0.746380
      4          6           0        1.864508   -0.479281    0.414471
      5          6           0        1.835832    0.250478    1.758764
      6         16           0        0.210226   -1.187595   -0.031858
      7          6           0       -0.807024    0.310809   -0.223936
      8          8           0       -0.359613    1.437567   -0.050062
      9          7           0       -2.105162    0.080002   -0.577305
     10          6           0       -2.686080   -1.251987   -0.741410
     11          6           0       -3.276030   -1.838960    0.543244
     12          6           0       -2.975930    1.259815   -0.673427
     13          6           0       -3.419779    1.810541    0.682982
     14          1           0        4.688476   -0.838792    0.713301
     15          1           0        5.928818    0.072443   -0.151410
     16          1           0        4.890649   -1.062111   -1.030132
     17          1           0        3.922228    1.528119    0.330098
     18          1           0        4.227017    1.369145   -1.386661
     19          1           0        1.821852    1.189635   -0.940181
     20          1           0        2.449947   -0.299824   -1.645803
     21          1           0        2.436166   -1.408084    0.532367
     22          1           0        1.250745    1.168375    1.684224
     23          1           0        1.399174   -0.385541    2.534572
     24          1           0        2.855681    0.507008    2.067466
     25          1           0       -3.459472   -1.172801   -1.513223
     26          1           0       -1.918691   -1.919457   -1.143231
     27          1           0       -4.101938   -1.226223    0.917746
     28          1           0       -3.659517   -2.848254    0.355412
     29          1           0       -2.509933   -1.901318    1.321724
     30          1           0       -2.429029    2.032190   -1.220232
     31          1           0       -3.841968    0.968175   -1.275890
     32          1           0       -2.545044    2.101389    1.269802
     33          1           0       -4.049319    2.696397    0.540712
     34          1           0       -3.993759    1.070860    1.249848
 ---------------------------------------------------------------------

 SCF Done:  E(UB3LYP) =  -922.128761935     A.U. after   31 cycles

 The electronic state is 2-A.
 Alpha  occ. eigenvalues --  -88.75348 -18.99974 -14.25118 -10.19614 -10.11610
 Alpha  occ. eigenvalues --  -10.11569 -10.11064 -10.07604 -10.07103 -10.06842
 Alpha  occ. eigenvalues --  -10.06800 -10.06618 -10.06569  -7.84026  -5.80390
 Alpha  occ. eigenvalues --   -5.79994  -5.79467  -0.95383  -0.84781  -0.73325
 Alpha  occ. eigenvalues --   -0.68518  -0.67519  -0.65501  -0.61751  -0.59251
 Alpha  occ. eigenvalues --   -0.55525  -0.54542  -0.51859  -0.46995  -0.44360
 Alpha  occ. eigenvalues --   -0.39980  -0.38794  -0.37921  -0.36555  -0.36100
 Alpha  occ. eigenvalues --   -0.33997  -0.33801  -0.33440  -0.32315  -0.31827
 Alpha  occ. eigenvalues --   -0.30958  -0.30166  -0.29355  -0.28932  -0.27842
 Alpha  occ. eigenvalues --   -0.27094  -0.26974  -0.26543  -0.25941  -0.24997
 Alpha  occ. eigenvalues --   -0.23809  -0.23576  -0.21810  -0.16402  -0.16096
 Alpha  occ. eigenvalues --   -0.14542   0.04274
 Alpha virt. eigenvalues --    0.05479   0.07160   0.07292   0.07957   0.08131
 Alpha virt. eigenvalues --    0.08288   0.09492   0.10090   0.10427   0.10666
 Alpha virt. eigenvalues --    0.10709   0.11388   0.11402   0.11720   0.12514

  Beta  occ. eigenvalues --  -88.75346 -18.99957 -14.25125 -10.19594 -10.11589
  Beta  occ. eigenvalues --  -10.11563 -10.11042 -10.07593 -10.07100 -10.06805
  Beta  occ. eigenvalues --  -10.06764 -10.06593 -10.06551  -7.84024  -5.80388
  Beta  occ. eigenvalues --   -5.79991  -5.79466  -0.95352  -0.84770  -0.73308
  Beta  occ. eigenvalues --   -0.68487  -0.67485  -0.65458  -0.61722  -0.59212
  Beta  occ. eigenvalues --   -0.55465  -0.54475  -0.51808  -0.46956  -0.44325
  Beta  occ. eigenvalues --   -0.39950  -0.38758  -0.37895  -0.36508  -0.36062
  Beta  occ. eigenvalues --   -0.33968  -0.33771  -0.33408  -0.32293  -0.31798
  Beta  occ. eigenvalues --   -0.30921  -0.30123  -0.29290  -0.28881  -0.27803
  Beta  occ. eigenvalues --   -0.27060  -0.26936  -0.26513  -0.25906  -0.24968
  Beta  occ. eigenvalues --   -0.23784  -0.23557  -0.21789  -0.16389  -0.16053
  Beta  occ. eigenvalues --   -0.14541
  Beta virt. eigenvalues --    0.06198   0.06777   0.07676   0.07796   0.08306
  Beta virt. eigenvalues --    0.08544   0.08595   0.10068   0.10201   0.10670
  Beta virt. eigenvalues --    0.10859   0.10969   0.11579   0.11711   0.11964

 Mulliken charges and spin densities:
               1          2
     1  C    0.716049  -1.320449
     2  C   -0.778712   0.551823
     3  C   -0.166182  -0.386722
     4  C    0.623912   0.091867
     5  C   -0.145694  -0.619191
     6  S    0.360479  -0.442634
     7  C   -0.599859   0.149964
     8  O   -0.277987   0.004316
     9  N    0.252655   0.009667
    10  C   -0.329642   0.076556
    11  C    0.946032  -1.351474
    12  C   -0.077575  -0.119374
    13  C    0.387191  -0.776426
    14  H   -0.185762   0.330294
    15  H   -0.524831   0.670397
    16  H   -0.025127   0.161126
    17  H    0.124405   0.017510
    18  H   -0.039249   0.188775
    19  H    0.074075   0.107984
    20  H    0.055544   0.074657
    21  H    0.140318   0.115557
    22  H    0.085635   0.111680
    23  H    0.043788   0.082861
    24  H   -0.023436   0.160575
    25  H   -0.547310   0.727291
    26  H   -0.032164   0.165654
    27  H   -0.217103   0.365078
    28  H   -0.260501   0.388268
    29  H   -0.182491   0.320977
    30  H    0.162780   0.013797
    31  H   -0.464057   0.607334
    32  H    0.021689   0.152110
    33  H   -0.208456   0.342335
    34  H    0.091585   0.027816
 Sum of Mulliken charges =  -1.00000   1.00000

 Dipole moment (field-independent basis, Debye):
    X=              1.7463    Y=              0.9726    Z=              0.3050  Tot=              2.0220
 Quadrupole moment (field-independent basis, Debye-Ang):
   XX=           -209.6321   YY=           -130.0287   ZZ=           -121.5427
   XY=             -3.5849   XZ=             -5.7106   YZ=             -0.2728

 Summary of Natural Population Analysis:

                                       Natural Population
                Natural  -----------------------------------------------
    Atom  No    Charge         Core      Valence    Rydberg      Total
 -----------------------------------------------------------------------
      C    1   -0.28932      0.99967     2.28450    0.00515     3.28932
      C    2   -0.19188      0.99964     2.18301    0.00923     3.19188
      C    3   -0.19866      0.99959     2.19022    0.00886     3.19866
      C    4   -0.15806      0.99957     2.14504    0.01346     3.15806
      C    5   -0.29785      0.99962     2.29105    0.00717     3.29785
      S    6    0.07763      4.99955     2.90759    0.01523     7.92237
      C    7    0.28279      0.99964     1.69140    0.02617     2.71721
      O    8   -0.32927      0.99987     3.32243    0.00697     4.32927
      N    9   -0.26436      0.99963     2.75188    0.01285     3.76436
      C   10   -0.08696      0.99961     2.07655    0.01079     3.08696
      C   11   -0.29122      0.99966     2.28643    0.00513     3.29122
      C   12   -0.08350      0.99962     2.07214    0.01174     3.08350
      C   13   -0.29191      0.99966     2.28699    0.00527     3.29191
      H   14    0.09598      0.00000     0.40278    0.00123     0.40402
      H   15    0.10081      0.00000     0.39790    0.00129     0.39919
      H   16    0.09576      0.00000     0.40316    0.00108     0.40424
      H   17    0.09470      0.00000     0.40421    0.00109     0.40530
      H   18    0.09639      0.00000     0.40273    0.00088     0.40361
      H   19    0.11288      0.00000     0.38580    0.00132     0.38712
      H   20    0.09727      0.00000     0.40160    0.00112     0.40273
      H   21    0.10419      0.00000     0.39442    0.00139     0.39581
      H   22    0.11332      0.00000     0.38567    0.00101     0.38668
      H   23    0.10199      0.00000     0.39709    0.00092     0.39801
      H   24    0.09974      0.00000     0.39933    0.00093     0.40026
      H   25    0.09997      0.00000     0.39811    0.00192     0.40003
      H   26    0.10311      0.00000     0.39529    0.00160     0.39689
      H   27    0.09943      0.00000     0.39908    0.00149     0.40057
      H   28    0.10162      0.00000     0.39694    0.00144     0.39838
      H   29    0.10228      0.00000     0.39660    0.00112     0.39772
      H   30    0.10311      0.00000     0.39571    0.00118     0.39689
      H   31    0.09745      0.00000     0.40064    0.00191     0.40255
      H   32    0.10584      0.00000     0.39308    0.00108     0.39416
      H   33    0.09899      0.00000     0.40004    0.00097     0.40101
      H   34    0.09772      0.00000     0.40109    0.00119     0.40228
 =======================================================================
   * Total *    0.00000     16.99532    38.84051    0.16417    56.00000

 Normal termination of Gaussian 16 at Wed Dec  9 23:56:05 2020.
