 Gaussian 16, Revision A.03,

 -----------------------------------------------------------
 # opt freq B3LYP/6-31G(d) empiricaldispersion=gd3bj scf=xqc
 -----------------------------------------------------------

 -----------------------------
 CID_21758908_JID_918_neutraal
 -----------------------------
 Symbolic Z-matrix:
 Charge =  0 Multiplicity = 1

 SCF Done:  E(RB3LYP) =  -834.747050767     A.U. after   22 cycles
 SCF Done:  E(RB3LYP) =  -834.770728499     A.U. after   16 cycles
 SCF Done:  E(RB3LYP) =  -834.788112422     A.U. after   17 cycles
 SCF Done:  E(RB3LYP) =  -834.800848132     A.U. after   16 cycles
 SCF Done:  E(RB3LYP) =  -834.817137689     A.U. after   16 cycles
 SCF Done:  E(RB3LYP) =  -834.831158478     A.U. after   15 cycles
 SCF Done:  E(RB3LYP) =  -834.845393993     A.U. after   16 cycles
 SCF Done:  E(RB3LYP) =  -834.851589976     A.U. after   15 cycles
 SCF Done:  E(RB3LYP) =  -834.857562716     A.U. after   15 cycles
 SCF Done:  E(RB3LYP) =  -834.871037360     A.U. after   16 cycles
 SCF Done:  E(RB3LYP) =  -834.930156390     A.U. after   10 cycles
 SCF Done:  E(RB3LYP) =  -834.930198392     A.U. after   12 cycles
 SCF Done:  E(RB3LYP) =  -834.930213605     A.U. after   12 cycles
 SCF Done:  E(RB3LYP) =  -834.930219849     A.U. after   11 cycles
 SCF Done:  E(RB3LYP) =  -834.930222360     A.U. after   10 cycles
 SCF Done:  E(RB3LYP) =  -834.930222964     A.U. after   10 cycles
 Optimization completed.
    -- Stationary point found.
 Normal termination of Gaussian 16 at Tue Dec  8 13:37:04 2020.

 --------------------------------------------------------------------
 #N Geom=AllCheck Guess=TCheck SCRF=Check GenChk RB3LYP/6-31G(d) Freq
 --------------------------------------------------------------------

 Structure from the checkpoint file:  "JID_918.chk"
 -----------------------------
 CID_21758908_JID_918_neutraal
 -----------------------------
 Charge =  0 Multiplicity = 1

 SCF Done:  E(RB3LYP) =  -834.930222964     A.U. after    1 cycles

  Exact polarizability: 215.635  -2.035  87.230  -3.326  -0.064  35.775
 Approx polarizability: 645.961   4.558 154.221 -22.726  -0.317  58.442

                      1                      2                      3
                      A                      A                      A
 Frequencies --     83.8137               113.0478               167.8929
 Red. masses --      6.6919                 6.8624                 8.3423
 Frc consts  --      0.0277                 0.0517                 0.1385
 IR Inten    --      4.9782                 0.6638                 5.2027

                      4                      5                      6
                      A                      A                      A
 Frequencies --    198.6002               246.9721               309.9018
 Red. masses --     13.1485                 6.2821                10.9853
 Frc consts  --      0.3056                 0.2258                 0.6216
 IR Inten    --     88.7470                45.6645                 2.0903

                      7                      8                      9
                      A                      A                      A
 Frequencies --    380.1141               405.5546               455.6510
 Red. masses --      7.2369                 3.2157                 2.7952
 Frc consts  --      0.6161                 0.3116                 0.3419
 IR Inten    --      3.4646                 2.9933                11.2033

                     10                     11                     12
                      A                      A                      A
 Frequencies --    461.0143               488.1186               617.5905
 Red. masses --      4.0501                13.7437                 6.9721
 Frc consts  --      0.5072                 1.9293                 1.5668
 IR Inten    --      8.0940                30.8633                 0.2659

                     13                     14                     15
                      A                      A                      A
 Frequencies --    669.6089               704.5529               768.1685
 Red. masses --      6.9518                 3.4798                 1.1938
 Frc consts  --      1.8365                 1.0177                 0.4151
 IR Inten    --     10.1687                 6.1091                 7.5348

                     16                     17                     18
                      A                      A                      A
 Frequencies --    806.8980               853.3474               902.0589
 Red. masses --      5.5781                 1.7558                 1.2332
 Frc consts  --      2.1398                 0.7533                 0.5912
 IR Inten    --      2.4255                42.5134                65.8461

                     19                     20                     21
                      A                      A                      A
 Frequencies --    983.1479               992.5405              1008.0785
 Red. masses --      3.0445                 1.2925                 1.2519
 Frc consts  --      1.7338                 0.7502                 0.7496
 IR Inten    --      0.0974                 0.4338                 0.3493

                     22                     23                     24
                      A                      A                      A
 Frequencies --   1028.6544              1113.0341              1160.8241
 Red. masses --      7.8590                 1.6756                 3.5420
 Frc consts  --      4.8995                 1.2230                 2.8121
 IR Inten    --    157.1783                41.4053               268.7463

                     25                     26                     27
                      A                      A                      A
 Frequencies --   1196.1431              1229.6320              1300.7443
 Red. masses --      1.2033                 1.3894                15.8858
 Frc consts  --      1.0144                 1.2377                15.8359
 IR Inten    --     31.5634                21.8410               107.4586

                     28                     29                     30
                      A                      A                      A
 Frequencies --   1328.2327              1397.5546              1441.4405
 Red. masses --      1.5689                 2.2275                 1.7145
 Frc consts  --      1.6308                 2.5633                 2.0989
 IR Inten    --     11.5331                41.0622                 5.6627

                     31                     32                     33
                      A                      A                      A
 Frequencies --   1486.5567              1604.1425              1622.3049
 Red. masses --      3.4934                 6.7723                 7.4057
 Frc consts  --      4.5485                10.2676                11.4836
 IR Inten    --     16.7792                 5.7780                36.3810

                     34                     35                     36
                      A                      A                      A
 Frequencies --   1675.9882              3192.9190              3222.7770
 Red. masses --      6.0034                 1.0896                 1.0876
 Frc consts  --      9.9354                 6.5448                 6.6556
 IR Inten    --     11.5360                 5.3893                 0.7189

                     37                     38                     39
                      A                      A                      A
 Frequencies --   3231.0070              3237.9261              3412.1787
 Red. masses --      1.0940                 1.0969                 1.0743
 Frc consts  --      6.7287                 6.7755                 7.3694
 IR Inten    --      1.6720                 1.5509                 2.7937

 - Thermochemistry -
 -------------------
 Temperature   298.150 Kelvin.  Pressure   1.00000 Atm.
 Atom     1 has atomic number  6 and mass  12.00000

 Molecular mass:   155.00410 amu.
 Principal axes and moments of inertia in atomic units:
                           1         2         3
     Eigenvalues --   533.144252629.964173157.58216
           X            0.99998  -0.00605   0.00014
           Y            0.00605   0.99998  -0.00034
           Z           -0.00014   0.00034   1.00000
 This molecule is an asymmetric top.
 Rotational symmetry number  1.
 Warning -- assumption of classical behavior for rotation
           may cause significant error
 Rotational temperatures (Kelvin)      0.16246     0.03293     0.02743
 Rotational constants (GHZ):           3.38509     0.68622     0.57156
 Zero-point vibrational energy     272142.9 (Joules/Mol)
                                   65.04370 (Kcal/Mol)
 Warning -- explicit consideration of  12 degrees of freedom as
           vibrations may cause significant error
 Vibrational temperatures:    120.59   162.65   241.56   285.74   355.34
          (Kelvin)            445.88   546.90   583.50   655.58   663.30
                              702.29   888.57   963.42  1013.69  1105.22
                             1160.95  1227.78  1297.86  1414.53  1428.04
                             1450.40  1480.00  1601.41  1670.17  1720.98
                             1769.17  1871.48  1911.03  2010.77  2073.91
                             2138.82  2308.00  2334.13  2411.37  4593.90
                             4636.86  4648.70  4658.65  4909.36

 Zero-point correction=                           0.103654 (Hartree/Particle)
 Thermal correction to Energy=                    0.112356
 Thermal correction to Enthalpy=                  0.113300
 Thermal correction to Gibbs Free Energy=         0.069433
 Sum of electronic and zero-point Energies=           -834.826569
 Sum of electronic and thermal Energies=              -834.817867
 Sum of electronic and thermal Enthalpies=            -834.816923
 Sum of electronic and thermal Free Energies=         -834.860790

                     E (Thermal)             CV                S
                      KCal/Mol        Cal/Mol-Kelvin    Cal/Mol-Kelvin
 Total                   70.504             32.143             92.326
 Electronic               0.000              0.000              0.000
 Translational            0.889              2.981             41.024
 Rotational               0.889              2.981             29.872
 Vibrational             68.727             26.181             21.429
 Vibration     1          0.601              1.960              3.800
 Vibration     2          0.607              1.939              3.216
 Vibration     3          0.625              1.882              2.459
 Vibration     4          0.637              1.842              2.146
 Vibration     5          0.661              1.768              1.752
 Vibration     6          0.699              1.655              1.363
 Vibration     7          0.750              1.513              1.039
 Vibration     8          0.771              1.458              0.942
 Vibration     9          0.814              1.348              0.779
 Vibration    10          0.819              1.337              0.763
 Vibration    11          0.844              1.276              0.689
 Vibration    12          0.977              0.995              0.420

                           ! Non-Optimized Parameters !
 Normal termination of Gaussian 16 at Tue Dec  8 13:41:54 2020.

 ----------------------------------------------------------------------
 # B3LYP/6-311++G(d,p) empiricaldispersion=gd3bj scf=xqc pop=npa geom=c
 heck
 ----------------------------------------------------------------------

 -------------------------------------
 CID_21758908_JID_918_Energie_neutraal
 -------------------------------------
 Structure from the checkpoint file:  "JID_918.chk"
 Charge =  0 Multiplicity = 1

 SCF Done:  E(RB3LYP) =  -835.083292488     A.U. after   25 cycles
 Normal termination of Gaussian 16 at Tue Dec  8 13:45:21 2020.

 ----------------------------------------------------------------------
 # B3LYP/6-311++G(d,p) empiricaldispersion=gd3bj scf=xqc pop=npa geom=c
 heck
 ----------------------------------------------------------------------

 -----------------------------------
 CID_21758908_JID_918_Energie_kation
 -----------------------------------
 Structure from the checkpoint file:  "JID_918.chk"
 Charge =  1 Multiplicity = 2

 SCF Done:  E(UB3LYP) =  -834.769036900     A.U. after   27 cycles
 Normal termination of Gaussian 16 at Tue Dec  8 13:50:34 2020.
 Gaussian 16:  ES64L-G16RevA.03 25-Dec-2016

 ----------------------------------------------------------------------
 # B3LYP/6-311++G(d,p) empiricaldispersion=gd3bj scf=xqc pop=npa geom=c
 heck
 ----------------------------------------------------------------------

 ----------------------------------
 CID_21758908_JID_918_Energie_anion
 ----------------------------------
 Structure from the checkpoint file:  "JID_918.chk"
 Charge = -1 Multiplicity = 2

                         Standard orientation:
 ---------------------------------------------------------------------
 Center     Atomic      Atomic             Coordinates (Angstroms)
 Number     Number       Type             X           Y           Z
 ---------------------------------------------------------------------
      1          6           0        1.742213    1.256017   -0.005302
      2          6           0        0.388749    1.257437   -0.030331
      3          6           0       -0.318833    0.004702   -0.093067
      4          6           0        0.397529   -1.242508   -0.027574
      5          6           0        1.751341   -1.232256   -0.003792
      6          6           0        2.517867    0.016032    0.007545
      7          7           0        3.811089    0.101347    0.025056
      8         16           0       -1.978465   -0.006048    0.121651
      9          8           0       -2.656927    1.289177   -0.067615
     10          8           0       -2.641988   -1.308559   -0.074373
     11          1           0        2.308985    2.180848   -0.009395
     12          1           0       -0.179464    2.180520   -0.047170
     13          1           0       -0.164364   -2.169790   -0.039732
     14          1           0        2.303869   -2.168399   -0.006263
     15          1           0        4.226915   -0.837330    0.031763
 ---------------------------------------------------------------------

 SCF Done:  E(UB3LYP) =  -835.169699243     A.U. after   25 cycles

 The electronic state is 2-A.
 Alpha  occ. eigenvalues --  -88.85751 -18.98275 -18.98268 -14.13292 -10.07303
 Alpha  occ. eigenvalues --  -10.06776 -10.05775 -10.05434 -10.04076 -10.03513
 Alpha  occ. eigenvalues --   -7.93024  -5.89308  -5.89105  -5.89042  -0.95996
 Alpha  occ. eigenvalues --   -0.86868  -0.76267  -0.71154  -0.62922  -0.61476
 Alpha  occ. eigenvalues --   -0.50446  -0.48100  -0.44078  -0.38300  -0.35955
 Alpha  occ. eigenvalues --   -0.33416  -0.32886  -0.31152  -0.30733  -0.29968
 Alpha  occ. eigenvalues --   -0.26672  -0.25097  -0.21908  -0.20224  -0.20011
 Alpha  occ. eigenvalues --   -0.18010  -0.17711  -0.14165  -0.12360  -0.08309
 Alpha  occ. eigenvalues --   -0.02094
 Alpha virt. eigenvalues --    0.09222   0.10242   0.11023   0.11376   0.12186
 Alpha virt. eigenvalues --    0.13526   0.14176   0.15668   0.16245   0.16519
 Alpha virt. eigenvalues --    0.18214   0.18332   0.18642   0.19573   0.20111

  Beta  occ. eigenvalues --  -88.85496 -18.97801 -18.97789 -14.12962 -10.07339
  Beta  occ. eigenvalues --  -10.06599 -10.05767 -10.05441 -10.03982 -10.03427
  Beta  occ. eigenvalues --   -7.92775  -5.89166  -5.88953  -5.88330  -0.95022
  Beta  occ. eigenvalues --   -0.85820  -0.75886  -0.70743  -0.62817  -0.60863
  Beta  occ. eigenvalues --   -0.49766  -0.47875  -0.43698  -0.37764  -0.35564
  Beta  occ. eigenvalues --   -0.33098  -0.30801  -0.30664  -0.30601  -0.29578
  Beta  occ. eigenvalues --   -0.26481  -0.24412  -0.21768  -0.19687  -0.17731
  Beta  occ. eigenvalues --   -0.17276  -0.17032  -0.13875  -0.11973  -0.05722
  Beta virt. eigenvalues --    0.05381   0.09269   0.10441   0.11092   0.11941
  Beta virt. eigenvalues --    0.12542   0.13596   0.14438   0.15811   0.16364
  Beta virt. eigenvalues --    0.16738   0.18283   0.18460   0.18832   0.19588

 Mulliken charges and spin densities:
               1          2
     1  C    0.215987   0.037979
     2  C   -0.468446  -0.002028
     3  C    0.039741   0.157541
     4  C   -0.579510  -0.042522
     5  C    0.435754   0.060719
     6  C   -0.948090  -0.049023
     7  N   -0.331440   0.172272
     8  S    0.552853   0.429152
     9  O   -0.365959   0.111095
    10  O   -0.369604   0.111312
    11  H    0.163297  -0.003508
    12  H    0.192376   0.012967
    13  H    0.186838   0.013696
    14  H    0.117309  -0.003760
    15  H    0.158893  -0.005893
 Sum of Mulliken charges =  -1.00000   1.00000

 Dipole moment (field-independent basis, Debye):
    X=              0.3032    Y=             -1.3274    Z=              0.1909  Tot=              1.3749
 Quadrupole moment (field-independent basis, Debye-Ang):
   XX=           -120.1521   YY=            -73.4191   ZZ=            -71.4729
   XY=             -6.6026   XZ=             -1.0147   YZ=             -0.0982

 Summary of Natural Population Analysis:

                                       Natural Population
                Natural  -----------------------------------------------
    Atom  No    Charge         Core      Valence    Rydberg      Total
 -----------------------------------------------------------------------
      C    1   -0.09632      0.99952     2.08612    0.01068     3.09632
      C    2   -0.10241      0.99952     2.09223    0.01065     3.10241
      C    3   -0.19819      0.99946     2.18403    0.01469     3.19819
      C    4   -0.09416      0.99952     2.08363    0.01100     3.09416
      C    5   -0.11247      0.99952     2.10291    0.01004     3.11247
      C    6    0.08114      0.99960     1.90473    0.01453     2.91886
      N    7   -0.29851      0.99973     2.78893    0.00985     3.79851
      S    8    1.06570      4.99896     1.85268    0.08265     6.93430
      O    9   -0.39560      0.99992     3.38918    0.00650     4.39560
      O   10   -0.39707      0.99992     3.39068    0.00647     4.39707
      H   11    0.09783      0.00000     0.40035    0.00182     0.40217
      H   12    0.10829      0.00000     0.39042    0.00129     0.39171
      H   13    0.10803      0.00000     0.39061    0.00137     0.39197
      H   14    0.08936      0.00000     0.40859    0.00205     0.41064
      H   15    0.14436      0.00000     0.35340    0.00225     0.35564
 =======================================================================
   * Total *   -0.00000     13.99566    25.81849    0.18585    40.00000

 Normal termination of Gaussian 16 at Tue Dec  8 13:55:16 2020.
