 Gaussian 16, Revision A.03,

 -----------------------------------------------------------
 # opt freq B3LYP/6-31G(d) empiricaldispersion=gd3bj scf=xqc
 -----------------------------------------------------------

 -----------------------------
 CID_54195823_JID_531_neutraal
 -----------------------------
 Symbolic Z-matrix:
 Charge =  0 Multiplicity = 1

 SCF Done:  E(RB3LYP) =  -409.166431340     A.U. after   13 cycles
 SCF Done:  E(RB3LYP) =  -409.170086986     A.U. after   11 cycles
 SCF Done:  E(RB3LYP) =  -409.170795151     A.U. after   10 cycles
 SCF Done:  E(RB3LYP) =  -409.171559066     A.U. after   11 cycles
 SCF Done:  E(RB3LYP) =  -409.172048000     A.U. after   11 cycles
 SCF Done:  E(RB3LYP) =  -409.173231785     A.U. after   11 cycles
 SCF Done:  E(RB3LYP) =  -409.175041190     A.U. after   11 cycles
 SCF Done:  E(RB3LYP) =  -409.175198390     A.U. after   11 cycles
 SCF Done:  E(RB3LYP) =  -409.175740422     A.U. after   11 cycles
 SCF Done:  E(RB3LYP) =  -409.176078057     A.U. after   10 cycles
 SCF Done:  E(RB3LYP) =  -409.176155386     A.U. after   10 cycles
 SCF Done:  E(RB3LYP) =  -409.176168290     A.U. after    9 cycles
 SCF Done:  E(RB3LYP) =  -409.176170471     A.U. after    7 cycles
 SCF Done:  E(RB3LYP) =  -409.176170977     A.U. after    7 cycles
 SCF Done:  E(RB3LYP) =  -409.176171033     A.U. after    6 cycles
 Optimization completed.
    -- Stationary point found.

 1\1\GINC-NODE372\FOpt\RB3LYP\6-31G(d)\C9H19N1\VSC10255\08-Dec-2020\0\\
 # opt freq B3LYP/6-31G(d) empiricaldispersion=gd3bj scf=xqc\\CID_54195
 823_JID_531_neutraal\\0,1\C,0.4935819967,0.060391433,0.0146012974\C,0.
 185674868,-0.9629930256,1.1129716766\C,1.1765176023,-0.9492546719,2.28
 77119664\C,0.9165034408,0.2824107498,3.2241684448\N,0.0621754733,-0.59
 90364645,4.0593292204\C,0.6896156337,-1.8069384604,3.5003831923\C,-0.2
 231099416,-3.0082882797,3.3139353695\C,-0.0025520051,-0.4371330357,5.4
 943123396\C,2.1413914633,0.8937560596,3.9023490057\C,2.6046419714,-1.2

 Normal termination of Gaussian 16 at Tue Dec  8 12:51:05 2020.

 --------------------------------------------------------------------
 #N Geom=AllCheck Guess=TCheck SCRF=Check GenChk RB3LYP/6-31G(d) Freq
 --------------------------------------------------------------------

 Structure from the checkpoint file:  "JID_531.chk"
 -----------------------------
 CID_54195823_JID_531_neutraal
 -----------------------------
 Charge =  0 Multiplicity = 1

 SCF Done:  E(RB3LYP) =  -409.176171033     A.U. after    1 cycles

  Exact polarizability: 108.588  -0.068 100.581  -0.520   1.974  89.289
 Approx polarizability: 138.712   0.154 136.341  -0.482   3.529 133.407

                      1                      2                      3
                      A                      A                      A
 Frequencies --     80.3502               121.5707               168.2276
 Red. masses --      2.9115                 2.1229                 1.8945
 Frc consts  --      0.0111                 0.0185                 0.0316
 IR Inten    --      0.3769                 0.0104                 0.0203

                      4                      5                      6
                      A                      A                      A
 Frequencies --    189.9194               208.3700               209.3263
 Red. masses --      1.3245                 1.2924                 1.1704
 Frc consts  --      0.0281                 0.0331                 0.0302
 IR Inten    --      0.0346                 0.5435                 0.1020

                      7                      8                      9
                      A                      A                      A
 Frequencies --    223.5127               242.1151               244.5087
 Red. masses --      1.4330                 1.8471                 1.5432
 Frc consts  --      0.0422                 0.0638                 0.0544
 IR Inten    --      0.9275                 0.7317                 0.3169

                     10                     11                     12
                      A                      A                      A
 Frequencies --    261.1289               284.0469               299.4453
 Red. masses --      1.4706                 1.5976                 1.7166
 Frc consts  --      0.0591                 0.0759                 0.0907
 IR Inten    --      0.1945                 1.1432                 0.2535

                     13                     14                     15
                      A                      A                      A
 Frequencies --    331.9890               350.0578               421.1268
 Red. masses --      2.5278                 2.0744                 2.7322
 Frc consts  --      0.1642                 0.1498                 0.2855
 IR Inten    --      0.4741                 0.8771                 1.1975

                     16                     17                     18
                      A                      A                      A
 Frequencies --    443.8728               512.8649               579.0369
 Red. masses --      2.8359                 2.4618                 2.7435
 Frc consts  --      0.3292                 0.3815                 0.5420
 IR Inten    --      1.3575                 0.2122                 2.2066

                     19                     20                     21
                      A                      A                      A
 Frequencies --    614.8482               718.2436               780.6133
 Red. masses --      3.2039                 2.6400                 2.4695
 Frc consts  --      0.7136                 0.8024                 0.8866
 IR Inten    --      5.6849                 1.5538                 4.6887

                     22                     23                     24
                      A                      A                      A
 Frequencies --    799.7911               842.3313               904.6403
 Red. masses --      1.3582                 1.6044                 2.0982
 Frc consts  --      0.5119                 0.6707                 1.0117
 IR Inten    --      1.5024                 1.3520                 7.4218

                     25                     26                     27
                      A                      A                      A
 Frequencies --    909.6100              1017.2892              1030.3297
 Red. masses --      1.7297                 1.5925                 1.5507
 Frc consts  --      0.8432                 0.9710                 0.9699
 IR Inten    --      0.5421                 5.3950                 6.6251

                     28                     29                     30
                      A                      A                      A
 Frequencies --   1035.1567              1050.6909              1070.2611
 Red. masses --      1.4357                 1.6429                 1.8061
 Frc consts  --      0.9064                 1.0686                 1.2189
 IR Inten    --      3.4811                 2.9337                11.9512

                     31                     32                     33
                      A                      A                      A
 Frequencies --   1085.9114              1090.0647              1123.9157
 Red. masses --      1.6658                 1.7333                 2.1450
 Frc consts  --      1.1573                 1.2135                 1.5964
 IR Inten    --      1.5100                 8.1180                 2.1253

                     34                     35                     36
                      A                      A                      A
 Frequencies --   1148.2081              1165.5663              1190.4864
 Red. masses --      2.1994                 1.5747                 2.2280
 Frc consts  --      1.7084                 1.2604                 1.8604
 IR Inten    --      2.5946                 5.7798                 1.5979

                     37                     38                     39
                      A                      A                      A
 Frequencies --   1209.6427              1223.6094              1270.6283
 Red. masses --      2.1985                 2.0438                 2.4584
 Frc consts  --      1.8953                 1.8029                 2.3385
 IR Inten    --      7.1114                 2.5113                14.7032

                     40                     41                     42
                      A                      A                      A
 Frequencies --   1278.3086              1320.5473              1332.0357
 Red. masses --      2.6242                 1.5931                 1.6210
 Frc consts  --      2.5265                 1.6368                 1.6946
 IR Inten    --     24.4095                 3.7917                32.5943

                     43                     44                     45
                      A                      A                      A
 Frequencies --   1358.1235              1385.8256              1398.4696
 Red. masses --      1.6251                 1.4316                 1.3577
 Frc consts  --      1.7661                 1.6199                 1.5645
 IR Inten    --      1.2297                 1.6842                10.2889

                     46                     47                     48
                      A                      A                      A
 Frequencies --   1418.2529              1429.8211              1437.2548
 Red. masses --      1.3056                 1.2983                 1.3023
 Frc consts  --      1.5473                 1.5638                 1.5850
 IR Inten    --      5.5880                 2.0354                16.8443

                     49                     50                     51
                      A                      A                      A
 Frequencies --   1441.9541              1444.8681              1476.7534
 Red. masses --      1.3536                 1.2325                 1.1738
 Frc consts  --      1.6582                 1.5160                 1.5082
 IR Inten    --     16.3015                 4.7015                 0.3522

                     52                     53                     54
                      A                      A                      A
 Frequencies --   1512.1895              1516.3094              1517.0807
 Red. masses --      1.0571                 1.0561                 1.0545
 Frc consts  --      1.4242                 1.4307                 1.4299
 IR Inten    --      1.8071                 5.5678                 3.7726

                     55                     56                     57
                      A                      A                      A
 Frequencies --   1520.1544              1522.8619              1529.7913
 Red. masses --      1.0505                 1.0490                 1.0454
 Frc consts  --      1.4303                 1.4333                 1.4414
 IR Inten    --      4.9385                 9.2612                 0.9779

                     58                     59                     60
                      A                      A                      A
 Frequencies --   1532.0751              1534.4029              1538.7943
 Red. masses --      1.0533                 1.0446                 1.0696
 Frc consts  --      1.4567                 1.4491                 1.4923
 IR Inten    --      6.0683                11.0416                 4.3636

                     61                     62                     63
                      A                      A                      A
 Frequencies --   1541.9436              1545.9061              2921.4708
 Red. masses --      1.0511                 1.0533                 1.0814
 Frc consts  --      1.4724                 1.4832                 5.4379
 IR Inten    --      2.5925                 1.8915                54.7344

                     64                     65                     66
                      A                      A                      A
 Frequencies --   2951.2491              3012.3349              3033.4332
 Red. masses --      1.0594                 1.0849                 1.0637
 Frc consts  --      5.4364                 5.8002                 5.7669
 IR Inten    --    101.1211                50.4776                21.0807

                     67                     68                     69
                      A                      A                      A
 Frequencies --   3045.0467              3047.4884              3049.3673
 Red. masses --      1.0379                 1.0381                 1.0363
 Frc consts  --      5.6702                 5.6805                 5.6774
 IR Inten    --     13.7066                44.7815                27.6454

                     70                     71                     72
                      A                      A                      A
 Frequencies --   3052.0969              3069.3784              3080.7631
 Red. masses --      1.0373                 1.0719                 1.0979
 Frc consts  --      5.6933                 5.9498                 6.1396
 IR Inten    --     18.6739                42.1273                 5.5895

                     73                     74                     75
                      A                      A                      A
 Frequencies --   3103.5439              3106.4128              3109.4871
 Red. masses --      1.1011                 1.0992                 1.1030
 Frc consts  --      6.2490                 6.2493                 6.2836
 IR Inten    --     14.8817                38.6528                33.1882

                     76                     77                     78
                      A                      A                      A
 Frequencies --   3111.7119              3114.5915              3118.4591
 Red. masses --      1.1016                 1.1021                 1.1017
 Frc consts  --      6.2843                 6.2987                 6.3123
 IR Inten    --     50.8611                17.5738                21.1389

                     79                     80                     81
                      A                      A                      A
 Frequencies --   3122.8195              3129.3035              3138.1697
 Red. masses --      1.1015                 1.1010                 1.1001
 Frc consts  --      6.3291                 6.3526                 6.3833
 IR Inten    --     47.7796                41.3395                31.8914

 - Thermochemistry -
 -------------------
 Temperature   298.150 Kelvin.  Pressure   1.00000 Atm.
 Atom     1 has atomic number  6 and mass  12.00000

 Molecular mass:   141.15175 amu.
 Principal axes and moments of inertia in atomic units:
                           1         2         3
     Eigenvalues --  1106.718551638.651992042.14158
           X            0.99997  -0.00086   0.00747
           Y            0.00090   0.99998  -0.00615
           Z           -0.00746   0.00616   0.99995
 This molecule is an asymmetric top.
 Rotational symmetry number  1.
 Warning -- assumption of classical behavior for rotation
           may cause significant error
 Rotational temperatures (Kelvin)      0.07826     0.05286     0.04241
 Rotational constants (GHZ):           1.63071     1.10136     0.88375
 Zero-point vibrational energy     707616.0 (Joules/Mol)
                                  169.12429 (Kcal/Mol)
 Warning -- explicit consideration of  19 degrees of freedom as
           vibrations may cause significant error
 Vibrational temperatures:    115.61   174.91   242.04   273.25   299.80
          (Kelvin)            301.17   321.58   348.35   351.79   375.71
                              408.68   430.83   477.66   503.66   605.91
                              638.63   737.90   833.10   884.63  1033.39
                             1123.13  1150.72  1211.93  1301.58  1308.73
                             1463.65  1482.41  1489.36  1511.71  1539.87
                             1562.38  1568.36  1617.06  1652.02  1676.99
                             1712.84  1740.41  1760.50  1828.15  1839.20
                             1899.97  1916.50  1954.04  1993.89  2012.09
                             2040.55  2057.19  2067.89  2074.65  2078.84
                             2124.72  2175.70  2181.63  2182.74  2187.16
                             2191.06  2201.03  2204.31  2207.66  2213.98
                             2218.51  2224.21  4203.34  4246.19  4334.08
                             4364.43  4381.14  4384.66  4387.36  4391.29
                             4416.15  4432.53  4465.31  4469.44  4473.86
                             4477.06  4481.20  4486.77  4493.04  4502.37
                             4515.13

 Zero-point correction=                           0.269517 (Hartree/Particle)
 Thermal correction to Energy=                    0.281705
 Thermal correction to Enthalpy=                  0.282649
 Thermal correction to Gibbs Free Energy=         0.233112
 Sum of electronic and zero-point Energies=           -408.906654
 Sum of electronic and thermal Energies=              -408.894466
 Sum of electronic and thermal Enthalpies=            -408.893522
 Sum of electronic and thermal Free Energies=         -408.943059

                     E (Thermal)             CV                S
                      KCal/Mol        Cal/Mol-Kelvin    Cal/Mol-Kelvin
 Total                  176.772             46.517            104.259
 Electronic               0.000              0.000              0.000
 Translational            0.889              2.981             40.745
 Rotational               0.889              2.981             29.694
 Vibrational            174.995             40.556             33.819
 Vibration     1          0.600              1.962              3.882
 Vibration     2          0.609              1.931              3.075
 Vibration     3          0.625              1.882              2.455
 Vibration     4          0.633              1.854              2.229
 Vibration     5          0.642              1.828              2.058
 Vibration     6          0.642              1.827              2.050
 Vibration     7          0.649              1.805              1.930
 Vibration     8          0.658              1.776              1.787
 Vibration     9          0.660              1.772              1.770
 Vibration    10          0.669              1.744              1.654
 Vibration    11          0.682              1.703              1.509
 Vibration    12          0.692              1.675              1.420
 Vibration    13          0.714              1.612              1.250
 Vibration    14          0.727              1.575              1.166
 Vibration    15          0.784              1.424              0.888
 Vibration    16          0.803              1.374              0.815
 Vibration    17          0.868              1.221              0.627
 Vibration    18          0.936              1.077              0.487
 Vibration    19          0.974              1.000              0.425

 Optimization completed.
    -- Stationary point found.

 1\1\GINC-NODE372\Freq\RB3LYP\6-31G(d)\C9H19N1\VSC10255\08-Dec-2020\0\\
 #N Geom=AllCheck Guess=TCheck SCRF=Check GenChk RB3LYP/6-31G(d) Freq\\
 CID_54195823_JID_531_neutraal\\0,1\C,0.4935819967,0.060391433,0.014601
 2974\C,0.185674868,-0.9629930256,1.1129716766\C,1.1765176023,-0.949254
 6719,2.2877119664\C,0.9165034408,0.2824107498,3.2241684448\N,0.0621754
 733,-0.5990364645,4.0593292204\C,0.6896156337,-1.8069384604,3.50038319
 23\C,-0.2231099416,-3.0082882797,3.3139353695\C,-0.0025520051,-0.43713
 30357,5.4943123396\C,2.1413914633,0.8937560596,3.9023490057\C,2.604641

 Normal termination of Gaussian 16 at Tue Dec  8 13:09:19 2020.

 ----------------------------------------------------------------------
 # B3LYP/6-311++G(d,p) empiricaldispersion=gd3bj scf=xqc pop=npa geom=c
 heck
 ----------------------------------------------------------------------

 -------------------------------------
 CID_54195823_JID_531_Energie_neutraal
 -------------------------------------
 Structure from the checkpoint file:  "JID_531.chk"
 Charge =  0 Multiplicity = 1

 SCF Done:  E(RB3LYP) =  -409.288615692     A.U. after   13 cycles
 Normal termination of Gaussian 16 at Tue Dec  8 13:11:50 2020.

 ----------------------------------------------------------------------
 # B3LYP/6-311++G(d,p) empiricaldispersion=gd3bj scf=xqc pop=npa geom=c
 heck
 ----------------------------------------------------------------------

 -----------------------------------
 CID_54195823_JID_531_Energie_kation
 -----------------------------------
 Structure from the checkpoint file:  "JID_531.chk"
 Charge =  1 Multiplicity = 2

 SCF Done:  E(UB3LYP) =  -409.002577199     A.U. after   18 cycles
 Normal termination of Gaussian 16 at Tue Dec  8 13:23:36 2020.
 Gaussian 16:  ES64L-G16RevA.03 25-Dec-2016

 ----------------------------------
 CID_54195823_JID_531_Energie_anion
 ----------------------------------
 Structure from the checkpoint file:  "JID_531.chk"
 Charge = -1 Multiplicity = 2

                         Standard orientation:
 ---------------------------------------------------------------------
 Center     Atomic      Atomic             Coordinates (Angstroms)
 Number     Number       Type             X           Y           Z
 ---------------------------------------------------------------------
      1          6           0       -2.810381   -0.205702   -1.004992
      2          6           0       -1.635528    0.695366   -0.609596
      3          6           0       -0.617271    0.032514    0.331549
      4          6           0        0.292184   -0.978294   -0.451214
      5          7           0        1.279226    0.118391   -0.616587
      6          6           0        0.689099    0.874215    0.499483
      7          6           0        0.688507    2.387533    0.354775
      8          6           0        2.700146   -0.147248   -0.615650
      9          6           0        0.759770   -2.212107    0.318911
     10          6           0       -1.265212   -0.431348    1.631698
     11          1           0       -2.460793   -1.153210   -1.432266
     12          1           0       -3.436890    0.284024   -1.758526
     13          1           0       -3.450899   -0.443146   -0.149111
     14          1           0       -1.107351    1.015181   -1.515246
     15          1           0       -2.024474    1.606893   -0.134987
     16          1           0       -0.121300   -1.304468   -1.416643
     17          1           0        1.162753    0.612765    1.465738
     18          1           0        0.129341    2.857135    1.173136
     19          1           0        1.713607    2.775548    0.390463
     20          1           0        0.245923    2.695719   -0.596322
     21          1           0        3.067750   -0.647048    0.300199
     22          1           0        2.962800   -0.774775   -1.475167
     23          1           0        3.242491    0.799473   -0.719182
     24          1           0       -0.084727   -2.885556    0.503404
     25          1           0        1.508932   -2.768632   -0.255512
     26          1           0        1.203550   -1.957635    1.286899
     27          1           0       -1.775437    0.408604    2.120118
     28          1           0       -2.010925   -1.215402    1.462058
     29          1           0       -0.526822   -0.823781    2.337266
 ---------------------------------------------------------------------

 SCF Done:  E(UB3LYP) =  -409.270775187     A.U. after   25 cycles

 The electronic state is 2-A.
 Alpha  occ. eigenvalues --  -14.18748 -10.08654 -10.08629 -10.07657 -10.07156
 Alpha  occ. eigenvalues --  -10.05678 -10.05241 -10.05195 -10.05019 -10.04923
 Alpha  occ. eigenvalues --   -0.83472  -0.69713  -0.64621  -0.63716  -0.60300
 Alpha  occ. eigenvalues --   -0.58801  -0.52928  -0.49766  -0.47443  -0.39655
 Alpha  occ. eigenvalues --   -0.37704  -0.37299  -0.35850  -0.33720  -0.33001
 Alpha  occ. eigenvalues --   -0.30916  -0.30083  -0.29551  -0.28557  -0.27784
 Alpha  occ. eigenvalues --   -0.27515  -0.27179  -0.26165  -0.25070  -0.24560
 Alpha  occ. eigenvalues --   -0.22396  -0.21473  -0.19392  -0.18153  -0.10648
 Alpha  occ. eigenvalues --    0.04773
 Alpha virt. eigenvalues --    0.07021   0.07387   0.07928   0.09484   0.09661
 Alpha virt. eigenvalues --    0.09760   0.10463   0.10686   0.12123   0.12481
 Alpha virt. eigenvalues --    0.12594   0.12994   0.13355   0.13897   0.14407

  Beta  occ. eigenvalues --  -14.18745 -10.08644 -10.08619 -10.07624 -10.07156
  Beta  occ. eigenvalues --  -10.05666 -10.05211 -10.05175 -10.04982 -10.04888
  Beta  occ. eigenvalues --   -0.83455  -0.69692  -0.64587  -0.63680  -0.60249
  Beta  occ. eigenvalues --   -0.58747  -0.52863  -0.49708  -0.47382  -0.39610
  Beta  occ. eigenvalues --   -0.37675  -0.37260  -0.35812  -0.33694  -0.32970
  Beta  occ. eigenvalues --   -0.30883  -0.30042  -0.29517  -0.28518  -0.27748
  Beta  occ. eigenvalues --   -0.27478  -0.27137  -0.26115  -0.25029  -0.24528
  Beta  occ. eigenvalues --   -0.22366  -0.21449  -0.19367  -0.18131  -0.10620
  Beta virt. eigenvalues --    0.06957   0.07865   0.08132   0.08634   0.10032
  Beta virt. eigenvalues --    0.10284   0.10419   0.10912   0.11048   0.12691
  Beta virt. eigenvalues --    0.12967   0.13069   0.13417   0.13829   0.14212

 Mulliken charges and spin densities:
               1          2
     1  C    1.150498  -1.798517
     2  C   -1.450038   1.137943
     3  C    0.298193   0.449833
     4  C   -1.529491   1.229372
     5  N    0.028454   0.049889
     6  C   -1.442401   1.116614
     7  C    1.403876  -1.997016
     8  C    0.960661  -1.278019
     9  C    1.179411  -1.830850
    10  C    1.310368  -1.805113
    11  H   -0.110350   0.246156
    12  H   -0.292787   0.429764
    13  H   -0.248102   0.393878
    14  H    0.161123   0.011260
    15  H   -0.032938   0.175354
    16  H   -0.176133   0.396262
    17  H   -0.144728   0.292780
    18  H   -0.058655   0.197501
    19  H   -0.221006   0.358383
    20  H   -0.099299   0.240418
    21  H   -0.272209   0.397933
    22  H   -0.257757   0.396800
    23  H   -0.102137   0.230368
    24  H   -0.356862   0.500002
    25  H   -0.196006   0.343584
    26  H   -0.073148   0.249139
    27  H   -0.198779   0.352220
    28  H   -0.055243   0.200241
    29  H   -0.174513   0.313820
 Sum of Mulliken charges =  -1.00000   1.00000

 Dipole moment (field-independent basis, Debye):
    X=             -0.0382    Y=              1.7285    Z=             -0.7299  Tot=              1.8767
 Quadrupole moment (field-independent basis, Debye-Ang):
   XX=           -123.6734   YY=           -112.0331   ZZ=           -103.7685
   XY=             -0.4909   XZ=              0.1743   YZ=             -0.3139

 Summary of Natural Population Analysis:

                                       Natural Population
                Natural  -----------------------------------------------
    Atom  No    Charge         Core      Valence    Rydberg      Total
 -----------------------------------------------------------------------
      C    1   -0.28544      0.99966     2.28077    0.00501     3.28544
      C    2   -0.19068      0.99959     2.18087    0.01022     3.19068
      C    3   -0.03658      0.99950     2.02077    0.01631     3.03658
      C    4    0.00971      0.99956     1.97666    0.01407     2.99029
      N    5   -0.28472      0.99970     2.77217    0.01286     3.78472
      C    6    0.00698      0.99956     1.97967    0.01378     2.99302
      C    7   -0.29209      0.99964     2.28650    0.00595     3.29209
      C    8   -0.17904      0.99964     2.17047    0.00893     3.17904
      C    9   -0.30059      0.99965     2.29473    0.00622     3.30059
      C   10   -0.29091      0.99962     2.28364    0.00765     3.29091
      H   11    0.09689      0.00000     0.40181    0.00131     0.40311
      H   12    0.09773      0.00000     0.40142    0.00085     0.40227
      H   13    0.09718      0.00000     0.40170    0.00112     0.40282
      H   14    0.10118      0.00000     0.39700    0.00182     0.39882
      H   15    0.09596      0.00000     0.40290    0.00114     0.40404
      H   16    0.08861      0.00000     0.40974    0.00165     0.41139
      H   17    0.08009      0.00000     0.41760    0.00232     0.41991
      H   18    0.09955      0.00000     0.39947    0.00098     0.40045
      H   19    0.10025      0.00000     0.39873    0.00102     0.39975
      H   20    0.10036      0.00000     0.39815    0.00149     0.39964
      H   21    0.08140      0.00000     0.41700    0.00160     0.41860
      H   22    0.09558      0.00000     0.40331    0.00111     0.40442
      H   23    0.09563      0.00000     0.40309    0.00128     0.40437
      H   24    0.10497      0.00000     0.39367    0.00136     0.39503
      H   25    0.10230      0.00000     0.39660    0.00110     0.39770
      H   26    0.09915      0.00000     0.39942    0.00143     0.40085
      H   27    0.10153      0.00000     0.39724    0.00123     0.39847
      H   28    0.10256      0.00000     0.39621    0.00124     0.39744
      H   29    0.10245      0.00000     0.39626    0.00129     0.39755
 =======================================================================
   * Total *   -0.00000      9.99613    29.87754    0.12633    40.00000

 Normal termination of Gaussian 16 at Tue Dec  8 13:30:34 2020.
