 Gaussian 16, Revision A.03,

 -----------------------------------------------------------
 # opt freq B3LYP/6-31G(d) empiricaldispersion=gd3bj scf=xqc
 -----------------------------------------------------------

 -------------------------------
 CID_149591918_JID_4601_neutraal
 -------------------------------
 Symbolic Z-matrix:
 Charge =  0 Multiplicity = 1

 SCF Done:  E(RB3LYP) =  -544.142354988     A.U. after   13 cycles
 SCF Done:  E(RB3LYP) =  -544.173727395     A.U. after   11 cycles
 SCF Done:  E(RB3LYP) =  -544.188961854     A.U. after   12 cycles
 SCF Done:  E(RB3LYP) =  -544.196895022     A.U. after   12 cycles
 SCF Done:  E(RB3LYP) =  -544.201216882     A.U. after   12 cycles
 SCF Done:  E(RB3LYP) =  -544.202162680     A.U. after   11 cycles
 SCF Done:  E(RB3LYP) =  -544.202590626     A.U. after   10 cycles
 SCF Done:  E(RB3LYP) =  -544.202625320     A.U. after    8 cycles
 SCF Done:  E(RB3LYP) =  -544.202644168     A.U. after    8 cycles
 SCF Done:  E(RB3LYP) =  -544.202645245     A.U. after    7 cycles
 SCF Done:  E(RB3LYP) =  -544.202645408     A.U. after    7 cycles
 Optimization completed.
    -- Stationary point found.
 Normal termination of Gaussian 16 at Thu Dec 10 10:14:22 2020.

 --------------------------------------------------------------------
 #N Geom=AllCheck Guess=TCheck SCRF=Check GenChk RB3LYP/6-31G(d) Freq
 --------------------------------------------------------------------

 Structure from the checkpoint file:  "JID_4601.chk"
 -------------------------------
 CID_149591918_JID_4601_neutraal
 -------------------------------
 Charge =  0 Multiplicity = 1

 SCF Done:  E(RB3LYP) =  -544.202645408     A.U. after    1 cycles

  Exact polarizability: 146.079   0.000 131.878  -0.000  -1.246 114.588
 Approx polarizability: 212.488   0.000 190.765  -0.000  -3.354 181.238

                      1                      2                      3
                      A                      A                      A
 Frequencies --    138.9073               164.1555               195.2926
 Red. masses --      2.5912                 2.5165                 2.1876
 Frc consts  --      0.0295                 0.0400                 0.0492
 IR Inten    --      0.0014                 0.4231                 0.0331

                      4                      5                      6
                      A                      A                      A
 Frequencies --    208.9476               216.4374               288.8599
 Red. masses --      1.1094                 1.0579                 2.4583
 Frc consts  --      0.0285                 0.0292                 0.1209
 IR Inten    --      0.0138                 0.1277                 0.1709

                      7                      8                      9
                      A                      A                      A
 Frequencies --    302.2579               321.7256               364.4262
 Red. masses --      2.3449                 2.1508                 2.8033
 Frc consts  --      0.1262                 0.1312                 0.2194
 IR Inten    --      0.2586                 0.0048                 1.0020

                     10                     11                     12
                      A                      A                      A
 Frequencies --    382.5406               385.3094               446.6784
 Red. masses --      1.9277                 2.2631                 3.3080
 Frc consts  --      0.1662                 0.1980                 0.3889
 IR Inten    --      0.0353                 0.3932                 0.2003

                     13                     14                     15
                      A                      A                      A
 Frequencies --    499.2378               503.4458               506.6062
 Red. masses --      2.9946                 3.3186                 3.2326
 Frc consts  --      0.4397                 0.4956                 0.4888
 IR Inten    --      3.3082                 1.1098                 0.5999

                     16                     17                     18
                      A                      A                      A
 Frequencies --    557.3587               595.4385               658.0027
 Red. masses --      3.4844                 4.1545                 2.9897
 Frc consts  --      0.6377                 0.8678                 0.7627
 IR Inten    --      0.0426                 0.2987                 0.5133

                     19                     20                     21
                      A                      A                      A
 Frequencies --    666.2636               697.5199               775.4409
 Red. masses --      3.4043                 3.5051                 2.7975
 Frc consts  --      0.8904                 1.0048                 0.9911
 IR Inten    --      0.0088                 0.7702                 0.2668

                     22                     23                     24
                      A                      A                      A
 Frequencies --    792.1848               808.7809               828.6982
 Red. masses --      4.7661                 2.3297                 2.7296
 Frc consts  --      1.7622                 0.8979                 1.1044
 IR Inten    --      0.1699                 0.1814                 0.8248

                     25                     26                     27
                      A                      A                      A
 Frequencies --    874.0601               886.3178               901.3359
 Red. masses --      2.1766                 3.0288                 1.6500
 Frc consts  --      0.9798                 1.4018                 0.7898
 IR Inten    --      1.0699                 1.5165                 0.0220

                     28                     29                     30
                      A                      A                      A
 Frequencies --    911.1047               930.2266               940.6101
 Red. masses --      2.2181                 1.8250                 2.6252
 Frc consts  --      1.0848                 0.9304                 1.3685
 IR Inten    --      1.9890                 0.0344                 0.2512

                     31                     32                     33
                      A                      A                      A
 Frequencies --    966.5820               997.8389               998.3002
 Red. masses --      2.0491                 1.5739                 2.2644
 Frc consts  --      1.1279                 0.9233                 1.3296
 IR Inten    --      0.2587                 1.2603                 0.7111

                     34                     35                     36
                      A                      A                      A
 Frequencies --   1034.9233              1047.4298              1054.0076
 Red. masses --      1.5466                 1.6389                 1.9027
 Frc consts  --      0.9760                 1.0594                 1.2454
 IR Inten    --      0.4829                 3.1499                 0.9892

                     37                     38                     39
                      A                      A                      A
 Frequencies --   1060.7960              1078.5697              1098.2046
 Red. masses --      2.1970                 1.9292                 1.7467
 Frc consts  --      1.4566                 1.3223                 1.2411
 IR Inten    --      0.4318                 2.4007                 2.0583

                     40                     41                     42
                      A                      A                      A
 Frequencies --   1101.7799              1113.9274              1126.5606
 Red. masses --      1.7491                 2.8355                 1.8694
 Frc consts  --      1.2510                 2.0730                 1.3978
 IR Inten    --      1.2859                 2.5374                 1.8729

                     43                     44                     45
                      A                      A                      A
 Frequencies --   1138.4010              1147.3215              1166.1066
 Red. masses --      2.1809                 1.9989                 1.7418
 Frc consts  --      1.6653                 1.5502                 1.3955
 IR Inten    --      3.1731                 2.7935                 1.0328

                     46                     47                     48
                      A                      A                      A
 Frequencies --   1176.0762              1193.5017              1217.1013
 Red. masses --      2.4089                 1.9423                 1.3864
 Frc consts  --      1.9631                 1.6301                 1.2100
 IR Inten    --      3.8598                 0.3853                 3.8604

                     49                     50                     51
                      A                      A                      A
 Frequencies --   1219.0193              1229.8132              1236.7621
 Red. masses --      1.5678                 2.1997                 1.7660
 Frc consts  --      1.3727                 1.9601                 1.5916
 IR Inten    --      0.0000                 7.7230                 0.0229

                     52                     53                     54
                      A                      A                      A
 Frequencies --   1242.4133              1249.7077              1251.7677
 Red. masses --      1.4965                 2.0866                 1.8417
 Frc consts  --      1.3610                 1.9200                 1.7002
 IR Inten    --      2.0939                 5.4727                 0.1727

                     55                     56                     57
                      A                      A                      A
 Frequencies --   1278.5677              1290.4955              1319.4479
 Red. masses --      1.9340                 1.7357                 1.8307
 Frc consts  --      1.8627                 1.7031                 1.8778
 IR Inten    --      0.6739                 2.9742                 0.0880

                     58                     59                     60
                      A                      A                      A
 Frequencies --   1319.5016              1337.9704              1341.7207
 Red. masses --      1.4829                 1.6681                 2.4223
 Frc consts  --      1.5212                 1.7594                 2.5692
 IR Inten    --      2.8204                 4.5443                 5.1189

                     61                     62                     63
                      A                      A                      A
 Frequencies --   1370.9971              1373.2494              1434.7359
 Red. masses --      1.4237                 1.4566                 1.2745
 Frc consts  --      1.5767                 1.6185                 1.5457
 IR Inten    --      0.9380                 3.2695                 4.2769

                     64                     65                     66
                      A                      A                      A
 Frequencies --   1440.9944              1506.3395              1508.0741
 Red. masses --      1.3154                 1.0834                 1.0868
 Frc consts  --      1.6093                 1.4484                 1.4563
 IR Inten    --      1.3347                 0.4111                 0.0015

                     67                     68                     69
                      A                      A                      A
 Frequencies --   1519.7350              1521.3138              1523.2519
 Red. masses --      1.0782                 1.0629                 1.0805
 Frc consts  --      1.4671                 1.4494                 1.4771
 IR Inten    --      1.8031                 0.3093                 0.1426

                     70                     71                     72
                      A                      A                      A
 Frequencies --   1525.7813              1526.3691              1530.5117
 Red. masses --      1.0727                 1.0561                 1.0663
 Frc consts  --      1.4714                 1.4497                 1.4717
 IR Inten    --     11.6790                 4.6189                 0.2434

                     73                     74                     75
                      A                      A                      A
 Frequencies --   3033.7925              3035.8074              3052.3067
 Red. masses --      1.0406                 1.0400                 1.0637
 Frc consts  --      5.6429                 5.6471                 5.8387
 IR Inten    --     15.8842                53.4109                 3.9899

                     76                     77                     78
                      A                      A                      A
 Frequencies --   3052.5294              3060.2977              3061.2360
 Red. masses --      1.0639                 1.0819                 1.0816
 Frc consts  --      5.8410                 5.9699                 5.9717
 IR Inten    --     55.7870                 6.2556                54.8555

                     79                     80                     81
                      A                      A                      A
 Frequencies --   3075.7320              3077.2475              3077.3008
 Red. masses --      1.0611                 1.0852                 1.0621
 Frc consts  --      5.9146                 6.0544                 5.9259
 IR Inten    --     62.9028                58.2858                79.2394

                     82                     83                     84
                      A                      A                      A
 Frequencies --   3084.0469              3094.5072              3096.2493
 Red. masses --      1.0877                 1.0969                 1.1060
 Frc consts  --      6.0956                 6.1888                 6.2470
 IR Inten    --     54.3379                24.4206                36.5496

                     85                     86                     87
                      A                      A                      A
 Frequencies --   3096.3096              3096.9429              3115.6105
 Red. masses --      1.1012                 1.0999                 1.1036
 Frc consts  --      6.2201                 6.2156                 6.3118
 IR Inten    --     10.6913                64.2606                 0.0039

                     88                     89                     90
                      A                      A                      A
 Frequencies --   3119.2894              3126.3349              3127.5172
 Red. masses --      1.1016                 1.1049                 1.1042
 Frc consts  --      6.3152                 6.3628                 6.3637
 IR Inten    --     81.1668                54.2375                 0.0919

 - Thermochemistry -
 -------------------
 Temperature   298.150 Kelvin.  Pressure   1.00000 Atm.
 Atom     1 has atomic number  6 and mass  12.00000

 Molecular mass:   186.14085 amu.
 Principal axes and moments of inertia in atomic units:
                           1         2         3
     Eigenvalues --  1728.391402064.148912614.90376
           X            1.00000  -0.00000  -0.00000
           Y            0.00000   0.99999   0.00480
           Z            0.00000  -0.00480   0.99999
 This molecule is an asymmetric top.
 Rotational symmetry number  1.
 Warning -- assumption of classical behavior for rotation
           may cause significant error
 Rotational temperatures (Kelvin)      0.05011     0.04196     0.03312
 Rotational constants (GHZ):           1.04417     0.87433     0.69018
 Zero-point vibrational energy     747948.3 (Joules/Mol)
                                  178.76394 (Kcal/Mol)
 Warning -- explicit consideration of  17 degrees of freedom as
           vibrations may cause significant error
 Vibrational temperatures:    199.86   236.18   280.98   300.63   311.41
          (Kelvin)            415.60   434.88   462.89   524.33   550.39
                              554.37   642.67   718.29   724.35   728.89
                              801.91   856.70   946.72   958.60  1003.58
                             1115.69  1139.78  1163.66  1192.31  1257.58
                             1275.21  1296.82  1310.88  1338.39  1353.33
                             1390.70  1435.67  1436.33  1489.02  1507.02
                             1516.48  1526.25  1551.82  1580.07  1585.22
                             1602.69  1620.87  1637.91  1650.74  1677.77
                             1692.11  1717.18  1751.14  1753.90  1769.43
                             1779.42  1787.56  1798.05  1801.01  1839.57
                             1856.74  1898.39  1898.47  1925.04  1930.44
                             1972.56  1975.80  2064.26  2073.27  2167.29
                             2169.78  2186.56  2188.83  2191.62  2195.26
                             2196.10  2202.06  4364.95  4367.85  4391.59
                             4391.91  4403.09  4404.44  4425.29  4427.47
                             4427.55  4437.26  4452.31  4454.81  4454.90
                             4455.81  4482.67  4487.96  4498.10  4499.80

 Zero-point correction=                           0.284878 (Hartree/Particle)
 Thermal correction to Energy=                    0.295854
 Thermal correction to Enthalpy=                  0.296798
 Thermal correction to Gibbs Free Energy=         0.249676
 Sum of electronic and zero-point Energies=           -543.917767
 Sum of electronic and thermal Energies=              -543.906791
 Sum of electronic and thermal Enthalpies=            -543.905847
 Sum of electronic and thermal Free Energies=         -543.952970

                     E (Thermal)             CV                S
                      KCal/Mol        Cal/Mol-Kelvin    Cal/Mol-Kelvin
 Total                  185.651             48.372             99.178
 Electronic               0.000              0.000              0.000
 Translational            0.889              2.981             41.570
 Rotational               0.889              2.981             30.612
 Vibrational            183.874             42.410             26.995
 Vibration     1          0.615              1.914              2.819
 Vibration     2          0.623              1.886              2.501
 Vibration     3          0.636              1.846              2.177
 Vibration     4          0.642              1.827              2.053
 Vibration     5          0.645              1.816              1.989
 Vibration     6          0.685              1.694              1.481
 Vibration     7          0.694              1.669              1.404
 Vibration     8          0.707              1.632              1.301
 Vibration     9          0.738              1.545              1.103
 Vibration    10          0.752              1.507              1.029
 Vibration    11          0.754              1.502              1.018
 Vibration    12          0.806              1.368              0.806
 Vibration    13          0.855              1.252              0.660
 Vibration    14          0.859              1.242              0.650
 Vibration    15          0.862              1.235              0.642
 Vibration    16          0.913              1.124              0.529
 Vibration    17          0.953              1.041              0.458

 Optimization completed.
    -- Stationary point found.
 Normal termination of Gaussian 16 at Thu Dec 10 10:27:06 2020.

 ----------------------------------------------------------------------
 # B3LYP/6-311++G(d,p) empiricaldispersion=gd3bj scf=xqc pop=npa geom=c
 heck
 ----------------------------------------------------------------------

 ---------------------------------------
 CID_149591918_JID_4601_Energie_neutraal
 ---------------------------------------
 Structure from the checkpoint file:  "JID_4601.chk"
 Charge =  0 Multiplicity = 1

 SCF Done:  E(RB3LYP) =  -544.333216825     A.U. after   13 cycles
 Normal termination of Gaussian 16 at Thu Dec 10 10:32:14 2020.

 ----------------------------------------------------------------------
 # B3LYP/6-311++G(d,p) empiricaldispersion=gd3bj scf=xqc pop=npa geom=c
 heck
 ----------------------------------------------------------------------

 -------------------------------------
 CID_149591918_JID_4601_Energie_kation
 -------------------------------------
 Structure from the checkpoint file:  "JID_4601.chk"
 Charge =  1 Multiplicity = 2

 SCF Done:  E(UB3LYP) =  -544.042583723     A.U. after   19 cycles
 Normal termination of Gaussian 16 at Thu Dec 10 10:42:49 2020.
 Gaussian 16:  ES64L-G16RevA.03 25-Dec-2016

 ----------------------------------------------------------------------
 # B3LYP/6-311++G(d,p) empiricaldispersion=gd3bj scf=xqc pop=npa geom=c
 heck
 ----------------------------------------------------------------------

 ------------------------------------
 CID_149591918_JID_4601_Energie_anion
 ------------------------------------
 Structure from the checkpoint file:  "JID_4601.chk"
 Charge = -1 Multiplicity = 2

                         Standard orientation:
 ---------------------------------------------------------------------
 Center     Atomic      Atomic             Coordinates (Angstroms)
 Number     Number       Type             X           Y           Z
 ---------------------------------------------------------------------
      1          6           0        2.176924    0.377705   -1.698298
      2          6           0        1.158685    0.503965   -0.587764
      3          6           0        0.919845    1.948986   -0.029527
      4          6           0       -0.613108    1.848893   -0.249135
      5          6           0       -0.465859    0.393983   -0.660760
      6          6           0       -1.892470   -0.212373   -0.797146
      7          6           0       -1.693396   -1.732910   -0.856783
      8          6           0       -0.613108   -1.848893    0.249135
      9          6           0       -0.465859   -0.393983    0.660760
     10          6           0       -1.892470    0.212374    0.797146
     11          6           0       -1.693396    1.732911    0.856783
     12          6           0        1.158685   -0.503965    0.587764
     13          6           0        0.919845   -1.948987    0.029526
     14          6           0        2.176924   -0.377705    1.698299
     15          1           0        2.194703   -0.624000   -2.139030
     16          1           0        3.186119    0.594472   -1.322155
     17          1           0        1.963956    1.091896   -2.501939
     18          1           0        1.393050    2.726803   -0.635936
     19          1           0        1.237100    2.086817    1.008076
     20          1           0       -0.934487    2.498236   -1.070763
     21          1           0       -2.634066    0.240095   -1.465915
     22          1           0       -1.349153   -2.052447   -1.847413
     23          1           0       -2.600948   -2.298759   -0.618431
     24          1           0       -0.934488   -2.498236    1.070763
     25          1           0       -2.634066   -0.240094    1.465915
     26          1           0       -1.349152    2.052447    1.847413
     27          1           0       -2.600948    2.298760    0.618432
     28          1           0        1.393050   -2.726803    0.635934
     29          1           0        1.237099   -2.086816   -1.008077
     30          1           0        3.186119   -0.594471    1.322156
     31          1           0        2.194701    0.623999    2.139032
     32          1           0        1.963955   -1.091899    2.501939
 ---------------------------------------------------------------------

 SCF Done:  E(UB3LYP) =  -544.315074138     A.U. after   32 cycles

 The electronic state is 2-A.
 Alpha  occ. eigenvalues --  -10.08934 -10.08914 -10.08583 -10.08571 -10.06298
 Alpha  occ. eigenvalues --  -10.06298 -10.06194 -10.06175 -10.06174 -10.06173
 Alpha  occ. eigenvalues --  -10.06043 -10.06043 -10.05664 -10.05663  -0.82979
 Alpha  occ. eigenvalues --   -0.72393  -0.71962  -0.64227  -0.61482  -0.60424
 Alpha  occ. eigenvalues --   -0.59620  -0.54363  -0.52172  -0.51231  -0.45467
 Alpha  occ. eigenvalues --   -0.43291  -0.43140  -0.38783  -0.38695  -0.35666
 Alpha  occ. eigenvalues --   -0.34961  -0.33477  -0.32338  -0.31986  -0.31053
 Alpha  occ. eigenvalues --   -0.30379  -0.29501  -0.28834  -0.28103  -0.27000
 Alpha  occ. eigenvalues --   -0.26334  -0.24171  -0.23145  -0.22290  -0.22088
 Alpha  occ. eigenvalues --   -0.21034  -0.18189  -0.17385  -0.16967  -0.15925
 Alpha  occ. eigenvalues --   -0.12746   0.04646
 Alpha virt. eigenvalues --    0.06811   0.06958   0.07395   0.08839   0.09094
 Alpha virt. eigenvalues --    0.09165   0.09521   0.09855   0.11518   0.11655
 Alpha virt. eigenvalues --    0.11872   0.11972   0.12146   0.12504   0.13462

  Beta  occ. eigenvalues --  -10.08933 -10.08913 -10.08574 -10.08561 -10.06285
  Beta  occ. eigenvalues --  -10.06284 -10.06195 -10.06174 -10.06158 -10.06158
  Beta  occ. eigenvalues --  -10.06035 -10.06034 -10.05629 -10.05629  -0.82968
  Beta  occ. eigenvalues --   -0.72379  -0.71944  -0.64198  -0.61445  -0.60380
  Beta  occ. eigenvalues --   -0.59590  -0.54332  -0.52133  -0.51189  -0.45426
  Beta  occ. eigenvalues --   -0.43253  -0.43103  -0.38747  -0.38666  -0.35639
  Beta  occ. eigenvalues --   -0.34933  -0.33445  -0.32307  -0.31951  -0.31018
  Beta  occ. eigenvalues --   -0.30339  -0.29469  -0.28807  -0.28079  -0.26967
  Beta  occ. eigenvalues --   -0.26311  -0.24151  -0.23117  -0.22265  -0.22068
  Beta  occ. eigenvalues --   -0.21015  -0.18170  -0.17369  -0.16947  -0.15910
  Beta  occ. eigenvalues --   -0.12735
  Beta virt. eigenvalues --    0.06757   0.07714   0.07725   0.07888   0.09455
  Beta virt. eigenvalues --    0.09656   0.09706   0.09877   0.10382   0.11968
  Beta virt. eigenvalues --    0.12034   0.12340   0.12405   0.12513   0.12964

 Mulliken charges and spin densities:
               1          2
     1  C    2.176399  -2.299394
     2  C   -2.673903   2.250104
     3  C    0.576007  -1.126547
     4  C   -1.356416   1.076083
     5  C    1.490869  -1.024140
     6  C   -0.271573   0.431396
     7  C    1.053095  -1.742925
     8  C   -1.356413   1.076079
     9  C    1.490868  -1.024139
    10  C   -0.271574   0.431397
    11  C    1.053098  -1.742928
    12  C   -2.673902   2.250103
    13  C    0.576006  -1.126544
    14  C    2.176398  -2.299393
    15  H   -0.158353   0.290476
    16  H   -0.223865   0.386904
    17  H   -0.175245   0.334641
    18  H   -0.203584   0.351240
    19  H    0.041649   0.086470
    20  H   -0.192122   0.392995
    21  H   -0.427362   0.642203
    22  H   -0.010832   0.149028
    23  H   -0.144766   0.301469
    24  H   -0.192122   0.392994
    25  H   -0.427362   0.642203
    26  H   -0.010832   0.149027
    27  H   -0.144766   0.301470
    28  H   -0.203584   0.351241
    29  H    0.041650   0.086469
    30  H   -0.223865   0.386903
    31  H   -0.158352   0.290476
    32  H   -0.175245   0.334640
 Sum of Mulliken charges =  -1.00000   1.00000

 Dipole moment (field-independent basis, Debye):
    X=             -0.9672    Y=             -0.0000    Z=              0.0000  Tot=              0.9672
 Quadrupole moment (field-independent basis, Debye-Ang):
   XX=           -148.9269   YY=           -130.0499   ZZ=           -130.1702
   XY=              0.0000   XZ=              0.0000   YZ=              4.8953

 Summary of Natural Population Analysis:

                                       Natural Population
                Natural  -----------------------------------------------
    Atom  No    Charge         Core      Valence    Rydberg      Total
 -----------------------------------------------------------------------
      C    1   -0.28913      0.99958     2.28262    0.00693     3.28913
      C    2   -0.01053      0.99946     1.99435    0.01672     3.01053
      C    3   -0.18419      0.99958     2.17547    0.00915     3.18419
      C    4   -0.11081      0.99952     2.09985    0.01145     3.11081
      C    5   -0.02788      0.99935     2.01269    0.01583     3.02788
      C    6   -0.08655      0.99955     2.07303    0.01396     3.08655
      C    7   -0.19264      0.99961     2.18414    0.00890     3.19264
      C    8   -0.11081      0.99952     2.09985    0.01145     3.11081
      C    9   -0.02788      0.99935     2.01269    0.01583     3.02788
      C   10   -0.08655      0.99955     2.07303    0.01396     3.08655
      C   11   -0.19264      0.99961     2.18414    0.00890     3.19264
      C   12   -0.01053      0.99946     1.99435    0.01672     3.01053
      C   13   -0.18419      0.99958     2.17547    0.00915     3.18419
      C   14   -0.28913      0.99958     2.28262    0.00693     3.28913
      H   15    0.10118      0.00000     0.39759    0.00123     0.39882
      H   16    0.10242      0.00000     0.39629    0.00129     0.39758
      H   17    0.10314      0.00000     0.39561    0.00125     0.39686
      H   18    0.10114      0.00000     0.39770    0.00116     0.39886
      H   19    0.09902      0.00000     0.39956    0.00142     0.40098
      H   20    0.09837      0.00000     0.40036    0.00127     0.40163
      H   21    0.09818      0.00000     0.40040    0.00142     0.40182
      H   22    0.09964      0.00000     0.39907    0.00129     0.40036
      H   23    0.09865      0.00000     0.40010    0.00125     0.40135
      H   24    0.09837      0.00000     0.40036    0.00127     0.40163
      H   25    0.09818      0.00000     0.40040    0.00142     0.40182
      H   26    0.09964      0.00000     0.39907    0.00129     0.40036
      H   27    0.09865      0.00000     0.40010    0.00125     0.40135
      H   28    0.10114      0.00000     0.39770    0.00116     0.39886
      H   29    0.09902      0.00000     0.39956    0.00142     0.40098
      H   30    0.10242      0.00000     0.39629    0.00129     0.39758
      H   31    0.10118      0.00000     0.39759    0.00123     0.39882
      H   32    0.10314      0.00000     0.39561    0.00125     0.39686
 =======================================================================
   * Total *    0.00000     13.99329    36.81768    0.18903    51.00000

 Normal termination of Gaussian 16 at Thu Dec 10 11:00:30 2020.
