 Gaussian 16, Revision A.03,

 -----------------------------------------------------------
 # opt freq B3LYP/6-31G(d) empiricaldispersion=gd3bj scf=xqc
 -----------------------------------------------------------

 ------------------------------
 CID_66290064_JID_9957_neutraal
 ------------------------------
 Symbolic Z-matrix:
 Charge =  0 Multiplicity = 1

 SCF Done:  E(RB3LYP) =  -838.603116497     A.U. after   15 cycles
 SCF Done:  E(RB3LYP) =  -838.609426575     A.U. after   13 cycles
 SCF Done:  E(RB3LYP) =  -838.607034189     A.U. after   15 cycles
 SCF Done:  E(RB3LYP) =  -838.610868507     A.U. after   12 cycles
 SCF Done:  E(RB3LYP) =  -838.611867170     A.U. after   12 cycles
 SCF Done:  E(RB3LYP) =  -838.612308039     A.U. after   12 cycles
 SCF Done:  E(RB3LYP) =  -838.612457377     A.U. after   12 cycles
 SCF Done:  E(RB3LYP) =  -838.612515354     A.U. after   11 cycles
 SCF Done:  E(RB3LYP) =  -838.612564698     A.U. after   12 cycles
 SCF Done:  E(RB3LYP) =  -838.612817654     A.U. after   13 cycles
 SCF Done:  E(RB3LYP) =  -838.621783471     A.U. after    8 cycles
 SCF Done:  E(RB3LYP) =  -838.621784335     A.U. after    8 cycles
 SCF Done:  E(RB3LYP) =  -838.621784906     A.U. after    8 cycles
 SCF Done:  E(RB3LYP) =  -838.621785034     A.U. after    7 cycles
 SCF Done:  E(RB3LYP) =  -838.621785048     A.U. after    6 cycles
 Optimization completed.
    -- Stationary point found.
 Normal termination of Gaussian 16 at Sat Dec 12 10:55:49 2020.

 --------------------------------------------------------------------
 #N Geom=AllCheck Guess=TCheck SCRF=Check GenChk RB3LYP/6-31G(d) Freq
 --------------------------------------------------------------------

 Structure from the checkpoint file:  "JID_9957.chk"
 ------------------------------
 CID_66290064_JID_9957_neutraal
 ------------------------------
 Charge =  0 Multiplicity = 1

 SCF Done:  E(RB3LYP) =  -838.621785048     A.U. after    1 cycles

  Exact polarizability: 209.613 -15.715 165.917   3.764 -15.252 121.722
 Approx polarizability: 286.186 -30.795 272.177   4.895 -39.760 211.019

                      1                      2                      3
                      A                      A                      A
 Frequencies --     37.1219                52.0607                65.6057
 Red. masses --      3.9784                 4.1048                 5.5698
 Frc consts  --      0.0032                 0.0066                 0.0141
 IR Inten    --      1.0048                 1.9715                 0.1677

                      4                      5                      6
                      A                      A                      A
 Frequencies --     83.5333                93.1581                99.2462
 Red. masses --      4.1420                 2.2336                 2.2734
 Frc consts  --      0.0170                 0.0114                 0.0132
 IR Inten    --      0.8998                 0.2836                 1.5270

                      7                      8                      9
                      A                      A                      A
 Frequencies --    110.5853               121.1413               133.4029
 Red. masses --      2.3840                 4.4472                 4.4016
 Frc consts  --      0.0172                 0.0385                 0.0462
 IR Inten    --      0.2941                 8.4599                 3.1722

                     10                     11                     12
                      A                      A                      A
 Frequencies --    167.9209               175.4969               197.6310
 Red. masses --      1.1139                 2.6271                 3.1584
 Frc consts  --      0.0185                 0.0477                 0.0727
 IR Inten    --      0.6510                 3.6351                 1.5088

                     13                     14                     15
                      A                      A                      A
 Frequencies --    243.2415               274.1856               293.4232
 Red. masses --      4.1096                 4.3756                 3.1157
 Frc consts  --      0.1433                 0.1938                 0.1580
 IR Inten    --      0.8295                 4.8634                 4.1246

                     16                     17                     18
                      A                      A                      A
 Frequencies --    297.8370               322.4239               405.3816
 Red. masses --      2.3056                 3.9272                 5.5088
 Frc consts  --      0.1205                 0.2405                 0.5334
 IR Inten    --      3.5539                 0.8808                 3.9974

                     19                     20                     21
                      A                      A                      A
 Frequencies --    412.3721               442.5911               462.1144
 Red. masses --      2.6309                 3.2489                 4.2465
 Frc consts  --      0.2636                 0.3750                 0.5343
 IR Inten    --      2.2153                 4.9576                 2.1889

                     22                     23                     24
                      A                      A                      A
 Frequencies --    483.6091               503.1616               528.2749
 Red. masses --      3.3910                 3.4104                 1.6846
 Frc consts  --      0.4673                 0.5087                 0.2770
 IR Inten    --      2.3302                 6.8076                22.8162

                     25                     26                     27
                      A                      A                      A
 Frequencies --    557.3309               616.6005               630.2590
 Red. masses --      3.7334                 3.9905                 4.4039
 Frc consts  --      0.6832                 0.8939                 1.0307
 IR Inten    --     13.8213                 1.4873                11.7651

                     28                     29                     30
                      A                      A                      A
 Frequencies --    651.1939               654.4092               679.1018
 Red. masses --      3.9879                 4.2730                 2.3381
 Frc consts  --      0.9964                 1.0781                 0.6353
 IR Inten    --     17.1743                19.5524                51.3559

                     31                     32                     33
                      A                      A                      A
 Frequencies --    697.8096               733.0695               759.4844
 Red. masses --      2.8025                 4.3999                 3.0344
 Frc consts  --      0.8040                 1.3931                 1.0312
 IR Inten    --     35.2624                 8.1098                 7.5965

                     34                     35                     36
                      A                      A                      A
 Frequencies --    768.2557               800.8708               811.4302
 Red. masses --      1.3726                 1.4210                 2.7551
 Frc consts  --      0.4773                 0.5370                 1.0688
 IR Inten    --     38.5757                17.4535                 6.5852

                     37                     38                     39
                      A                      A                      A
 Frequencies --    834.7288               845.1290               860.2769
 Red. masses --      1.6749                 3.3397                 1.4744
 Frc consts  --      0.6876                 1.4054                 0.6429
 IR Inten    --     98.7090                 2.5537                28.9155

                     40                     41                     42
                      A                      A                      A
 Frequencies --    889.4532               929.0368               941.7719
 Red. masses --      1.4574                 2.4735                 2.5959
 Frc consts  --      0.6793                 1.2579                 1.3565
 IR Inten    --      0.1991                 0.4052                 2.6219

                     43                     44                     45
                      A                      A                      A
 Frequencies --    952.8788               988.4168              1008.9053
 Red. masses --      1.5321                 1.2754                 3.2362
 Frc consts  --      0.8196                 0.7341                 1.9409
 IR Inten    --      1.2529                 0.0667                27.5941

                     46                     47                     48
                      A                      A                      A
 Frequencies --   1012.1999              1048.9813              1050.8301
 Red. masses --      2.0862                 1.5831                 4.4362
 Frc consts  --      1.2593                 1.0264                 2.8862
 IR Inten    --      1.1439                15.9069                 6.9223

                     49                     50                     51
                      A                      A                      A
 Frequencies --   1074.7166              1077.2745              1089.0797
 Red. masses --      1.8195                 1.9283                 2.0029
 Frc consts  --      1.2382                 1.3185                 1.3997
 IR Inten    --      5.5146                 8.3471                 9.5079

                     52                     53                     54
                      A                      A                      A
 Frequencies --   1092.6775              1116.0160              1145.5431
 Red. masses --      1.6843                 4.2929                 1.7227
 Frc consts  --      1.1848                 3.1502                 1.3319
 IR Inten    --      5.3086                34.4080                 6.6855

                     55                     56                     57
                      A                      A                      A
 Frequencies --   1169.5057              1190.1869              1196.3008
 Red. masses --      1.2889                 1.7953                 1.0930
 Frc consts  --      1.0386                 1.4983                 0.9216
 IR Inten    --      2.8283                26.7049                 0.2426

                     58                     59                     60
                      A                      A                      A
 Frequencies --   1212.5566              1229.0303              1244.5233
 Red. masses --      1.3315                 2.6608                 1.3923
 Frc consts  --      1.1534                 2.3680                 1.2705
 IR Inten    --      3.2450                 5.6483                 3.9973

                     61                     62                     63
                      A                      A                      A
 Frequencies --   1256.7102              1307.7639              1321.7894
 Red. masses --      2.2506                 1.4241                 1.5373
 Frc consts  --      2.0942                 1.4350                 1.5825
 IR Inten    --     10.8830                 1.1355                 4.2328

                     64                     65                     66
                      A                      A                      A
 Frequencies --   1352.2870              1355.7564              1357.6915
 Red. masses --      3.3002                 3.0549                 3.0838
 Frc consts  --      3.5557                 3.3084                 3.3492
 IR Inten    --     36.7423                18.3701               124.8179

                     67                     68                     69
                      A                      A                      A
 Frequencies --   1372.2229              1400.6550              1416.4303
 Red. masses --      1.4627                 3.2384                 1.5550
 Frc consts  --      1.6227                 3.7432                 1.8381
 IR Inten    --     57.2100                 3.8949                 5.2034

                     70                     71                     72
                      A                      A                      A
 Frequencies --   1430.9633              1442.2639              1449.2094
 Red. masses --      1.3260                 2.6152                 1.6862
 Frc consts  --      1.5997                 3.2051                 2.0865
 IR Inten    --     65.6477                15.0341                19.3021

                     73                     74                     75
                      A                      A                      A
 Frequencies --   1460.0640              1492.7515              1503.8767
 Red. masses --      1.8923                 2.2154                 1.1234
 Frc consts  --      2.3767                 2.9085                 1.4969
 IR Inten    --      1.9517                11.5668                 4.7271

                     76                     77                     78
                      A                      A                      A
 Frequencies --   1506.5600              1510.7813              1515.5460
 Red. masses --      1.9456                 1.1020                 1.0924
 Frc consts  --      2.6019                 1.4819                 1.4784
 IR Inten    --     12.1517                 1.7813                10.3368

                     79                     80                     81
                      A                      A                      A
 Frequencies --   1519.9033              1527.5357              1541.2911
 Red. masses --      1.1232                 1.1732                 2.3007
 Frc consts  --      1.5288                 1.6129                 3.2202
 IR Inten    --      8.3415                35.0455                29.1526

                     82                     83                     84
                      A                      A                      A
 Frequencies --   1547.3094              1552.5862              1606.6068
 Red. masses --      1.0982                 1.1747                 4.5891
 Frc consts  --      1.5492                 1.6683                 6.9790
 IR Inten    --      7.8344                 7.7669                16.4936

                     85                     86                     87
                      A                      A                      A
 Frequencies --   1638.6682              1664.2650              1771.2273
 Red. masses --      6.1233                 5.9684                 7.7920
 Frc consts  --      9.6877                 9.7399                14.4029
 IR Inten    --      5.0896                 2.0728               374.5457

                     88                     89                     90
                      A                      A                      A
 Frequencies --   3004.7543              3051.7742              3061.9743
 Red. masses --      1.0666                 1.0602                 1.0918
 Frc consts  --      5.6739                 5.8175                 6.0309
 IR Inten    --     28.6177                49.5678                37.9483

                     91                     92                     93
                      A                      A                      A
 Frequencies --   3067.5077              3075.6977              3092.4183
 Red. masses --      1.0366                 1.0363                 1.1056
 Frc consts  --      5.7470                 5.7761                 6.2296
 IR Inten    --     56.9604                 5.7252                21.5288

                     94                     95                     96
                      A                      A                      A
 Frequencies --   3141.6442              3144.0901              3169.4174
 Red. masses --      1.1023                 1.1000                 1.1042
 Frc consts  --      6.4101                 6.4068                 6.5349
 IR Inten    --      4.7167                 2.9500                 8.0898

                     97                     98                     99
                      A                      A                      A
 Frequencies --   3186.5951              3187.7718              3192.8375
 Red. masses --      1.0857                 1.1038                 1.0891
 Frc consts  --      6.4956                 6.6085                 6.5415
 IR Inten    --      2.7067                 2.2141                 3.4142

                    100                    101                    102
                      A                      A                      A
 Frequencies --   3202.8366              3215.2089              3244.7635
 Red. masses --      1.0930                 1.0978                 1.0957
 Frc consts  --      6.6058                 6.6865                 6.7966
 IR Inten    --     23.7111                23.0059                 6.9610

                    103                    104                    105
                      A                      A                      A
 Frequencies --   3277.5465              3491.3913              3558.4810
 Red. masses --      1.0974                 1.0728                 1.0748
 Frc consts  --      6.9459                 7.7050                 8.0184
 IR Inten    --      0.0802                 1.9514                24.4264

 - Thermochemistry -
 -------------------
 Temperature   298.150 Kelvin.  Pressure   1.00000 Atm.
 Atom     1 has atomic number  6 and mass  12.00000

 Molecular mass:   258.14806 amu.
 Principal axes and moments of inertia in atomic units:
                           1         2         3
     Eigenvalues --  2512.018456888.855778268.73215
           X            0.99995  -0.00901   0.00357
           Y            0.00898   0.99994   0.00647
           Z           -0.00363  -0.00644   0.99997
 This molecule is an asymmetric top.
 Rotational symmetry number  1.
 Warning -- assumption of classical behavior for rotation
           may cause significant error
 Rotational temperatures (Kelvin)      0.03448     0.01257     0.01047
 Rotational constants (GHZ):           0.71844     0.26198     0.21826
 Zero-point vibrational energy     817975.2 (Joules/Mol)
                                  195.50078 (Kcal/Mol)
 Warning -- explicit consideration of  26 degrees of freedom as
           vibrations may cause significant error
 Vibrational temperatures:     53.41    74.90    94.39   120.19   134.03
          (Kelvin)            142.79   159.11   174.30   191.94   241.60
                              252.50   284.35   349.97   394.49   422.17
                              428.52   463.90   583.25   593.31   636.79
                              664.88   695.81   723.94   760.07   801.87
                              887.15   906.80   936.92   941.55   977.08
                             1003.99  1054.72  1092.73  1105.35  1152.27
                             1167.47  1200.99  1215.95  1237.75  1279.72
                             1336.68  1355.00  1370.98  1422.11  1451.59
                             1456.33  1509.25  1511.91  1546.28  1549.96
                             1566.94  1572.12  1605.70  1648.18  1682.66
                             1712.41  1721.21  1744.60  1768.30  1790.59
                             1808.13  1881.58  1901.76  1945.64  1950.63
                             1953.42  1974.32  2015.23  2037.93  2058.84
                             2075.10  2085.09  2100.71  2147.74  2163.74
                             2167.60  2173.68  2180.53  2186.80  2197.78
                             2217.57  2226.23  2233.83  2311.55  2357.68
                             2394.51  2548.40  4323.17  4390.82  4405.50
                             4413.46  4425.24  4449.30  4520.13  4523.64
                             4560.08  4584.80  4586.49  4593.78  4608.17
                             4625.97  4668.49  4715.66  5023.33  5119.86

 Zero-point correction=                           0.311550 (Hartree/Particle)
 Thermal correction to Energy=                    0.329359
 Thermal correction to Enthalpy=                  0.330303
 Thermal correction to Gibbs Free Energy=         0.265379
 Sum of electronic and zero-point Energies=           -838.310235
 Sum of electronic and thermal Energies=              -838.292427
 Sum of electronic and thermal Enthalpies=            -838.291482
 Sum of electronic and thermal Free Energies=         -838.356406

                     E (Thermal)             CV                S
                      KCal/Mol        Cal/Mol-Kelvin    Cal/Mol-Kelvin
 Total                  206.676             67.695            136.643
 Electronic               0.000              0.000              0.000
 Translational            0.889              2.981             42.545
 Rotational               0.889              2.981             33.325
 Vibrational            204.898             61.733             60.773
 Vibration     1          0.594              1.982              5.407
 Vibration     2          0.596              1.977              4.738
 Vibration     3          0.597              1.971              4.281
 Vibration     4          0.600              1.961              3.806
 Vibration     5          0.602              1.954              3.593
 Vibration     6          0.604              1.950              3.469
 Vibration     7          0.606              1.941              3.259
 Vibration     8          0.609              1.932              3.082
 Vibration     9          0.613              1.920              2.896
 Vibration    10          0.625              1.882              2.459
 Vibration    11          0.627              1.873              2.376
 Vibration    12          0.637              1.843              2.155
 Vibration    13          0.659              1.774              1.779
 Vibration    14          0.677              1.721              1.570
 Vibration    15          0.688              1.686              1.454
 Vibration    16          0.691              1.678              1.429
 Vibration    17          0.707              1.631              1.298
 Vibration    18          0.770              1.459              0.943
 Vibration    19          0.776              1.443              0.918
 Vibration    20          0.802              1.377              0.819
 Vibration    21          0.820              1.334              0.760
 Vibration    22          0.840              1.286              0.700
 Vibration    23          0.858              1.243              0.650
 Vibration    24          0.883              1.187              0.591
 Vibration    25          0.913              1.124              0.529
 Vibration    26          0.976              0.997              0.422

 Optimization completed.
    -- Stationary point found.
 Normal termination of Gaussian 16 at Sat Dec 12 11:16:34 2020.

 ----------------------------------------------------------------------
 # B3LYP/6-311++G(d,p) empiricaldispersion=gd3bj scf=xqc pop=npa geom=c
 heck
 ----------------------------------------------------------------------

 --------------------------------------
 CID_66290064_JID_9957_Energie_neutraal
 --------------------------------------
 Structure from the checkpoint file:  "JID_9957.chk"
 Charge =  0 Multiplicity = 1

 SCF Done:  E(RB3LYP) =  -838.853326404     A.U. after   16 cycles
 Normal termination of Gaussian 16 at Sat Dec 12 11:26:17 2020.

 ----------------------------------------------------------------------
 # B3LYP/6-311++G(d,p) empiricaldispersion=gd3bj scf=xqc pop=npa geom=c
 heck
 ----------------------------------------------------------------------

 ------------------------------------
 CID_66290064_JID_9957_Energie_kation
 ------------------------------------
 Structure from the checkpoint file:  "JID_9957.chk"
 Charge =  1 Multiplicity = 2

 SCF Done:  E(UB3LYP) =  -838.558374077     A.U. after   31 cycles
 Normal termination of Gaussian 16 at Sat Dec 12 11:51:44 2020.
 Gaussian 16:  ES64L-G16RevA.03 25-Dec-2016

 ----------------------------------------------------------------------
 # B3LYP/6-311++G(d,p) empiricaldispersion=gd3bj scf=xqc pop=npa geom=c
 heck
 ----------------------------------------------------------------------

 -----------------------------------
 CID_66290064_JID_9957_Energie_anion
 -----------------------------------
 Structure from the checkpoint file:  "JID_9957.chk"
 Charge = -1 Multiplicity = 2

                         Standard orientation:
 ---------------------------------------------------------------------
 Center     Atomic      Atomic             Coordinates (Angstroms)
 Number     Number       Type             X           Y           Z
 ---------------------------------------------------------------------
      1          6           0       -0.236134    1.564524    1.344134
      2          6           0       -0.149887    1.774601   -0.150318
      3          8           0       -0.986770    2.422943   -0.771102
      4          7           0        0.902514    1.194861   -0.830832
      5          6           0        2.094870    0.597416   -0.304332
      6          6           0        3.278956    1.339177   -0.348726
      7          6           0        4.477872    0.790344    0.100384
      8          6           0        4.489786   -0.509267    0.604718
      9          6           0        3.308345   -1.247880    0.643998
     10          6           0        2.094743   -0.721970    0.187544
     11          6           0        0.837336   -1.557938    0.244769
     12          7           0        0.297699   -1.849686   -1.088616
     13          6           0       -1.075769   -2.387418   -1.024906
     14          6           0       -2.076199   -1.483213   -0.353953
     15          6           0       -2.587257   -0.286746   -0.839449
     16          7           0       -3.332155    0.265213    0.150010
     17          7           0       -3.348040   -0.496869    1.269125
     18          6           0       -2.589040   -1.553239    0.963398
     19          6           0       -4.004436    1.552683    0.132408
     20          1           0       -0.491691    2.522845    1.803693
     21          1           0        0.686779    1.180873    1.782254
     22          1           0       -1.053380    0.868135    1.559417
     23          1           0        0.941955    1.511016   -1.794450
     24          1           0        3.245132    2.354391   -0.734194
     25          1           0        5.391283    1.376331    0.061563
     26          1           0        5.416246   -0.950431    0.960492
     27          1           0        3.322512   -2.265469    1.024500
     28          1           0        1.068467   -2.513687    0.730853
     29          1           0        0.099051   -1.056989    0.890430
     30          1           0        0.254219   -0.966757   -1.595279
     31          1           0       -1.379635   -2.607624   -2.054539
     32          1           0       -1.034791   -3.347559   -0.496267
     33          1           0       -2.442927    0.225707   -1.779448
     34          1           0       -2.434905   -2.333776    1.698160
     35          1           0       -4.426479    1.706583    1.125402
     36          1           0       -3.277115    2.334690   -0.100209
     37          1           0       -4.809794    1.557102   -0.609389
 ---------------------------------------------------------------------

 SCF Done:  E(UB3LYP) =  -838.839696912     A.U. after   33 cycles
 SCF Done:  E(UB3LYP) =  -838.842461611     a.u. after   10 cycles

 The electronic state is 2-A.
 Alpha  occ. eigenvalues --  -18.99011 -14.29794 -14.23750 -14.23715 -14.19953
 Alpha  occ. eigenvalues --  -10.17811 -10.11393 -10.10769 -10.10652 -10.10113
 Alpha  occ. eigenvalues --  -10.09662 -10.09624 -10.08044 -10.07645 -10.07571
 Alpha  occ. eigenvalues --  -10.07100 -10.06886 -10.06754 -10.06415  -0.95789
 Alpha  occ. eigenvalues --   -0.94147  -0.83165  -0.80862  -0.74983  -0.74498
 Alpha  occ. eigenvalues --   -0.69948  -0.66441  -0.64950  -0.63442  -0.62115
 Alpha  occ. eigenvalues --   -0.58765  -0.54883  -0.51594  -0.50072  -0.49419
 Alpha  occ. eigenvalues --   -0.47653  -0.46664  -0.43165  -0.42958  -0.39402
 Alpha  occ. eigenvalues --   -0.39164  -0.38209  -0.37160  -0.36728  -0.35608
 Alpha  occ. eigenvalues --   -0.35326  -0.34269  -0.34029  -0.33128  -0.31886
 Alpha  occ. eigenvalues --   -0.31524  -0.30932  -0.30277  -0.30036  -0.29372
 Alpha  occ. eigenvalues --   -0.28670  -0.27159  -0.26847  -0.26017  -0.25110
 Alpha  occ. eigenvalues --   -0.24375  -0.20697  -0.17932  -0.16798  -0.16223
 Alpha  occ. eigenvalues --   -0.16055  -0.14789  -0.13940  -0.13199   0.04517
 Alpha virt. eigenvalues --    0.06240   0.06886   0.07284   0.07737   0.07900
 Alpha virt. eigenvalues --    0.08489   0.08755   0.09303   0.09498   0.09724
 Alpha virt. eigenvalues --    0.10461   0.10822   0.11192   0.11669   0.11922

  Beta  occ. eigenvalues --  -18.98995 -14.29787 -14.23751 -14.23714 -14.19942
  Beta  occ. eigenvalues --  -10.17779 -10.11379 -10.10749 -10.10642 -10.09928
  Beta  occ. eigenvalues --  -10.09662 -10.09622 -10.08049 -10.07645 -10.07563
  Beta  occ. eigenvalues --  -10.07113 -10.06849 -10.06690 -10.06274  -0.95778
  Beta  occ. eigenvalues --   -0.94106  -0.83037  -0.80831  -0.74962  -0.74369
  Beta  occ. eigenvalues --   -0.69923  -0.66355  -0.64845  -0.63261  -0.62070
  Beta  occ. eigenvalues --   -0.58716  -0.54824  -0.51361  -0.50004  -0.49401
  Beta  occ. eigenvalues --   -0.47609  -0.46534  -0.43135  -0.42859  -0.39324
  Beta  occ. eigenvalues --   -0.39118  -0.38137  -0.37077  -0.36668  -0.35560
  Beta  occ. eigenvalues --   -0.35302  -0.34212  -0.33991  -0.33039  -0.31855
  Beta  occ. eigenvalues --   -0.31485  -0.30888  -0.30241  -0.30002  -0.29331
  Beta  occ. eigenvalues --   -0.28637  -0.27107  -0.26747  -0.25687  -0.25031
  Beta  occ. eigenvalues --   -0.24299  -0.20690  -0.17659  -0.16757  -0.16184
  Beta  occ. eigenvalues --   -0.15924  -0.14520  -0.13444  -0.13174
  Beta virt. eigenvalues --    0.06573   0.06973   0.07451   0.07879   0.08069
  Beta virt. eigenvalues --    0.08411   0.08695   0.09149   0.09433   0.09833
  Beta virt. eigenvalues --    0.09865   0.10593   0.11117   0.11525   0.11753

 Mulliken charges and spin densities:
               1          2
     1  C   -0.059366  -0.526326
     2  C   -0.028706   0.150738
     3  O   -0.336755   0.030707
     4  N   -0.322309   0.093720
     5  C   -0.067819  -0.130025
     6  C   -0.769974   0.816159
     7  C    1.001239  -1.242689
     8  C   -0.245150  -0.178767
     9  C   -0.907626   0.657462
    10  C    0.315545   0.214091
    11  C    1.061325  -1.451133
    12  N   -0.024933   0.077111
    13  C    0.178451  -0.979753
    14  C    0.532923   0.157239
    15  C   -0.784923   0.214048
    16  N    0.309959  -0.020575
    17  N   -0.279257   0.050036
    18  C   -0.409295   0.055430
    19  C    0.170860  -0.496331
    20  H    0.081504   0.104273
    21  H    0.188019  -0.042294
    22  H    0.268643  -0.082184
    23  H   -0.270308   0.614982
    24  H   -0.379004   0.538199
    25  H   -0.353246   0.515130
    26  H   -0.203088   0.340149
    27  H   -0.036530   0.161279
    28  H    0.207992  -0.015635
    29  H    0.042722   0.049960
    30  H    0.234743   0.005696
    31  H   -0.096866   0.280328
    32  H    0.099802   0.042090
    33  H   -0.273131   0.484006
    34  H    0.099902   0.034478
    35  H    0.078947   0.072271
    36  H    0.194660   0.035455
    37  H   -0.218949   0.370675
 Sum of Mulliken charges =  -1.00000   1.00000

 Dipole moment (field-independent basis, Debye):
    X=             -3.5708    Y=             -2.5965    Z=              4.1192  Tot=              6.0383
 Quadrupole moment (field-independent basis, Debye-Ang):
   XX=           -198.7230   YY=           -148.3090   ZZ=           -148.7025
   XY=             -3.5496   XZ=              2.4156   YZ=              4.4348

 Summary of Natural Population Analysis:

                                       Natural Population
                Natural  -----------------------------------------------
    Atom  No    Charge         Core      Valence    Rydberg      Total
 -----------------------------------------------------------------------
      C    1   -0.33752      0.99961     2.33352    0.00440     3.33752
      C    2    0.35329      0.99968     1.62551    0.02152     2.64671
      O    3   -0.33412      0.99987     3.32809    0.00615     4.33412
      N    4   -0.33010      0.99965     2.81753    0.01292     3.83010
      C    5    0.09097      0.99940     1.89782    0.01181     2.90903
      C    6   -0.09063      0.99951     2.08119    0.00993     3.09063
      C    7   -0.10469      0.99956     2.09530    0.00983     3.10469
      C    8   -0.07927      0.99956     2.06927    0.01043     3.07927
      C    9   -0.09126      0.99952     2.08206    0.00968     3.09126
      C   10   -0.02031      0.99946     2.01068    0.01018     3.02031
      C   11   -0.09890      0.99958     2.08791    0.01141     3.09890
      N   12   -0.33062      0.99976     2.82046    0.01041     3.83062
      C   13   -0.09675      0.99959     2.08520    0.01196     3.09675
      C   14   -0.08714      0.99951     2.07792    0.00972     3.08714
      C   15    0.00148      0.99949     1.98710    0.01193     2.99852
      N   16   -0.10381      0.99967     2.59122    0.01292     3.60381
      N   17   -0.16099      0.99974     2.64976    0.01149     3.66099
      C   18   -0.01847      0.99957     2.00542    0.01349     3.01847
      C   19   -0.18014      0.99963     2.17299    0.00753     3.18014
      H   20    0.11082      0.00000     0.38846    0.00073     0.38918
      H   21    0.10973      0.00000     0.38953    0.00074     0.39027
      H   22    0.11842      0.00000     0.38037    0.00121     0.38158
      H   23    0.20360      0.00000     0.28977    0.00663     0.29640
      H   24    0.10347      0.00000     0.39532    0.00121     0.39653
      H   25    0.10024      0.00000     0.39861    0.00114     0.39976
      H   26    0.09691      0.00000     0.40219    0.00089     0.40309
      H   27    0.09622      0.00000     0.40285    0.00093     0.40378
      H   28    0.09144      0.00000     0.40734    0.00122     0.40856
      H   29    0.09082      0.00000     0.40706    0.00211     0.40918
      H   30    0.17554      0.00000     0.32034    0.00412     0.32446
      H   31    0.10096      0.00000     0.39817    0.00087     0.39904
      H   32    0.09308      0.00000     0.40596    0.00096     0.40692
      H   33    0.11272      0.00000     0.38584    0.00144     0.38728
      H   34    0.09668      0.00000     0.40247    0.00085     0.40332
      H   35    0.10512      0.00000     0.39375    0.00113     0.39488
      H   36    0.11703      0.00000     0.38187    0.00110     0.38297
      H   37    0.09618      0.00000     0.40272    0.00110     0.40382
 =======================================================================
   * Total *    0.00000     18.99235    49.77156    0.23609    69.00000

 Normal termination of Gaussian 16 at Sat Dec 12 15:05:17 2020.
