 Gaussian 16, Revision A.03,

 -----------------------------------------------------------
 # opt freq B3LYP/6-31G(d) empiricaldispersion=gd3bj scf=xqc
 -----------------------------------------------------------

 ------------------------------
 CID_79682820_JID_3674_neutraal
 ------------------------------
 Symbolic Z-matrix:
 Charge =  0 Multiplicity = 1

 SCF Done:  E(RB3LYP) =  -956.601078404     A.U. after   14 cycles
 SCF Done:  E(RB3LYP) =  -956.524983316     A.U. after   15 cycles
 SCF Done:  E(RB3LYP) =  -956.602719816     A.U. after   13 cycles
 SCF Done:  E(RB3LYP) =  -956.603965277     A.U. after   10 cycles
 SCF Done:  E(RB3LYP) =  -956.605168961     A.U. after   11 cycles
 SCF Done:  E(RB3LYP) =  -956.605648599     A.U. after   12 cycles
 SCF Done:  E(RB3LYP) =  -956.605855939     A.U. after   12 cycles
 SCF Done:  E(RB3LYP) =  -956.606211946     A.U. after   12 cycles
 SCF Done:  E(RB3LYP) =  -956.606202075     A.U. after   12 cycles
 SCF Done:  E(RB3LYP) =  -956.606374356     A.U. after   11 cycles
 SCF Done:  E(RB3LYP) =  -956.606456583     A.U. after    8 cycles
 SCF Done:  E(RB3LYP) =  -956.606457233     A.U. after    8 cycles
 SCF Done:  E(RB3LYP) =  -956.606457471     A.U. after    8 cycles
 SCF Done:  E(RB3LYP) =  -956.606457589     A.U. after    7 cycles
 SCF Done:  E(RB3LYP) =  -956.606457682     A.U. after    7 cycles
 SCF Done:  E(RB3LYP) =  -956.606457721     A.U. after    6 cycles
 Optimization completed.
    -- Stationary point found.
 Normal termination of Gaussian 16 at Sun Dec 13 20:10:46 2020.

 --------------------------------------------------------------------
 #N Geom=AllCheck Guess=TCheck SCRF=Check GenChk RB3LYP/6-31G(d) Freq
 --------------------------------------------------------------------

 Structure from the checkpoint file:  "JID_3674.chk"
 ------------------------------
 CID_79682820_JID_3674_neutraal
 ------------------------------
 Charge =  0 Multiplicity = 1

 SCF Done:  E(RB3LYP) =  -956.606457721     A.U. after    1 cycles

  Exact polarizability: 137.204  -2.464 111.574  -6.210  -1.409 112.042
 Approx polarizability: 174.378  -3.911 161.914 -19.475  -4.837 180.592

                      1                      2                      3
                      A                      A                      A
 Frequencies --     22.2721                46.0031                59.8900
 Red. masses --      5.4187                 4.7790                 4.2925
 Frc consts  --      0.0016                 0.0060                 0.0091
 IR Inten    --      3.9047                 2.6637                 1.6086

                      4                      5                      6
                      A                      A                      A
 Frequencies --     91.6958               111.9281               156.0506
 Red. masses --      4.7324                 5.3326                 4.1174
 Frc consts  --      0.0234                 0.0394                 0.0591
 IR Inten    --      0.8283                 2.7294                 2.8681

                      7                      8                      9
                      A                      A                      A
 Frequencies --    161.3719               175.1465               189.2475
 Red. masses --      2.2778                 2.9471                 3.4957
 Frc consts  --      0.0349                 0.0533                 0.0738
 IR Inten    --      1.1500                 0.7486                 3.4517

                     10                     11                     12
                      A                      A                      A
 Frequencies --    219.0706               236.5511               245.2759
 Red. masses --      3.6781                 1.3760                 2.0812
 Frc consts  --      0.1040                 0.0454                 0.0738
 IR Inten    --      6.0502                 0.3227                 4.1072

                     13                     14                     15
                      A                      A                      A
 Frequencies --    274.1704               287.7532               309.1159
 Red. masses --      1.3047                 2.2564                 1.4768
 Frc consts  --      0.0578                 0.1101                 0.0831
 IR Inten    --      1.4928                22.9154                66.6622

                     16                     17                     18
                      A                      A                      A
 Frequencies --    312.6855               371.6550               381.0731
 Red. masses --      1.9524                 2.5492                 4.4220
 Frc consts  --      0.1125                 0.2075                 0.3783
 IR Inten    --     23.4027                 0.5315                 0.5987

                     19                     20                     21
                      A                      A                      A
 Frequencies --    389.7587               401.2786               432.5371
 Red. masses --      3.4420                 3.2390                 2.1251
 Frc consts  --      0.3081                 0.3073                 0.2342
 IR Inten    --      1.0885                 0.4842                 1.2876

                     22                     23                     24
                      A                      A                      A
 Frequencies --    472.8929               582.0467               603.2681
 Red. masses --      1.1724                 5.2971                 5.1924
 Frc consts  --      0.1545                 1.0573                 1.1134
 IR Inten    --    130.9405                 0.0422                 0.2429

                     25                     26                     27
                      A                      A                      A
 Frequencies --    633.4510               701.9041               726.0035
 Red. masses --      2.6124                 4.5260                 2.2723
 Frc consts  --      0.6176                 1.3138                 0.7057
 IR Inten    --     15.9460                 3.1573                 6.0191

                     28                     29                     30
                      A                      A                      A
 Frequencies --    750.1223               789.0667               823.1905
 Red. masses --      3.8081                 1.9137                 2.8222
 Frc consts  --      1.2625                 0.7020                 1.1268
 IR Inten    --      4.3550                 8.8224                 7.6176

                     31                     32                     33
                      A                      A                      A
 Frequencies --    907.8864               921.3133               944.2000
 Red. masses --      1.9315                 2.0296                 2.1365
 Frc consts  --      0.9380                 1.0150                 1.1222
 IR Inten    --     17.2922                12.8706                 0.7580

                     34                     35                     36
                      A                      A                      A
 Frequencies --    967.3431               969.2170              1004.1398
 Red. masses --      2.0815                 1.6537                 1.6721
 Frc consts  --      1.1476                 0.9153                 0.9934
 IR Inten    --     25.9364                 7.6081                14.2850

                     37                     38                     39
                      A                      A                      A
 Frequencies --   1037.7501              1056.9222              1069.9632
 Red. masses --      2.9918                 1.5671                 2.6197
 Frc consts  --      1.8983                 1.0314                 1.7670
 IR Inten    --     25.5529                 9.7142                 0.5226

                     40                     41                     42
                      A                      A                      A
 Frequencies --   1107.6945              1124.3791              1150.4212
 Red. masses --      2.2291                 2.5253                 1.4916
 Frc consts  --      1.6115                 1.8810                 1.1631
 IR Inten    --     77.9409                45.4402                 6.7099

                     43                     44                     45
                      A                      A                      A
 Frequencies --   1179.6862              1204.3276              1220.9607
 Red. masses --      1.1493                 1.7589                 1.2020
 Frc consts  --      0.9424                 1.5030                 1.0557
 IR Inten    --      3.3471                 2.8440                20.3090

                     46                     47                     48
                      A                      A                      A
 Frequencies --   1237.8657              1276.8735              1280.8242
 Red. masses --      2.4781                 1.5617                 1.1589
 Frc consts  --      2.2373                 1.5002                 1.1202
 IR Inten    --      7.7654                14.8411                15.1705

                     49                     50                     51
                      A                      A                      A
 Frequencies --   1286.0009              1310.7474              1344.5697
 Red. masses --      1.2915                 1.2816                 1.3725
 Frc consts  --      1.2584                 1.2973                 1.4619
 IR Inten    --     23.8740                 8.1707                22.8525

                     52                     53                     54
                      A                      A                      A
 Frequencies --   1353.6461              1391.4037              1400.1699
 Red. masses --      1.2149                 1.3456                 1.3272
 Frc consts  --      1.3116                 1.5349                 1.5330
 IR Inten    --      2.0380                 0.9425                13.5132

                     55                     56                     57
                      A                      A                      A
 Frequencies --   1430.6760              1438.0813              1453.6947
 Red. masses --      1.2008                 1.2408                 1.2055
 Frc consts  --      1.4481                 1.5119                 1.5010
 IR Inten    --      3.9898                47.2205                 2.8988

                     58                     59                     60
                      A                      A                      A
 Frequencies --   1461.4559              1490.3710              1505.4620
 Red. masses --      1.4932                 1.1040                 1.0802
 Frc consts  --      1.8791                 1.4448                 1.4424
 IR Inten    --     22.4133                 2.6714                 0.6023

                     61                     62                     63
                      A                      A                      A
 Frequencies --   1508.9975              1519.3005              1523.0813
 Red. masses --      1.0676                 1.0557                 1.0609
 Frc consts  --      1.4323                 1.4358                 1.4500
 IR Inten    --      0.6526                 2.6040                 4.3365

                     64                     65                     66
                      A                      A                      A
 Frequencies --   1531.2473              1541.9127              1545.1902
 Red. masses --      1.0501                 1.0631                 1.0756
 Frc consts  --      1.4507                 1.4892                 1.5131
 IR Inten    --      6.6261                18.2664                 2.5506

                     67                     68                     69
                      A                      A                      A
 Frequencies --   2356.6279              3044.2659              3057.4869
 Red. masses --     12.6867                 1.0571                 1.0407
 Frc consts  --     41.5126                 5.7722                 5.7318
 IR Inten    --      9.3817                33.9597                 5.7831

                     70                     71                     72
                      A                      A                      A
 Frequencies --   3059.5311              3064.7803              3081.7533
 Red. masses --      1.0468                 1.0432                 1.0668
 Frc consts  --      5.7734                 5.7731                 5.9694
 IR Inten    --     13.5923                23.5887                 4.9308

                     73                     74                     75
                      A                      A                      A
 Frequencies --   3090.0107              3090.0893              3098.4443
 Red. masses --      1.0798                 1.1084                 1.0683
 Frc consts  --      6.0746                 6.2357                 6.0425
 IR Inten    --     31.6049                41.5195                 6.1794

                     76                     77                     78
                      A                      A                      A
 Frequencies --   3103.6775              3129.3757              3133.9561
 Red. masses --      1.0951                 1.1027                 1.1021
 Frc consts  --      6.2153                 6.3627                 6.3776
 IR Inten    --     15.1996                 2.1230                38.4039

                     79                     80                     81
                      A                      A                      A
 Frequencies --   3140.0936              3141.5469              3150.9350
 Red. masses --      1.1039                 1.1051                 1.1050
 Frc consts  --      6.4131                 6.4260                 6.4638
 IR Inten    --     19.1885                10.0528                 9.2426

                     82                     83                     84
                      A                      A                      A
 Frequencies --   3158.5521              3703.0286              3771.2551
 Red. masses --      1.1029                 1.0652                 1.0668
 Frc consts  --      6.4826                 8.6060                 8.9396
 IR Inten    --      4.3834                25.2462                34.4452

 - Thermochemistry -
 -------------------
 Temperature   298.150 Kelvin.  Pressure   1.00000 Atm.
 Atom     1 has atomic number  6 and mass  12.00000

 Molecular mass:   203.09800 amu.
 Principal axes and moments of inertia in atomic units:
                           1         2         3
     Eigenvalues --  1691.742625033.783595437.38730
           X            0.99965   0.00455   0.02606
           Y           -0.00491   0.99989   0.01399
           Z           -0.02600  -0.01411   0.99956
 This molecule is an asymmetric top.
 Rotational symmetry number  1.
 Warning -- assumption of classical behavior for rotation
           may cause significant error
 Rotational temperatures (Kelvin)      0.05120     0.01721     0.01593
 Rotational constants (GHZ):           1.06679     0.35853     0.33191
 Zero-point vibrational energy     676067.5 (Joules/Mol)
                                  161.58402 (Kcal/Mol)
 Warning -- explicit consideration of  24 degrees of freedom as
           vibrations may cause significant error
 Vibrational temperatures:     32.04    66.19    86.17   131.93   161.04
          (Kelvin)            224.52   232.18   252.00   272.28   315.19
                              340.34   352.90   394.47   414.01   444.75
                              449.88   534.73   548.28   560.78   577.35
                              622.32   680.39   837.44   867.97   911.39
                             1009.88  1044.56  1079.26  1135.29  1184.39
                             1306.25  1325.56  1358.49  1391.79  1394.49
                             1444.73  1493.09  1520.68  1539.44  1593.73
                             1617.73  1655.20  1697.31  1732.76  1756.69
                             1781.01  1837.14  1842.82  1850.27  1885.87
                             1934.54  1947.59  2001.92  2014.53  2058.42
                             2069.08  2091.54  2102.71  2144.31  2166.02
                             2171.11  2185.93  2191.37  2203.12  2218.47
                             2223.18  3390.66  4380.02  4399.04  4401.98
                             4409.54  4433.96  4445.84  4445.95  4457.97
                             4465.50  4502.47  4509.06  4517.89  4519.99
                             4533.49  4544.45  5327.83  5425.99

 Zero-point correction=                           0.257501 (Hartree/Particle)
 Thermal correction to Energy=                    0.273396
 Thermal correction to Enthalpy=                  0.274340
 Thermal correction to Gibbs Free Energy=         0.213705
 Sum of electronic and zero-point Energies=           -956.348957
 Sum of electronic and thermal Energies=              -956.333062
 Sum of electronic and thermal Enthalpies=            -956.332117
 Sum of electronic and thermal Free Energies=         -956.392753

                     E (Thermal)             CV                S
                      KCal/Mol        Cal/Mol-Kelvin    Cal/Mol-Kelvin
 Total                  171.559             57.928            127.619
 Electronic               0.000              0.000              0.000
 Translational            0.889              2.981             41.830
 Rotational               0.889              2.981             32.204
 Vibrational            169.781             51.967             53.584
 Vibration     1          0.593              1.985              6.421
 Vibration     2          0.595              1.979              4.982
 Vibration     3          0.597              1.973              4.461
 Vibration     4          0.602              1.955              3.624
 Vibration     5          0.607              1.940              3.235
 Vibration     6          0.620              1.896              2.597
 Vibration     7          0.622              1.890              2.534
 Vibration     8          0.627              1.873              2.380
 Vibration     9          0.633              1.855              2.235
 Vibration    10          0.647              1.812              1.967
 Vibration    11          0.655              1.785              1.829
 Vibration    12          0.660              1.771              1.764
 Vibration    13          0.676              1.721              1.570
 Vibration    14          0.685              1.696              1.487
 Vibration    15          0.698              1.656              1.367
 Vibration    16          0.701              1.649              1.348
 Vibration    17          0.743              1.530              1.073
 Vibration    18          0.751              1.511              1.035
 Vibration    19          0.758              1.492              1.001
 Vibration    20          0.767              1.467              0.958
 Vibration    21          0.793              1.399              0.850
 Vibration    22          0.830              1.310              0.729
 Vibration    23          0.939              1.070              0.482
 Vibration    24          0.962              1.025              0.444

 Optimization completed.
    -- Stationary point found.
 Normal termination of Gaussian 16 at Sun Dec 13 20:18:35 2020.

 ----------------------------------------------------------------------
 # B3LYP/6-311++G(d,p) empiricaldispersion=gd3bj scf=xqc pop=npa geom=c
 heck
 ----------------------------------------------------------------------

 --------------------------------------
 CID_79682820_JID_3674_Energie_neutraal
 --------------------------------------
 Structure from the checkpoint file:  "JID_3674.chk"
 Charge =  0 Multiplicity = 1

 SCF Done:  E(RB3LYP) =  -956.814406614     A.U. after   14 cycles
 Normal termination of Gaussian 16 at Sun Dec 13 20:22:18 2020.

 ----------------------------------------------------------------------
 # B3LYP/6-311++G(d,p) empiricaldispersion=gd3bj scf=xqc pop=npa geom=c
 heck
 ----------------------------------------------------------------------

 ------------------------------------
 CID_79682820_JID_3674_Energie_kation
 ------------------------------------
 Structure from the checkpoint file:  "JID_3674.chk"
 Charge =  1 Multiplicity = 2

 SCF Done:  E(UB3LYP) =  -956.503817738     A.U. after   20 cycles
 Normal termination of Gaussian 16 at Sun Dec 13 20:29:56 2020.
 Gaussian 16:  ES64L-G16RevA.03 25-Dec-2016

 ----------------------------------------------------------------------
 # B3LYP/6-311++G(d,p) empiricaldispersion=gd3bj scf=xqc pop=npa geom=c
 heck
 ----------------------------------------------------------------------

 -----------------------------------
 CID_79682820_JID_3674_Energie_anion
 -----------------------------------
 Structure from the checkpoint file:  "JID_3674.chk"
 Charge = -1 Multiplicity = 2

                         Standard orientation:
 ---------------------------------------------------------------------
 Center     Atomic      Atomic             Coordinates (Angstroms)
 Number     Number       Type             X           Y           Z
 ---------------------------------------------------------------------
      1          6           0        3.651615    0.084484    1.418020
      2          6           0        2.491380   -0.230426    0.450538
      3          6           0        1.848982   -1.583985    0.828462
      4          6           0        1.436826    0.910319    0.510552
      5          6           0        0.427799    0.897089   -0.640834
      6         16           0       -1.034697    1.959857   -0.319073
      7          6           0       -2.005953    0.827692    0.752505
      8          6           0       -3.053190   -0.023414    0.013812
      9          6           0       -2.475802   -0.931345   -1.064302
     10          8           0       -1.593227   -1.851758   -0.401472
     11          8           0       -3.774785   -0.802720    0.960858
     12          6           0        3.032682   -0.323383   -0.918364
     13          7           0        3.449927   -0.396386   -1.999520
     14          1           0        3.255031    0.197559    2.432801
     15          1           0        4.389378   -0.723744    1.422795
     16          1           0        4.157392    1.013263    1.138043
     17          1           0        1.536386   -1.546346    1.877751
     18          1           0        0.966388   -1.801565    0.222049
     19          1           0        2.566463   -2.401798    0.711943
     20          1           0        0.917485    0.809211    1.470703
     21          1           0        1.945383    1.880220    0.528974
     22          1           0        0.887768    1.276716   -1.556976
     23          1           0        0.074940   -0.115170   -0.846767
     24          1           0       -1.312630    0.177836    1.295641
     25          1           0       -2.525365    1.442228    1.491768
     26          1           0       -3.779847    0.644653   -0.460820
     27          1           0       -3.302289   -1.471936   -1.542471
     28          1           0       -1.944956   -0.346292   -1.824930
     29          1           0       -1.414568   -2.589130   -1.003082
     30          1           0       -3.193241   -1.555092    1.166962
 ---------------------------------------------------------------------

 SCF Done:  E(UB3LYP) =  -956.808353814     A.U. after   30 cycles

 The electronic state is 2-A.
 Alpha  occ. eigenvalues --  -88.75018 -19.03001 -19.02732 -14.21984 -10.13786
 Alpha  occ. eigenvalues --  -10.13387 -10.12068 -10.11690 -10.10787 -10.10517
 Alpha  occ. eigenvalues --  -10.09590 -10.08656 -10.07469  -7.83627  -5.80019
 Alpha  occ. eigenvalues --   -5.79659  -5.79001  -0.94346  -0.91715  -0.81944
 Alpha  occ. eigenvalues --   -0.75638  -0.71860  -0.67027  -0.62268  -0.60938
 Alpha  occ. eigenvalues --   -0.57914  -0.54125  -0.51980  -0.49115  -0.43213
 Alpha  occ. eigenvalues --   -0.40984  -0.39907  -0.38385  -0.37861  -0.37203
 Alpha  occ. eigenvalues --   -0.36081  -0.33834  -0.32168  -0.31338  -0.30974
 Alpha  occ. eigenvalues --   -0.30734  -0.29794  -0.29127  -0.27937  -0.27320
 Alpha  occ. eigenvalues --   -0.26571  -0.26192  -0.25751  -0.23834  -0.23599
 Alpha  occ. eigenvalues --   -0.23221  -0.21909  -0.19372  -0.18817  -0.13724
 Alpha  occ. eigenvalues --    0.04036
 Alpha virt. eigenvalues --    0.05973   0.07635   0.07739   0.08600   0.08997
 Alpha virt. eigenvalues --    0.09357   0.10127   0.10647   0.10804   0.11235
 Alpha virt. eigenvalues --    0.11819   0.11918   0.12116   0.12822   0.13063

  Beta  occ. eigenvalues --  -88.75016 -19.02920 -19.02713 -14.21978 -10.13782
  Beta  occ. eigenvalues --  -10.13386 -10.12037 -10.11689 -10.10779 -10.10501
  Beta  occ. eigenvalues --  -10.09579 -10.08620 -10.07428  -7.83626  -5.80018
  Beta  occ. eigenvalues --   -5.79654  -5.78999  -0.94258  -0.91588  -0.81936
  Beta  occ. eigenvalues --   -0.75620  -0.71837  -0.66984  -0.62198  -0.60870
  Beta  occ. eigenvalues --   -0.57857  -0.54076  -0.51935  -0.49065  -0.43079
  Beta  occ. eigenvalues --   -0.40944  -0.39858  -0.38361  -0.37809  -0.37168
  Beta  occ. eigenvalues --   -0.36042  -0.33795  -0.32136  -0.31305  -0.30942
  Beta  occ. eigenvalues --   -0.30693  -0.29761  -0.29093  -0.27906  -0.27293
  Beta  occ. eigenvalues --   -0.26540  -0.26132  -0.25725  -0.23810  -0.23571
  Beta  occ. eigenvalues --   -0.23203  -0.21886  -0.19310  -0.18775  -0.13714
  Beta virt. eigenvalues --    0.06461   0.07263   0.08018   0.08180   0.08840
  Beta virt. eigenvalues --    0.09449   0.09812   0.10712   0.10782   0.11016
  Beta virt. eigenvalues --    0.11476   0.11858   0.12064   0.12304   0.13050

 Mulliken charges and spin densities:
               1          2
     1  C    0.557286  -1.111231
     2  C   -1.270825   2.507854
     3  C    0.387995  -1.046897
     4  C    0.011188  -0.945369
     5  C   -0.355593   0.256801
     6  S    0.204951  -0.169089
     7  C    0.225349  -0.334529
     8  C   -0.760169   0.290634
     9  C    0.793710  -1.182857
    10  O   -0.271411   0.001614
    11  O   -0.213088   0.032457
    12  C    0.513915  -1.056031
    13  N   -0.298519   0.018886
    14  H   -0.361935   0.529394
    15  H   -0.063849   0.226703
    16  H   -0.104213   0.256160
    17  H   -0.364297   0.526346
    18  H    0.585036  -0.412406
    19  H   -0.308310   0.489785
    20  H    0.122130   0.062990
    21  H    0.098323   0.036668
    22  H    0.199186   0.049996
    23  H    0.245672  -0.039456
    24  H    0.001658   0.112005
    25  H    0.078811   0.181668
    26  H    0.178410  -0.006165
    27  H   -0.506910   0.700322
    28  H    0.061218   0.066592
    29  H   -0.539650   0.844394
    30  H    0.153928   0.112762
 Sum of Mulliken charges =  -1.00000   1.00000

 Dipole moment (field-independent basis, Debye):
    X=             -0.7283    Y=              6.4658    Z=              0.5251  Tot=              6.5278
 Quadrupole moment (field-independent basis, Debye-Ang):
   XX=           -157.2070   YY=           -135.5122   ZZ=           -130.8548
   XY=             -6.0081   XZ=              1.3665   YZ=             -5.4633

 Summary of Natural Population Analysis:

                                       Natural Population
                Natural  -----------------------------------------------
    Atom  No    Charge         Core      Valence    Rydberg      Total
 -----------------------------------------------------------------------
      C    1   -0.27363      0.99964     2.26651    0.00749     3.27363
      C    2   -0.09235      0.99950     2.08146    0.01139     3.09235
      C    3   -0.27908      0.99963     2.27147    0.00798     3.27908
      C    4   -0.18669      0.99959     2.17500    0.01210     3.18669
      C    5   -0.25829      0.99957     2.24885    0.00987     3.25829
      S    6    0.08211      4.99963     2.90228    0.01598     7.91789
      C    7   -0.26298      0.99956     2.25184    0.01159     3.26298
      C    8    0.04778      0.99955     1.93705    0.01562     2.95222
      C    9   -0.02602      0.99957     2.01280    0.01365     3.02602
      O   10   -0.38670      0.99989     3.37882    0.00799     4.38670
      O   11   -0.37294      0.99990     3.36631    0.00673     4.37294
      C   12    0.16737      0.99962     1.81186    0.02115     2.83263
      N   13   -0.18654      0.99979     2.67499    0.01176     3.68654
      H   14    0.10528      0.00000     0.39332    0.00140     0.39472
      H   15    0.10517      0.00000     0.39357    0.00126     0.39483
      H   16    0.10201      0.00000     0.39684    0.00115     0.39799
      H   17    0.10348      0.00000     0.39487    0.00165     0.39652
      H   18    0.11428      0.00000     0.38311    0.00262     0.38572
      H   19    0.10420      0.00000     0.39419    0.00161     0.39580
      H   20    0.10464      0.00000     0.39381    0.00155     0.39536
      H   21    0.10161      0.00000     0.39687    0.00152     0.39839
      H   22    0.10896      0.00000     0.39012    0.00091     0.39104
      H   23    0.11438      0.00000     0.38249    0.00313     0.38562
      H   24    0.10954      0.00000     0.38873    0.00173     0.39046
      H   25    0.10842      0.00000     0.39061    0.00097     0.39158
      H   26    0.08870      0.00000     0.41006    0.00124     0.41130
      H   27    0.08798      0.00000     0.41034    0.00168     0.41202
      H   28    0.08476      0.00000     0.41356    0.00169     0.41524
      H   29    0.24798      0.00000     0.22446    0.02756     0.25202
      H   30    0.23656      0.00000     0.26011    0.00333     0.26344
 =======================================================================
   * Total *    0.00000     16.99542    37.79628    0.20830    55.00000

 Normal termination of Gaussian 16 at Sun Dec 13 20:41:08 2020.
