 Gaussian 16, Revision A.03,

 -----------------------------------------------------------
 # opt freq B3LYP/6-31G(d) empiricaldispersion=gd3bj scf=xqc
 -----------------------------------------------------------

 -------------------------------
 CID_143318718_JID_1214_neutraal
 -------------------------------
 Symbolic Z-matrix:
 Charge =  0 Multiplicity = 1

 SCF Done:  E(RB3LYP) =  -498.017087974     A.U. after   15 cycles
 SCF Done:  E(RB3LYP) =  -498.039688149     A.U. after   13 cycles
 SCF Done:  E(RB3LYP) =  -498.041108463     A.U. after   12 cycles
 SCF Done:  E(RB3LYP) =  -498.041337430     A.U. after   12 cycles
 SCF Done:  E(RB3LYP) =  -498.041207653     A.U. after   12 cycles
 SCF Done:  E(RB3LYP) =  -498.041406027     A.U. after   11 cycles
 SCF Done:  E(RB3LYP) =  -498.041426507     A.U. after   11 cycles
 SCF Done:  E(RB3LYP) =  -498.041428509     A.U. after    9 cycles
 SCF Done:  E(RB3LYP) =  -498.041429259     A.U. after    8 cycles
 SCF Done:  E(RB3LYP) =  -498.041429312     A.U. after    8 cycles
 Optimization completed.
    -- Stationary point found.
 Normal termination of Gaussian 16 at Tue Dec  8 19:26:59 2020.

 --------------------------------------------------------------------
 #N Geom=AllCheck Guess=TCheck SCRF=Check GenChk RB3LYP/6-31G(d) Freq
 --------------------------------------------------------------------

 Structure from the checkpoint file:  "JID_1214.chk"
 -------------------------------
 CID_143318718_JID_1214_neutraal
 -------------------------------
 Charge =  0 Multiplicity = 1

 SCF Done:  E(RB3LYP) =  -498.041429312     A.U. after    1 cycles

  Exact polarizability: 100.969   1.329  91.956   4.102   2.945  89.569
 Approx polarizability: 124.250   3.364 139.016   8.771  11.869 142.207

                      1                      2                      3
                      A                      A                      A
 Frequencies --     42.0610                45.3776                76.0698
 Red. masses --      3.1132                 4.1864                 2.7616
 Frc consts  --      0.0032                 0.0051                 0.0094
 IR Inten    --      1.9333                 2.0669                 0.4778

                      4                      5                      6
                      A                      A                      A
 Frequencies --    105.4112               107.1772               141.8185
 Red. masses --      6.6049                 2.7165                 2.8518
 Frc consts  --      0.0432                 0.0184                 0.0338
 IR Inten    --      2.0198                 0.6818                 2.0177

                      7                      8                      9
                      A                      A                      A
 Frequencies --    192.2499               217.2355               229.3229
 Red. masses --      3.2546                 1.5220                 2.6906
 Frc consts  --      0.0709                 0.0423                 0.0834
 IR Inten    --      4.1016                 0.3636                 6.6249

                     10                     11                     12
                      A                      A                      A
 Frequencies --    247.0746               295.7771               314.1188
 Red. masses --      1.3196                 1.8465                 4.5386
 Frc consts  --      0.0475                 0.0952                 0.2639
 IR Inten    --      1.2628                 1.1509                 7.0478

                     13                     14                     15
                      A                      A                      A
 Frequencies --    330.3084               389.0269               440.5262
 Red. masses --      2.6860                 2.2892                 3.1753
 Frc consts  --      0.1727                 0.2041                 0.3631
 IR Inten    --     11.0917                 1.8710                 4.2575

                     16                     17                     18
                      A                      A                      A
 Frequencies --    499.3230               546.6638               586.4126
 Red. masses --      3.2547                 4.9247                 5.3671
 Frc consts  --      0.4781                 0.8671                 1.0874
 IR Inten    --      6.9268                 1.1910                 6.5471

                     19                     20                     21
                      A                      A                      A
 Frequencies --    645.4781               750.4332               804.6196
 Red. masses --      3.9850                 1.3896                 1.1458
 Frc consts  --      0.9782                 0.4611                 0.4370
 IR Inten    --     10.0423                 5.7642                 7.5131

                     22                     23                     24
                      A                      A                      A
 Frequencies --    845.5855               884.9078               945.0938
 Red. masses --      1.6957                 2.8344                 1.6791
 Frc consts  --      0.7144                 1.3077                 0.8836
 IR Inten    --      6.6883                 2.8957                 2.9602

                     25                     26                     27
                      A                      A                      A
 Frequencies --    946.4186               982.8847              1018.5170
 Red. masses --      2.8470                 2.2828                 2.0322
 Frc consts  --      1.5025                 1.2993                 1.2421
 IR Inten    --      9.2875                 3.6990                 2.3631

                     28                     29                     30
                      A                      A                      A
 Frequencies --   1024.1549              1086.1398              1106.6842
 Red. masses --      1.7196                 2.5429                 1.9518
 Frc consts  --      1.0627                 1.7675                 1.4084
 IR Inten    --      1.2970                 1.9513                11.9818

                     31                     32                     33
                      A                      A                      A
 Frequencies --   1132.0733              1135.3617              1153.5998
 Red. masses --      1.6499                 2.2321                 1.7226
 Frc consts  --      1.2459                 1.6953                 1.3507
 IR Inten    --     23.4313                17.3878                 4.3415

                     34                     35                     36
                      A                      A                      A
 Frequencies --   1214.8811              1258.8219              1290.1067
 Red. masses --      2.8130                 1.4546                 1.6254
 Frc consts  --      2.4462                 1.3581                 1.5939
 IR Inten    --     69.9679                 0.7277                48.9414

                     37                     38                     39
                      A                      A                      A
 Frequencies --   1313.1263              1356.5033              1366.6329
 Red. masses --      1.2512                 1.1950                 1.3818
 Frc consts  --      1.2711                 1.2956                 1.5206
 IR Inten    --      3.1545                 7.3954                18.8100

                     40                     41                     42
                      A                      A                      A
 Frequencies --   1397.7147              1402.5538              1408.2951
 Red. masses --      1.4541                 1.3666                 1.3141
 Frc consts  --      1.6737                 1.5839                 1.5356
 IR Inten    --     20.5056                 5.2444                18.0484

                     43                     44                     45
                      A                      A                      A
 Frequencies --   1437.9695              1444.6273              1447.8995
 Red. masses --      1.2270                 1.2571                 1.2585
 Frc consts  --      1.4948                 1.5458                 1.5545
 IR Inten    --     34.2714                 6.2087                19.3697

                     46                     47                     48
                      A                      A                      A
 Frequencies --   1474.1058              1517.9424              1519.9261
 Red. masses --      1.7259                 1.0747                 1.0590
 Frc consts  --      2.2096                 1.4589                 1.4414
 IR Inten    --     37.2808                 3.0782                 2.2993

                     49                     50                     51
                      A                      A                      A
 Frequencies --   1523.1594              1523.4776              1533.7118
 Red. masses --      1.0488                 1.0738                 1.0725
 Frc consts  --      1.4337                 1.4684                 1.4864
 IR Inten    --      5.5429                 0.1292                 4.9288

                     52                     53                     54
                      A                      A                      A
 Frequencies --   1535.1143              1541.2543              1801.1294
 Red. masses --      1.0889                 1.0544                 8.5364
 Frc consts  --      1.5119                 1.4758                16.3160
 IR Inten    --      5.3651                 7.2090               298.7658

                     55                     56                     57
                      A                      A                      A
 Frequencies --   2367.3374              2971.8634              3042.7680
 Red. masses --     12.6639                 1.0855                 1.0386
 Frc consts  --     41.8157                 5.6488                 5.6654
 IR Inten    --      1.3915                97.2665                15.1103

                     58                     59                     60
                      A                      A                      A
 Frequencies --   3054.4673              3055.1327              3057.8832
 Red. masses --      1.0619                 1.0648                 1.0694
 Frc consts  --      5.8369                 5.8559                 5.8918
 IR Inten    --     23.7578                21.6852                23.3333

                     61                     62                     63
                      A                      A                      A
 Frequencies --   3058.9250              3081.9616              3086.5163
 Red. masses --      1.0367                 1.0894                 1.0933
 Frc consts  --      5.7151                 6.0968                 6.1365
 IR Inten    --     15.0726                 3.3571                 7.0560

                     64                     65                     66
                      A                      A                      A
 Frequencies --   3102.3659              3110.4139              3120.2487
 Red. masses --      1.1004                 1.1025                 1.1002
 Frc consts  --      6.2400                 6.2842                 6.3111
 IR Inten    --      8.5364                57.8078                38.9394

                     67                     68                     69
                      A                      A                      A
 Frequencies --   3130.2043              3137.8501              3156.3884
 Red. masses --      1.1020                 1.1042                 1.0947
 Frc consts  --      6.3619                 6.4056                 6.4257
 IR Inten    --     35.8423                24.8999                 3.6667

 - Thermochemistry -
 -------------------
 Temperature   298.150 Kelvin.  Pressure   1.00000 Atm.
 Atom     1 has atomic number  6 and mass  12.00000

 Molecular mass:   154.11061 amu.
 Principal axes and moments of inertia in atomic units:
                           1         2         3
     Eigenvalues --  1342.589262409.492962616.69857
           X            0.99963   0.02370  -0.01361
           Y           -0.02386   0.99964  -0.01193
           Z            0.01332   0.01225   0.99984
 This molecule is an asymmetric top.
 Rotational symmetry number  1.
 Warning -- assumption of classical behavior for rotation
           may cause significant error
 Rotational temperatures (Kelvin)      0.06451     0.03595     0.03310
 Rotational constants (GHZ):           1.34422     0.74901     0.68970
 Zero-point vibrational energy     568891.2 (Joules/Mol)
                                  135.96827 (Kcal/Mol)
 Warning -- explicit consideration of  18 degrees of freedom as
           vibrations may cause significant error
 Vibrational temperatures:     60.52    65.29   109.45   151.66   154.20
          (Kelvin)            204.05   276.60   312.55   329.94   355.49
                              425.56   451.95   475.24   559.72   633.82
                              718.41   786.53   843.72   928.70  1079.71
                             1157.67  1216.61  1273.18  1359.78  1361.69
                             1414.15  1465.42  1473.53  1562.71  1592.27
                             1628.80  1633.53  1659.77  1747.94  1811.16
                             1856.18  1889.30  1951.71  1966.28  2011.00
                             2017.96  2026.22  2068.92  2078.50  2083.20
                             2120.91  2183.98  2186.83  2191.49  2191.94
                             2206.67  2208.69  2217.52  2591.42  3406.07
                             4275.85  4377.86  4394.70  4395.65  4399.61
                             4401.11  4434.26  4440.81  4463.61  4475.19
                             4489.34  4503.67  4514.67  4541.34

 Zero-point correction=                           0.216679 (Hartree/Particle)
 Thermal correction to Energy=                    0.229485
 Thermal correction to Enthalpy=                  0.230429
 Thermal correction to Gibbs Free Energy=         0.176830
 Sum of electronic and zero-point Energies=           -497.824750
 Sum of electronic and thermal Energies=              -497.811944
 Sum of electronic and thermal Enthalpies=            -497.811000
 Sum of electronic and thermal Free Energies=         -497.864600

                     E (Thermal)             CV                S
                      KCal/Mol        Cal/Mol-Kelvin    Cal/Mol-Kelvin
 Total                  144.004             44.980            112.809
 Electronic               0.000              0.000              0.000
 Translational            0.889              2.981             41.007
 Rotational               0.889              2.981             30.516
 Vibrational            142.226             39.018             41.286
 Vibration     1          0.595              1.980              5.160
 Vibration     2          0.595              1.979              5.009
 Vibration     3          0.599              1.965              3.990
 Vibration     4          0.605              1.945              3.352
 Vibration     5          0.606              1.943              3.319
 Vibration     6          0.615              1.911              2.779
 Vibration     7          0.634              1.851              2.206
 Vibration     8          0.646              1.815              1.982
 Vibration     9          0.652              1.796              1.884
 Vibration    10          0.661              1.768              1.751
 Vibration    11          0.690              1.682              1.441
 Vibration    12          0.702              1.647              1.341
 Vibration    13          0.713              1.615              1.259
 Vibration    14          0.757              1.494              1.004
 Vibration    15          0.800              1.382              0.825
 Vibration    16          0.855              1.252              0.660
 Vibration    17          0.902              1.147              0.551
 Vibration    18          0.943              1.061              0.474

                           ! Non-Optimized Parameters !
 Normal termination of Gaussian 16 at Tue Dec  8 19:32:19 2020.

 ----------------------------------------------------------------------
 # B3LYP/6-311++G(d,p) empiricaldispersion=gd3bj scf=xqc pop=npa geom=c
 heck
 ----------------------------------------------------------------------

 ---------------------------------------
 CID_143318718_JID_1214_Energie_neutraal
 ---------------------------------------
 Structure from the checkpoint file:  "JID_1214.chk"
 Charge =  0 Multiplicity = 1

 SCF Done:  E(RB3LYP) =  -498.185242132     A.U. after   14 cycles
 Normal termination of Gaussian 16 at Tue Dec  8 19:34:36 2020.

 ----------------------------------------------------------------------
 # B3LYP/6-311++G(d,p) empiricaldispersion=gd3bj scf=xqc pop=npa geom=c
 heck
 ----------------------------------------------------------------------

 -------------------------------------
 CID_143318718_JID_1214_Energie_kation
 -------------------------------------
 Structure from the checkpoint file:  "JID_1214.chk"
 Charge =  1 Multiplicity = 2

 SCF Done:  E(UB3LYP) =  -497.837876673     A.U. after   25 cycles
 Normal termination of Gaussian 16 at Tue Dec  8 19:40:21 2020.
 Gaussian 16:  ES64L-G16RevA.03 25-Dec-2016

 ----------------------------------------------------------------------
 # B3LYP/6-311++G(d,p) empiricaldispersion=gd3bj scf=xqc pop=npa geom=c
 heck
 ----------------------------------------------------------------------

 ------------------------------------
 CID_143318718_JID_1214_Energie_anion
 ------------------------------------
 Structure from the checkpoint file:  "JID_1214.chk"
 Charge = -1 Multiplicity = 2

                         Standard orientation:
 ---------------------------------------------------------------------
 Center     Atomic      Atomic             Coordinates (Angstroms)
 Number     Number       Type             X           Y           Z
 ---------------------------------------------------------------------
      1          6           0        3.133683   -1.195171   -0.407614
      2          6           0        2.736796    0.282689   -0.331070
      3          6           0        1.317929    0.584085   -0.829301
      4          6           0        0.216897   -0.166934   -0.049659
      5          6           0        0.298868    0.088171    1.403458
      6          7           0        0.388547    0.238681    2.550304
      7          7           0       -1.130797    0.095827   -0.565047
      8          6           0       -1.985150   -1.048226   -0.882073
      9          6           0       -2.452920   -1.817277    0.354885
     10          6           0       -1.652336    1.358325   -0.476768
     11          8           0       -1.062071    2.334540   -0.050492
     12          1           0        2.548221   -1.812873    0.283570
     13          1           0        4.187116   -1.330392   -0.141687
     14          1           0        2.991363   -1.593704   -1.420154
     15          1           0        2.841744    0.639926    0.700707
     16          1           0        3.433020    0.877960   -0.934046
     17          1           0        1.111274    1.653185   -0.762755
     18          1           0        1.211638    0.285359   -1.879867
     19          1           0        0.381894   -1.241559   -0.177322
     20          1           0       -2.846767   -0.665324   -1.438325
     21          1           0       -1.438079   -1.709340   -1.565176
     22          1           0       -3.034910   -1.166894    1.015596
     23          1           0       -3.078805   -2.666609    0.060313
     24          1           0       -1.606227   -2.205940    0.930556
     25          1           0       -2.691763    1.404364   -0.855425
 ---------------------------------------------------------------------

 SCF Done:  E(UB3LYP) =  -498.177935938     A.U. after   28 cycles

 The electronic state is 2-A.
 Alpha  occ. eigenvalues --  -19.00544 -14.26142 -14.21852 -10.17856 -10.15977
 Alpha  occ. eigenvalues --  -10.11646 -10.11505 -10.08369 -10.07967 -10.06868
 Alpha  occ. eigenvalues --  -10.06594  -0.95474  -0.86273  -0.81207  -0.72397
 Alpha  occ. eigenvalues --   -0.67144  -0.65045  -0.58516  -0.55288  -0.50772
 Alpha  occ. eigenvalues --   -0.50184  -0.44323  -0.40686  -0.38573  -0.37228
 Alpha  occ. eigenvalues --   -0.35589  -0.34883  -0.32838  -0.32333  -0.31552
 Alpha  occ. eigenvalues --   -0.30352  -0.29590  -0.28492  -0.27449  -0.26322
 Alpha  occ. eigenvalues --   -0.25675  -0.25237  -0.24733  -0.24198  -0.23117
 Alpha  occ. eigenvalues --   -0.17314  -0.16566   0.04154
 Alpha virt. eigenvalues --    0.06569   0.07756   0.08155   0.08726   0.09118
 Alpha virt. eigenvalues --    0.10017   0.10365   0.11362   0.11778   0.11960
 Alpha virt. eigenvalues --    0.12107   0.12471   0.12779   0.13284   0.14498

  Beta  occ. eigenvalues --  -19.00539 -14.26144 -14.21846 -10.17835 -10.15950
  Beta  occ. eigenvalues --  -10.11642 -10.11449 -10.08355 -10.07959 -10.06830
  Beta  occ. eigenvalues --  -10.06551  -0.95463  -0.86253  -0.81193  -0.72361
  Beta  occ. eigenvalues --   -0.67087  -0.64992  -0.58453  -0.55197  -0.50711
  Beta  occ. eigenvalues --   -0.50117  -0.44258  -0.40613  -0.38540  -0.37197
  Beta  occ. eigenvalues --   -0.35545  -0.34839  -0.32796  -0.32294  -0.31503
  Beta  occ. eigenvalues --   -0.30298  -0.29545  -0.28421  -0.27428  -0.26274
  Beta  occ. eigenvalues --   -0.25634  -0.25211  -0.24701  -0.24178  -0.23081
  Beta  occ. eigenvalues --   -0.17286  -0.16547
  Beta virt. eigenvalues --    0.06787   0.07580   0.08415   0.08692   0.09207
  Beta virt. eigenvalues --    0.09562   0.10431   0.10720   0.11606   0.12137
  Beta virt. eigenvalues --    0.12206   0.12309   0.13014   0.13321   0.13541

 Mulliken charges and spin densities:
               1          2
     1  C    0.571783  -1.147602
     2  C   -0.538520   0.345728
     3  C    0.204977  -0.619133
     4  C   -0.918727   1.246469
     5  C    0.540081  -1.126362
     6  N   -0.332257   0.072717
     7  N    0.148085   0.118793
     8  C    1.163344  -1.334510
     9  C    0.415322  -0.816729
    10  C    0.381025  -0.306554
    11  O   -0.339477   0.000856
    12  H   -0.326919   0.477901
    13  H   -0.214262   0.348080
    14  H   -0.265568   0.424194
    15  H    0.208085  -0.037064
    16  H   -0.037392   0.180565
    17  H    0.238226  -0.049336
    18  H   -0.296271   0.487949
    19  H    0.785376  -0.558254
    20  H   -0.611214   0.779853
    21  H   -0.735964   0.916722
    22  H    0.125439   0.021299
    23  H   -0.531949   0.691321
    24  H   -0.327462   0.484348
    25  H   -0.305761   0.398748
 Sum of Mulliken charges =  -1.00000   1.00000

 Dipole moment (field-independent basis, Debye):
    X=              2.3563    Y=              3.9179    Z=              1.9918  Tot=              4.9869
 Quadrupole moment (field-independent basis, Debye-Ang):
   XX=           -120.1755   YY=           -116.6993   ZZ=           -112.6570
   XY=             -1.2525   XZ=             -5.1139   YZ=            -11.0469

 Summary of Natural Population Analysis:

                                       Natural Population
                Natural  -----------------------------------------------
    Atom  No    Charge         Core      Valence    Rydberg      Total
 -----------------------------------------------------------------------
      C    1   -0.28906      0.99967     2.28420    0.00519     3.28906
      C    2   -0.19446      0.99964     2.18659    0.00823     3.19446
      C    3   -0.18774      0.99961     2.17844    0.00970     3.18774
      C    4   -0.06255      0.99949     2.04707    0.01599     3.06255
      C    5    0.16276      0.99963     1.81970    0.01792     2.83724
      N    6   -0.17777      0.99979     2.66755    0.01043     3.67777
      N    7   -0.25308      0.99967     2.73901    0.01440     3.75308
      C    8   -0.08333      0.99961     2.07151    0.01221     3.08333
      C    9   -0.29170      0.99966     2.28641    0.00563     3.29170
      C   10    0.27833      0.99968     1.69985    0.02213     2.72167
      O   11   -0.31186      0.99988     3.30615    0.00583     4.31186
      H   12    0.09719      0.00000     0.40143    0.00138     0.40281
      H   13    0.09931      0.00000     0.39986    0.00083     0.40069
      H   14    0.10103      0.00000     0.39729    0.00169     0.39897
      H   15    0.09885      0.00000     0.40014    0.00101     0.40115
      H   16    0.09827      0.00000     0.40085    0.00089     0.40173
      H   17    0.11454      0.00000     0.38399    0.00147     0.38546
      H   18    0.10364      0.00000     0.39501    0.00136     0.39636
      H   19    0.12637      0.00000     0.37013    0.00350     0.37363
      H   20    0.10359      0.00000     0.39283    0.00358     0.39641
      H   21    0.10345      0.00000     0.39067    0.00588     0.39655
      H   22    0.09822      0.00000     0.40057    0.00122     0.40178
      H   23    0.10706      0.00000     0.39119    0.00175     0.39294
      H   24    0.10006      0.00000     0.39851    0.00143     0.39994
      H   25    0.05890      0.00000     0.43932    0.00179     0.44110
 =======================================================================
   * Total *   -0.00000     10.99631    30.84824    0.15545    42.00000

 Normal termination of Gaussian 16 at Tue Dec  8 19:46:55 2020.
