 Gaussian 16, Revision A.03,

 -----------------------------------------------------------
 # opt freq B3LYP/6-31G(d) empiricaldispersion=gd3bj scf=xqc
 -----------------------------------------------------------

 -----------------------------
 CID_10920589_JID_556_neutraal
 -----------------------------
 Symbolic Z-matrix:
 Charge =  0 Multiplicity = 1

 SCF Done:  E(RB3LYP) =  -442.638760812     A.U. after   15 cycles
 SCF Done:  E(RB3LYP) =  -442.663152666     A.U. after   13 cycles
 SCF Done:  E(RB3LYP) =  -442.664312994     A.U. after   14 cycles
 SCF Done:  E(RB3LYP) =  -442.662701662     A.U. after   14 cycles
 SCF Done:  E(RB3LYP) =  -442.664934331     A.U. after   12 cycles
 SCF Done:  E(RB3LYP) =  -442.665162685     A.U. after   12 cycles
 SCF Done:  E(RB3LYP) =  -442.665193891     A.U. after   12 cycles
 SCF Done:  E(RB3LYP) =  -442.665206242     A.U. after   11 cycles
 SCF Done:  E(RB3LYP) =  -442.665210860     A.U. after   10 cycles
 SCF Done:  E(RB3LYP) =  -442.665215948     A.U. after   10 cycles
 SCF Done:  E(RB3LYP) =  -442.669492565     A.U. after    9 cycles
 SCF Done:  E(RB3LYP) =  -442.669492771     A.U. after    8 cycles
 SCF Done:  E(RB3LYP) =  -442.669492851     A.U. after    8 cycles
 SCF Done:  E(RB3LYP) =  -442.669492887     A.U. after    8 cycles
 Optimization completed.
    -- Stationary point found.
 Normal termination of Gaussian 16 at Tue Dec  8 12:28:19 2020.

 --------------------------------------------------------------------
 #N Geom=AllCheck Guess=TCheck SCRF=Check GenChk RB3LYP/6-31G(d) Freq
 --------------------------------------------------------------------

 Structure from the checkpoint file:  "JID_556.chk"
 -----------------------------
 CID_10920589_JID_556_neutraal
 -----------------------------
 Charge =  0 Multiplicity = 1

 SCF Done:  E(RB3LYP) =  -442.669492887     A.U. after    1 cycles

  Exact polarizability:  93.595  -0.346  84.681   2.266  -1.346  79.995
 Approx polarizability: 110.484  -4.921 126.382   1.911  -6.545 133.045

                      1                      2                      3
                      A                      A                      A
 Frequencies --     27.5284                58.8240                75.0551
 Red. masses --      4.8926                 6.3063                 3.4501
 Frc consts  --      0.0022                 0.0129                 0.0115
 IR Inten    --      2.5256                 5.7973                 1.7197

                      4                      5                      6
                      A                      A                      A
 Frequencies --    110.1879               130.4128               148.7623
 Red. masses --      3.5105                 2.8610                 3.2567
 Frc consts  --      0.0251                 0.0287                 0.0425
 IR Inten    --      2.5507                 5.8116                 6.9066

                      7                      8                      9
                      A                      A                      A
 Frequencies --    186.8862               246.1812               268.6529
 Red. masses --      2.4912                 2.0543                 2.9501
 Frc consts  --      0.0513                 0.0734                 0.1255
 IR Inten    --      3.9537                 2.2887                 0.3707

                     10                     11                     12
                      A                      A                      A
 Frequencies --    311.5101               371.5498               394.4267
 Red. masses --      2.1353                 3.2810                 3.0364
 Frc consts  --      0.1221                 0.2669                 0.2783
 IR Inten    --      0.5061                 8.4179                 0.1250

                     13                     14                     15
                      A                      A                      A
 Frequencies --    469.1307               575.1887               657.3650
 Red. masses --      2.1227                 3.6131                 1.6380
 Frc consts  --      0.2752                 0.7043                 0.4171
 IR Inten    --      0.9143                 0.2805                 1.6382

                     16                     17                     18
                      A                      A                      A
 Frequencies --    711.2540               759.6861               782.9092
 Red. masses --      1.7797                 1.6338                 1.6306
 Frc consts  --      0.5304                 0.5555                 0.5889
 IR Inten    --      2.2807                 5.6600                 1.7839

                     19                     20                     21
                      A                      A                      A
 Frequencies --    839.2328               860.0480               885.0173
 Red. masses --      2.2770                 2.6398                 2.4886
 Frc consts  --      0.9449                 1.1505                 1.1485
 IR Inten    --      9.7303                 4.3450                13.3808

                     22                     23                     24
                      A                      A                      A
 Frequencies --    942.5532               979.6053              1008.8110
 Red. masses --      2.0558                 1.8586                 1.9968
 Frc consts  --      1.0761                 1.0508                 1.1973
 IR Inten    --      4.3578                 1.1732                 0.2689

                     25                     26                     27
                      A                      A                      A
 Frequencies --   1027.4790              1055.7889              1097.5728
 Red. masses --      1.6973                 1.8698                 2.1388
 Frc consts  --      1.0557                 1.2280                 1.5181
 IR Inten    --      2.2229                 4.8829                 1.5137

                     28                     29                     30
                      A                      A                      A
 Frequencies --   1113.3331              1136.0508              1192.7487
 Red. masses --      2.3536                 2.2604                 1.2677
 Frc consts  --      1.7188                 1.7188                 1.0626
 IR Inten    --      1.1302                 1.8018                 1.0593

                     31                     32                     33
                      A                      A                      A
 Frequencies --   1224.8747              1253.7939              1268.1892
 Red. masses --      1.1776                 1.2781                 1.2652
 Frc consts  --      1.0409                 1.1837                 1.1989
 IR Inten    --      1.8198                 2.1196                 1.3948

                     34                     35                     36
                      A                      A                      A
 Frequencies --   1321.6835              1343.3479              1359.7028
 Red. masses --      1.2092                 1.2098                 1.2109
 Frc consts  --      1.2445                 1.2862                 1.3190
 IR Inten    --      2.1838                 3.4158                 0.2127

                     37                     38                     39
                      A                      A                      A
 Frequencies --   1372.3901              1398.5107              1405.3460
 Red. masses --      1.3501                 1.5667                 1.3462
 Frc consts  --      1.4983                 1.8053                 1.5665
 IR Inten    --      1.7218                 5.5688                10.1972

                     40                     41                     42
                      A                      A                      A
 Frequencies --   1413.4389              1425.5128              1440.2380
 Red. masses --      1.4263                 1.4029                 1.2319
 Frc consts  --      1.6789                 1.6796                 1.5056
 IR Inten    --      1.4121                 5.3623                 7.5812

                     43                     44                     45
                      A                      A                      A
 Frequencies --   1474.9093              1498.6113              1514.9185
 Red. masses --      1.1002                 1.0878                 1.0810
 Frc consts  --      1.4101                 1.4394                 1.4617
 IR Inten    --     17.9758                 6.2278                 1.3602

                     46                     47                     48
                      A                      A                      A
 Frequencies --   1519.7498              1524.9217              1533.8181
 Red. masses --      1.0892                 1.0852                 1.0874
 Frc consts  --      1.4822                 1.4868                 1.5072
 IR Inten    --      6.8023                 5.0171                 5.1876

                     49                     50                     51
                      A                      A                      A
 Frequencies --   1832.2309              2368.8884              2896.6028
 Red. masses --      9.4793                12.5923                 1.0836
 Frc consts  --     18.7494                41.6335                 5.3565
 IR Inten    --    121.6865                 6.5838               166.6267

                     52                     53                     54
                      A                      A                      A
 Frequencies --   3010.8414              3016.4403              3040.0948
 Red. masses --      1.0714                 1.0631                 1.0968
 Frc consts  --      5.7224                 5.6992                 5.9724
 IR Inten    --     17.1117                37.1386                10.9203

                     55                     56                     57
                      A                      A                      A
 Frequencies --   3047.8143              3049.5335              3063.5585
 Red. masses --      1.0609                 1.0643                 1.0601
 Frc consts  --      5.8061                 5.8314                 5.8620
 IR Inten    --     17.5032                20.8085                 7.7950

                     58                     59                     60
                      A                      A                      A
 Frequencies --   3071.3228              3082.9782              3092.7042
 Red. masses --      1.0630                 1.1000                 1.1035
 Frc consts  --      5.9079                 6.1603                 6.2189
 IR Inten    --     18.3127                26.8465                27.2706

                     61                     62                     63
                      A                      A                      A
 Frequencies --   3099.5042              3104.9357              3118.7981
 Red. masses --      1.0960                 1.1017                 1.0970
 Frc consts  --      6.2038                 6.2578                 6.2868
 IR Inten    --      7.2182                28.6577                34.9145

 - Thermochemistry -
 -------------------
 Temperature   298.150 Kelvin.  Pressure   1.00000 Atm.
 Atom     1 has atomic number  6 and mass  12.00000

 Molecular mass:   139.09971 amu.
 Principal axes and moments of inertia in atomic units:
                           1         2         3
     Eigenvalues --   779.221453005.573133356.03474
           X            0.99958   0.02899   0.00262
           Y           -0.02907   0.99887   0.03764
           Z           -0.00152  -0.03770   0.99929
 This molecule is an asymmetric top.
 Rotational symmetry number  1.
 Warning -- assumption of classical behavior for rotation
           may cause significant error
 Rotational temperatures (Kelvin)      0.11115     0.02882     0.02581
 Rotational constants (GHZ):           2.31608     0.60046     0.53776
 Zero-point vibrational energy     524047.8 (Joules/Mol)
                                  125.25044 (Kcal/Mol)
 Warning -- explicit consideration of  14 degrees of freedom as
           vibrations may cause significant error
 Vibrational temperatures:     39.61    84.63   107.99   158.54   187.63
          (Kelvin)            214.04   268.89   354.20   386.53   448.19
                              534.58   567.49   674.97   827.57   945.80
                             1023.34  1093.02  1126.43  1207.47  1237.42
                             1273.34  1356.12  1409.43  1451.45  1478.31
                             1519.04  1579.16  1601.84  1634.52  1716.10
                             1762.32  1803.93  1824.64  1901.61  1932.78
                             1956.31  1974.56  2012.14  2021.98  2033.62
                             2050.99  2072.18  2122.07  2156.17  2179.63
                             2186.58  2194.02  2206.82  2636.17  3408.30
                             4167.57  4331.93  4339.98  4374.02  4385.13
                             4387.60  4407.78  4418.95  4435.72  4449.71
                             4459.50  4467.31  4487.25

 Zero-point correction=                           0.199599 (Hartree/Particle)
 Thermal correction to Energy=                    0.210984
 Thermal correction to Enthalpy=                  0.211929
 Thermal correction to Gibbs Free Energy=         0.160873
 Sum of electronic and zero-point Energies=           -442.469894
 Sum of electronic and thermal Energies=              -442.458508
 Sum of electronic and thermal Enthalpies=            -442.457564
 Sum of electronic and thermal Free Energies=         -442.508620

                     E (Thermal)             CV                S
                      KCal/Mol        Cal/Mol-Kelvin    Cal/Mol-Kelvin
 Total                  132.395             39.746            107.456
 Electronic               0.000              0.000              0.000
 Translational            0.889              2.981             40.702
 Rotational               0.889              2.981             30.442
 Vibrational            130.617             33.785             36.312
 Vibration     1          0.593              1.984              6.000
 Vibration     2          0.596              1.974              4.496
 Vibration     3          0.599              1.966              4.016
 Vibration     4          0.606              1.941              3.266
 Vibration     5          0.612              1.923              2.940
 Vibration     6          0.618              1.904              2.688
 Vibration     7          0.632              1.858              2.258
 Vibration     8          0.661              1.769              1.758
 Vibration     9          0.673              1.731              1.605
 Vibration    10          0.700              1.652              1.354
 Vibration    11          0.743              1.531              1.073
 Vibration    12          0.761              1.482              0.983
 Vibration    13          0.826              1.319              0.740
 Vibration    14          0.932              1.085              0.494

 Optimization completed.
    -- Stationary point found.
 Normal termination of Gaussian 16 at Tue Dec  8 12:39:40 2020.

 ----------------------------------------------------------------------
 # B3LYP/6-311++G(d,p) empiricaldispersion=gd3bj scf=xqc pop=npa geom=c
 heck
 ----------------------------------------------------------------------

 -------------------------------------
 CID_10920589_JID_556_Energie_neutraal
 -------------------------------------
 Structure from the checkpoint file:  "JID_556.chk"
 Charge =  0 Multiplicity = 1

 SCF Done:  E(RB3LYP) =  -442.798734600     A.U. after   13 cycles
 Normal termination of Gaussian 16 at Tue Dec  8 12:43:43 2020.

 ----------------------------------------------------------------------
 # B3LYP/6-311++G(d,p) empiricaldispersion=gd3bj scf=xqc pop=npa geom=c
 heck
 ----------------------------------------------------------------------

 -----------------------------------
 CID_10920589_JID_556_Energie_kation
 -----------------------------------
 Structure from the checkpoint file:  "JID_556.chk"
 Charge =  1 Multiplicity = 2

 SCF Done:  E(UB3LYP) =  -442.442148064     A.U. after   33 cycles
 SCF Done:  E(UB3LYP) =  -442.442148064     a.u. after    2 cycles
 Normal termination of Gaussian 16 at Tue Dec  8 13:09:02 2020.
 Gaussian 16:  ES64L-G16RevA.03 25-Dec-2016

 ----------------------------------------------------------------------
 # B3LYP/6-311++G(d,p) empiricaldispersion=gd3bj scf=xqc pop=npa geom=c
 heck
 ----------------------------------------------------------------------

 ----------------------------------
 CID_10920589_JID_556_Energie_anion
 ----------------------------------
 Structure from the checkpoint file:  "JID_556.chk"
 Charge = -1 Multiplicity = 2

                         Standard orientation:
 ---------------------------------------------------------------------
 Center     Atomic      Atomic             Coordinates (Angstroms)
 Number     Number       Type             X           Y           Z
 ---------------------------------------------------------------------
      1          6           0        0.467065   -0.967426    0.109038
      2          6           0       -0.823119   -1.383428   -0.628163
      3          6           0       -2.091380   -1.392451    0.236097
      4          6           0       -2.461427   -0.037778    0.876436
      5          6           0       -2.664436    1.019100   -0.117652
      6          7           0       -2.807128    1.841170   -0.924715
      7          6           0        0.832156    0.515522   -0.056624
      8          6           0        2.076548    0.923116    0.733662
      9          6           0        3.374976    0.352688    0.210275
     10          8           0        3.485006   -0.327865   -0.786326
     11          1           0        1.306012   -1.560424   -0.266267
     12          1           0        0.374937   -1.209008    1.179444
     13          1           0       -0.978642   -0.729162   -1.495806
     14          1           0       -0.702024   -2.395667   -1.031293
     15          1           0       -2.940203   -1.736076   -0.366411
     16          1           0       -1.971539   -2.112294    1.055629
     17          1           0       -3.379114   -0.139644    1.467572
     18          1           0       -1.675561    0.287347    1.567940
     19          1           0        1.005034    0.718436   -1.119860
     20          1           0       -0.001136    1.159175    0.244150
     21          1           0        2.200897    2.017507    0.742401
     22          1           0        1.994650    0.640985    1.795355
     23          1           0        4.274245    0.617493    0.812346
 ---------------------------------------------------------------------

 SCF Done:  E(UB3LYP) =  -442.790369051     A.U. after   33 cycles
 SCF Done:  E(UB3LYP) =  -442.790369051     a.u. after    1 cycles

 The electronic state is 2-A.
 Alpha  occ. eigenvalues --  -19.00384 -14.20587 -10.13783 -10.10644 -10.10284
 Alpha  occ. eigenvalues --  -10.07558 -10.07250 -10.06487 -10.06221 -10.05659
 Alpha  occ. eigenvalues --   -0.93540  -0.80414  -0.71761  -0.68764  -0.64041
 Alpha  occ. eigenvalues --   -0.58460  -0.52319  -0.47926  -0.44437  -0.40211
 Alpha  occ. eigenvalues --   -0.39035  -0.36839  -0.35294  -0.34927  -0.32984
 Alpha  occ. eigenvalues --   -0.30881  -0.29868  -0.28991  -0.27528  -0.26648
 Alpha  occ. eigenvalues --   -0.26191  -0.24448  -0.23121  -0.22808  -0.22180
 Alpha  occ. eigenvalues --   -0.21690  -0.21188  -0.14616   0.04594
 Alpha virt. eigenvalues --    0.06562   0.07310   0.08487   0.08905   0.09593
 Alpha virt. eigenvalues --    0.10631   0.10856   0.11872   0.12470   0.12992
 Alpha virt. eigenvalues --    0.13274   0.13562   0.13859   0.14468   0.15084

  Beta  occ. eigenvalues --  -19.00217 -14.20571 -10.13592 -10.10640 -10.10227
  Beta  occ. eigenvalues --  -10.07523 -10.07251 -10.06483 -10.06216 -10.05637
  Beta  occ. eigenvalues --   -0.93209  -0.80380  -0.71710  -0.68686  -0.63942
  Beta  occ. eigenvalues --   -0.58321  -0.52166  -0.47831  -0.44162  -0.40126
  Beta  occ. eigenvalues --   -0.38937  -0.36721  -0.35221  -0.34716  -0.32800
  Beta  occ. eigenvalues --   -0.30803  -0.29661  -0.28910  -0.27407  -0.26511
  Beta  occ. eigenvalues --   -0.25788  -0.24285  -0.23057  -0.22760  -0.22105
  Beta  occ. eigenvalues --   -0.21646  -0.21115  -0.14473
  Beta virt. eigenvalues --    0.07357   0.07858   0.08563   0.09130   0.09547
  Beta virt. eigenvalues --    0.10000   0.11016   0.11224   0.12079   0.12801
  Beta virt. eigenvalues --    0.13264   0.13512   0.13706   0.14078   0.14932

 Mulliken charges and spin densities:
               1          2
     1  C    0.501036  -0.977639
     2  C   -0.733641   0.767775
     3  C    0.874438  -1.467878
     4  C   -0.230625   0.361673
     5  C    1.181191  -1.308261
     6  N   -0.409138   0.064140
     7  C   -0.276609   0.146331
     8  C    0.318050  -0.491221
     9  C   -0.041708  -0.045145
    10  O   -0.298740   0.054251
    11  H    0.156476  -0.009926
    12  H    0.003979   0.149600
    13  H    0.038077   0.090137
    14  H    0.032917   0.125372
    15  H   -0.142347   0.282784
    16  H   -0.784042   0.979663
    17  H   -0.880388   1.115950
    18  H   -0.363652   0.538180
    19  H    0.194232  -0.040148
    20  H    0.160368  -0.029777
    21  H    0.050503   0.107496
    22  H   -0.285920   0.456482
    23  H   -0.064456   0.130162
 Sum of Mulliken charges =  -1.00000   1.00000

 Dipole moment (field-independent basis, Debye):
    X=              4.0509    Y=              0.8782    Z=             -3.0247  Tot=              5.1312
 Quadrupole moment (field-independent basis, Debye-Ang):
   XX=           -129.8542   YY=            -93.3579   ZZ=            -97.8066
   XY=              1.8861   XZ=             11.4263   YZ=              7.1704

 Summary of Natural Population Analysis:

                                       Natural Population
                Natural  -----------------------------------------------
    Atom  No    Charge         Core      Valence    Rydberg      Total
 -----------------------------------------------------------------------
      C    1   -0.19811      0.99962     2.18930    0.00919     3.19811
      C    2   -0.19145      0.99962     2.18317    0.00865     3.19145
      C    3   -0.17901      0.99962     2.16945    0.00994     3.17901
      C    4   -0.25389      0.99954     2.24232    0.01203     3.25389
      C    5    0.16759      0.99966     1.81620    0.01655     2.83241
      N    6   -0.19512      0.99979     2.68431    0.01102     3.69512
      C    7   -0.19083      0.99962     2.18224    0.00896     3.19083
      C    8   -0.24255      0.99961     2.23438    0.00856     3.24255
      C    9    0.25009      0.99975     1.73063    0.01953     2.74991
      O   10   -0.27034      0.99988     3.26394    0.00652     4.27034
      H   11    0.10635      0.00000     0.39251    0.00114     0.39365
      H   12    0.09474      0.00000     0.40372    0.00154     0.40526
      H   13    0.09727      0.00000     0.40162    0.00111     0.40273
      H   14    0.09901      0.00000     0.40012    0.00086     0.40099
      H   15    0.09800      0.00000     0.40064    0.00137     0.40200
      H   16    0.10463      0.00000     0.39147    0.00390     0.39537
      H   17    0.12722      0.00000     0.36746    0.00532     0.37278
      H   18    0.12293      0.00000     0.37379    0.00328     0.37707
      H   19    0.10015      0.00000     0.39864    0.00122     0.39985
      H   20    0.09790      0.00000     0.40027    0.00183     0.40210
      H   21    0.10807      0.00000     0.39091    0.00102     0.39193
      H   22    0.11071      0.00000     0.38661    0.00268     0.38929
      H   23    0.03665      0.00000     0.46044    0.00291     0.46335
 =======================================================================
   * Total *    0.00000      9.99671    27.86414    0.13914    38.00000

 Normal termination of Gaussian 16 at Tue Dec  8 13:17:38 2020.
