 Gaussian 16, Revision A.03,

 -----------------------------------------------------------
 # opt freq B3LYP/6-31G(d) empiricaldispersion=gd3bj scf=xqc
 -----------------------------------------------------------

 ------------------------------
 CID_89299955_JID_2031_neutraal
 ------------------------------
 Symbolic Z-matrix:
 Charge =  0 Multiplicity = 1

 SCF Done:  E(RB3LYP) =  -878.944784536     A.U. after   16 cycles
 SCF Done:  E(RB3LYP) =  -878.950879910     A.U. after   13 cycles
 SCF Done:  E(RB3LYP) =  -878.950273687     A.U. after   13 cycles
 SCF Done:  E(RB3LYP) =  -878.950842463     A.U. after   13 cycles
 SCF Done:  E(RB3LYP) =  -878.951539689     A.U. after    9 cycles
 SCF Done:  E(RB3LYP) =  -878.952455226     A.U. after   12 cycles
 SCF Done:  E(RB3LYP) =  -878.952830828     A.U. after   12 cycles
 SCF Done:  E(RB3LYP) =  -878.952931105     A.U. after   11 cycles
 SCF Done:  E(RB3LYP) =  -878.952954575     A.U. after   11 cycles
 SCF Done:  E(RB3LYP) =  -878.952985408     A.U. after   10 cycles
 SCF Done:  E(RB3LYP) =  -878.953034818     A.U. after   11 cycles
 SCF Done:  E(RB3LYP) =  -878.953039944     A.U. after    9 cycles
 SCF Done:  E(RB3LYP) =  -878.953041087     A.U. after    9 cycles
 SCF Done:  E(RB3LYP) =  -878.953041474     A.U. after    8 cycles
 Optimization completed.
    -- Stationary point found.
 Normal termination of Gaussian 16 at Wed Dec  9 16:47:18 2020.

 --------------------------------------------------------------------
 #N Geom=AllCheck Guess=TCheck SCRF=Check GenChk RB3LYP/6-31G(d) Freq
 --------------------------------------------------------------------

 Structure from the checkpoint file:  "JID_2031.chk"
 ------------------------------
 CID_89299955_JID_2031_neutraal
 ------------------------------
 Charge =  0 Multiplicity = 1

 SCF Done:  E(RB3LYP) =  -878.953041474     A.U. after    1 cycles

  Exact polarizability: 151.578  -6.718 128.477 -10.138   5.576  84.162
 Approx polarizability: 211.321 -24.517 221.053 -19.365  18.574 128.941

                      1                      2                      3
                      A                      A                      A
 Frequencies --     36.1158                51.0418                62.2004
 Red. masses --      2.9211                 4.1805                 6.5777
 Frc consts  --      0.0022                 0.0064                 0.0150
 IR Inten    --      0.0496                 0.2420                 2.3322

                      4                      5                      6
                      A                      A                      A
 Frequencies --     90.7417               123.4264               142.1878
 Red. masses --      2.8712                 3.9845                 3.8632
 Frc consts  --      0.0139                 0.0358                 0.0460
 IR Inten    --      1.9256                 1.4184                 2.8107

                      7                      8                      9
                      A                      A                      A
 Frequencies --    176.4181               233.4008               268.2514
 Red. masses --      2.8597                 1.4769                 3.5875
 Frc consts  --      0.0524                 0.0474                 0.1521
 IR Inten    --      2.2209                 0.2578                 4.4726

                     10                     11                     12
                      A                      A                      A
 Frequencies --    300.2795               333.2517               381.9203
 Red. masses --      2.9994                 1.9929                 3.3353
 Frc consts  --      0.1593                 0.1304                 0.2866
 IR Inten    --      5.8308                 4.4772                 4.1061

                     13                     14                     15
                      A                      A                      A
 Frequencies --    405.2209               449.6023               493.8172
 Red. masses --      3.9733                 2.8347                 3.8733
 Frc consts  --      0.3844                 0.3376                 0.5565
 IR Inten    --      0.6032                 9.8771                 8.6490

                     16                     17                     18
                      A                      A                      A
 Frequencies --    566.2239               599.7862               639.7702
 Red. masses --      2.5176                 2.3389                 3.4881
 Frc consts  --      0.4756                 0.4957                 0.8412
 IR Inten    --     52.5041                29.8282                 8.1613

                     19                     20                     21
                      A                      A                      A
 Frequencies --    684.5827               699.7791               725.1356
 Red. masses --      3.1412                 1.8209                 3.5382
 Frc consts  --      0.8674                 0.5254                 1.0961
 IR Inten    --      4.5706                29.6383                10.1660

                     22                     23                     24
                      A                      A                      A
 Frequencies --    752.8294               788.2252               799.5065
 Red. masses --      3.5184                 2.9907                 1.2033
 Frc consts  --      1.1749                 1.0948                 0.4532
 IR Inten    --      7.8965                28.0729                 1.4579

                     25                     26                     27
                      A                      A                      A
 Frequencies --    824.3891               874.7022               918.7044
 Red. masses --      1.6374                 2.6160                 1.3376
 Frc consts  --      0.6556                 1.1793                 0.6651
 IR Inten    --     26.4687                 9.8893                 3.6829

                     28                     29                     30
                      A                      A                      A
 Frequencies --    919.8202               942.4429               981.8885
 Red. masses --      1.9252                 2.5083                 2.1987
 Frc consts  --      0.9597                 1.3126                 1.2489
 IR Inten    --      7.8859                 1.4694                 4.8430

                     31                     32                     33
                      A                      A                      A
 Frequencies --    997.1631              1020.4428              1084.1018
 Red. masses --      1.3139                 2.1531                 2.3829
 Frc consts  --      0.7697                 1.3209                 1.6501
 IR Inten    --      1.5547                24.9876                 7.5403

                     34                     35                     36
                      A                      A                      A
 Frequencies --   1108.1669              1136.7608              1150.3622
 Red. masses --      1.9115                 1.1329                 1.7948
 Frc consts  --      1.3830                 0.8625                 1.3994
 IR Inten    --      9.7991                 7.5371               126.2535

                     37                     38                     39
                      A                      A                      A
 Frequencies --   1176.9048              1189.2796              1240.4475
 Red. masses --      1.3904                 2.2341                 1.3353
 Frc consts  --      1.1347                 1.8618                 1.2106
 IR Inten    --      1.8047                54.5609                17.1503

                     40                     41                     42
                      A                      A                      A
 Frequencies --   1272.2742              1311.6564              1327.9922
 Red. masses --      1.3512                 1.2456                 1.4993
 Frc consts  --      1.2886                 1.2626                 1.5579
 IR Inten    --     19.9622                32.0880                84.4989

                     43                     44                     45
                      A                      A                      A
 Frequencies --   1345.9940              1371.3733              1378.4209
 Red. masses --      1.2576                 1.8658                 1.4204
 Frc consts  --      1.3424                 2.0674                 1.5901
 IR Inten    --      6.6571                25.1328               120.1360

                     46                     47                     48
                      A                      A                      A
 Frequencies --   1410.9017              1439.8954              1453.3470
 Red. masses --      1.2916                 1.2513                 1.4048
 Frc consts  --      1.5148                 1.5285                 1.7483
 IR Inten    --      5.8308                 6.3639                31.5276

                     49                     50                     51
                      A                      A                      A
 Frequencies --   1508.7782              1511.1935              1517.1246
 Red. masses --      1.3942                 1.1007                 1.1285
 Frc consts  --      1.8699                 1.4810                 1.5303
 IR Inten    --     14.6694                 3.2929                 6.0031

                     52                     53                     54
                      A                      A                      A
 Frequencies --   1525.0198              1534.4974              1659.8857
 Red. masses --      1.2136                 1.0814                 7.0029
 Frc consts  --      1.6630                 1.5003                11.3681
 IR Inten    --      1.3557                 2.7068                10.2539

                     55                     56                     57
                      A                      A                      A
 Frequencies --   1701.2960              1733.5929              2943.5626
 Red. masses --      4.0998                10.2038                 1.0797
 Frc consts  --      6.9916                18.0679                 5.5118
 IR Inten    --    539.8136               171.5548                67.4894

                     58                     59                     60
                      A                      A                      A
 Frequencies --   3051.8144              3065.7045              3088.4522
 Red. masses --      1.0352                 1.0602                 1.0629
 Frc consts  --      5.6807                 5.8710                 5.9733
 IR Inten    --     17.4071                36.4858                11.8960

                     61                     62                     63
                      A                      A                      A
 Frequencies --   3101.8095              3124.4326              3131.8210
 Red. masses --      1.1051                 1.1027                 1.1046
 Frc consts  --      6.2643                 6.3422                 6.3835
 IR Inten    --      3.1482                38.9865                35.4270

                     64                     65                     66
                      A                      A                      A
 Frequencies --   3161.2250              3167.0546              3209.3232
 Red. masses --      1.1034                 1.0871                 1.0901
 Frc consts  --      6.4969                 6.4247                 6.6153
 IR Inten    --      5.4084                11.3011                 8.3789

                     67                     68                     69
                      A                      A                      A
 Frequencies --   3232.0615              3252.7586              3611.2171
 Red. masses --      1.0856                 1.1025                 1.0751
 Frc consts  --      6.6816                 6.8727                 8.2602
 IR Inten    --      1.3242                 5.2502                18.0830

 - Thermochemistry -
 -------------------
 Temperature   298.150 Kelvin.  Pressure   1.00000 Atm.
 Atom     1 has atomic number  6 and mass  12.00000

 Molecular mass:   183.07179 amu.
 Principal axes and moments of inertia in atomic units:
                           1         2         3
     Eigenvalues --  1607.792543789.874264786.44124
           X            0.99964  -0.02675   0.00247
           Y            0.02678   0.99952  -0.01566
           Z           -0.00205   0.01572   0.99987
 This molecule is an asymmetric top.
 Rotational symmetry number  1.
 Warning -- assumption of classical behavior for rotation
           may cause significant error
 Rotational temperatures (Kelvin)      0.05387     0.02285     0.01810
 Rotational constants (GHZ):           1.12250     0.47620     0.37705
 Zero-point vibrational energy     547373.9 (Joules/Mol)
                                  130.82550 (Kcal/Mol)
 Warning -- explicit consideration of  17 degrees of freedom as
           vibrations may cause significant error
 Vibrational temperatures:     51.96    73.44    89.49   130.56   177.58
          (Kelvin)            204.58   253.83   335.81   385.95   432.04
                              479.47   549.50   583.02   646.88   710.49
                              814.67   862.96   920.49   984.96  1006.83
                             1043.31  1083.15  1134.08  1150.31  1186.11
                             1258.50  1321.81  1323.42  1355.97  1412.72
                             1434.70  1468.19  1559.78  1594.41  1635.55
                             1655.11  1693.30  1711.11  1784.73  1830.52
                             1887.18  1910.68  1936.59  1973.10  1983.24
                             2029.97  2071.69  2091.04  2170.80  2174.27
                             2182.80  2194.16  2207.80  2388.21  2447.79
                             2494.25  4235.13  4390.88  4410.87  4443.59
                             4462.81  4495.36  4505.99  4548.30  4556.69
                             4617.50  4650.22  4679.99  5195.74

 Zero-point correction=                           0.208484 (Hartree/Particle)
 Thermal correction to Energy=                    0.221124
 Thermal correction to Enthalpy=                  0.222068
 Thermal correction to Gibbs Free Energy=         0.167983
 Sum of electronic and zero-point Energies=           -878.744558
 Sum of electronic and thermal Energies=              -878.731918
 Sum of electronic and thermal Enthalpies=            -878.730974
 Sum of electronic and thermal Free Energies=         -878.785059

                     E (Thermal)             CV                S
                      KCal/Mol        Cal/Mol-Kelvin    Cal/Mol-Kelvin
 Total                  138.757             46.451            113.831
 Electronic               0.000              0.000              0.000
 Translational            0.889              2.981             41.521
 Rotational               0.889              2.981             31.745
 Vibrational            136.980             40.490             40.566
 Vibration     1          0.594              1.982              5.462
 Vibration     2          0.595              1.977              4.777
 Vibration     3          0.597              1.972              4.386
 Vibration     4          0.602              1.956              3.644
 Vibration     5          0.610              1.929              3.046
 Vibration     6          0.616              1.911              2.774
 Vibration     7          0.628              1.871              2.366
 Vibration     8          0.654              1.790              1.853
 Vibration     9          0.673              1.731              1.607
 Vibration    10          0.693              1.673              1.415
 Vibration    11          0.715              1.609              1.244
 Vibration    12          0.751              1.509              1.032
 Vibration    13          0.770              1.459              0.944
 Vibration    14          0.808              1.362              0.797
 Vibration    15          0.849              1.264              0.674
 Vibration    16          0.922              1.104              0.512
 Vibration    17          0.958              1.032              0.450

                           ! Non-Optimized Parameters !
 Normal termination of Gaussian 16 at Wed Dec  9 16:52:38 2020.

 ----------------------------------------------------------------------
 # B3LYP/6-311++G(d,p) empiricaldispersion=gd3bj scf=xqc pop=npa geom=c
 heck
 ----------------------------------------------------------------------

 --------------------------------------
 CID_89299955_JID_2031_Energie_neutraal
 --------------------------------------
 Structure from the checkpoint file:  "JID_2031.chk"
 Charge =  0 Multiplicity = 1

 SCF Done:  E(RB3LYP) =  -879.119695156     A.U. after   16 cycles
 Normal termination of Gaussian 16 at Wed Dec  9 16:55:03 2020.

 ----------------------------------------------------------------------
 # B3LYP/6-311++G(d,p) empiricaldispersion=gd3bj scf=xqc pop=npa geom=c
 heck
 ----------------------------------------------------------------------

 ------------------------------------
 CID_89299955_JID_2031_Energie_kation
 ------------------------------------
 Structure from the checkpoint file:  "JID_2031.chk"
 Charge =  1 Multiplicity = 2

 SCF Done:  E(UB3LYP) =  -878.835735204     A.U. after   27 cycles
 Normal termination of Gaussian 16 at Wed Dec  9 17:00:30 2020.
 Gaussian 16:  ES64L-G16RevA.03 25-Dec-2016

 ----------------------------------------------------------------------
 # B3LYP/6-311++G(d,p) empiricaldispersion=gd3bj scf=xqc pop=npa geom=c
 heck
 ----------------------------------------------------------------------

 -----------------------------------
 CID_89299955_JID_2031_Energie_anion
 -----------------------------------
 Structure from the checkpoint file:  "JID_2031.chk"
 Charge = -1 Multiplicity = 2

                         Standard orientation:
 ---------------------------------------------------------------------
 Center     Atomic      Atomic             Coordinates (Angstroms)
 Number     Number       Type             X           Y           Z
 ---------------------------------------------------------------------
      1          6           0        3.985449   -1.059256    1.125993
      2          6           0        3.329942   -1.171526   -0.252650
      3          7           0        2.074152   -0.436148   -0.364365
      4          6           0        2.056196    0.905516   -0.606604
      5          6           0        1.065838    1.834873   -0.482390
      6          6           0       -0.308702    1.729169   -0.004325
      7          8           0       -1.017612    2.728981    0.084222
      8          6           0       -0.902827    0.360599    0.351906
      9          6           0       -1.187868   -0.466674   -0.920879
     10         16           0       -2.476971   -1.704656   -0.444826
     11          6           0       -3.052221   -0.580468    0.810855
     12          6           0       -2.220448    0.426137    1.087505
     13          1           0        4.211530   -0.014170    1.363369
     14          1           0        4.919342   -1.631525    1.158247
     15          1           0        3.322197   -1.447893    1.907039
     16          1           0        4.003606   -0.792313   -1.028920
     17          1           0        3.126309   -2.219995   -0.495719
     18          1           0        1.296557   -0.831849    0.145789
     19          1           0        3.009654    1.259350   -0.996364
     20          1           0        1.328800    2.844448   -0.780985
     21          1           0       -0.191062   -0.184225    0.999569
     22          1           0       -1.614697    0.184255   -1.689752
     23          1           0       -0.314175   -0.975767   -1.329971
     24          1           0       -4.013225   -0.771207    1.274449
     25          1           0       -2.423614    1.206358    1.810770
 ---------------------------------------------------------------------

 SCF Done:  E(UB3LYP) =  -879.116913151     A.U. after   33 cycles
 SCF Done:  E(UB3LYP) =  -879.116913151     a.u. after    1 cycles

 The electronic state is 2-A.
 Alpha  occ. eigenvalues --  -88.74507 -18.94379 -14.21837 -10.10118 -10.09844
 Alpha  occ. eigenvalues --  -10.09693 -10.09478 -10.08058 -10.07917 -10.07008
 Alpha  occ. eigenvalues --  -10.05896 -10.02504  -7.83122  -5.79485  -5.79151
 Alpha  occ. eigenvalues --   -5.78544  -0.88284  -0.82796  -0.75285  -0.66638
 Alpha  occ. eigenvalues --   -0.63564  -0.62327  -0.61089  -0.52888  -0.51304
 Alpha  occ. eigenvalues --   -0.48987  -0.45046  -0.42037  -0.39792  -0.37988
 Alpha  occ. eigenvalues --   -0.37684  -0.33562  -0.32612  -0.31849  -0.30481
 Alpha  occ. eigenvalues --   -0.29174  -0.28319  -0.27565  -0.27285  -0.25716
 Alpha  occ. eigenvalues --   -0.24969  -0.24715  -0.23572  -0.22307  -0.20910
 Alpha  occ. eigenvalues --   -0.20398  -0.10967  -0.10692  -0.09466   0.04511
 Alpha virt. eigenvalues --    0.06529   0.07693   0.08480   0.08877   0.09435
 Alpha virt. eigenvalues --    0.09920   0.10465   0.10853   0.11591   0.12243
 Alpha virt. eigenvalues --    0.12427   0.12929   0.13447   0.13952   0.14343

  Beta  occ. eigenvalues --  -88.74495 -18.94029 -14.21798 -10.10094 -10.09793
  Beta  occ. eigenvalues --  -10.09462 -10.09460 -10.07932 -10.07717 -10.07004
  Beta  occ. eigenvalues --  -10.05853 -10.02574  -7.83110  -5.79452  -5.79141
  Beta  occ. eigenvalues --   -5.78535  -0.87656  -0.82592  -0.75214  -0.66409
  Beta  occ. eigenvalues --   -0.63423  -0.62257  -0.60929  -0.52663  -0.50999
  Beta  occ. eigenvalues --   -0.48879  -0.44936  -0.41769  -0.39705  -0.37850
  Beta  occ. eigenvalues --   -0.37585  -0.33470  -0.32456  -0.31668  -0.30238
  Beta  occ. eigenvalues --   -0.28927  -0.28129  -0.27425  -0.27164  -0.25606
  Beta  occ. eigenvalues --   -0.24859  -0.24202  -0.23286  -0.21765  -0.20386
  Beta  occ. eigenvalues --   -0.19703  -0.10893  -0.10412  -0.08755
  Beta virt. eigenvalues --    0.07280   0.07726   0.08678   0.08993   0.09245
  Beta virt. eigenvalues --    0.09925   0.10368   0.10816   0.10955   0.11863
  Beta virt. eigenvalues --    0.12249   0.12748   0.13211   0.13588   0.13931

 Mulliken charges and spin densities:
               1          2
     1  C    0.991838  -1.433139
     2  C   -0.238017   0.101887
     3  N   -0.083218   0.070428
     4  C   -0.495683   0.301071
     5  C    0.544416  -0.536965
     6  C   -0.950919   0.228734
     7  O   -0.364933   0.114098
     8  C    1.130230  -0.117752
     9  C   -0.664355   0.043111
    10  S   -0.197571   0.057209
    11  C    0.037538  -0.044508
    12  C   -0.605855   0.072557
    13  H    0.005325   0.134480
    14  H   -0.656031   0.802873
    15  H   -0.113963   0.245871
    16  H   -0.426861   0.583033
    17  H   -0.127475   0.262908
    18  H    0.353345  -0.184477
    19  H   -0.127618   0.220988
    20  H    0.166979   0.004054
    21  H    0.015674   0.044469
    22  H    0.235481  -0.005154
    23  H    0.190203  -0.000496
    24  H    0.188230   0.034250
    25  H    0.193244   0.000472
 Sum of Mulliken charges =  -1.00000   1.00000

 Dipole moment (field-independent basis, Debye):
    X=             -6.4473    Y=             -1.4501    Z=              0.4494  Tot=              6.6236
 Quadrupole moment (field-independent basis, Debye-Ang):
   XX=           -157.9971   YY=           -122.5068   ZZ=            -97.8497
   XY=             16.5258   XZ=             -4.3463   YZ=              2.3610

 Summary of Natural Population Analysis:

                                       Natural Population
                Natural  -----------------------------------------------
    Atom  No    Charge         Core      Valence    Rydberg      Total
 -----------------------------------------------------------------------
      C    1   -0.29150      0.99967     2.28685    0.00498     3.29150
      C    2   -0.08368      0.99964     2.07201    0.01203     3.08368
      N    3   -0.30701      0.99969     2.79768    0.00964     3.80701
      C    4    0.09822      0.99956     1.88866    0.01356     2.90178
      C    5   -0.22263      0.99954     2.21297    0.01012     3.22263
      C    6    0.28389      0.99960     1.69449    0.02203     2.71611
      O    7   -0.27939      0.99988     3.27331    0.00620     4.27939
      C    8   -0.16740      0.99955     2.15454    0.01331     3.16740
      C    9   -0.22880      0.99959     2.22167    0.00754     3.22880
      S   10    0.08970      4.99960     2.88901    0.02168     7.91030
      C   11   -0.17325      0.99947     2.16372    0.01006     3.17325
      C   12   -0.09525      0.99950     2.08460    0.01114     3.09525
      H   13    0.09872      0.00000     0.40031    0.00098     0.40128
      H   14    0.10330      0.00000     0.39281    0.00388     0.39670
      H   15    0.09474      0.00000     0.40409    0.00117     0.40526
      H   16    0.09689      0.00000     0.40070    0.00241     0.40311
      H   17    0.09116      0.00000     0.40757    0.00127     0.40884
      H   18    0.18234      0.00000     0.31369    0.00397     0.31766
      H   19    0.08580      0.00000     0.41313    0.00107     0.41420
      H   20    0.10229      0.00000     0.39562    0.00208     0.39771
      H   21    0.09751      0.00000     0.40024    0.00225     0.40249
      H   22    0.10360      0.00000     0.39500    0.00140     0.39640
      H   23    0.10919      0.00000     0.38943    0.00138     0.39081
      H   24    0.10092      0.00000     0.39773    0.00135     0.39908
      H   25    0.11064      0.00000     0.38825    0.00111     0.38936
 =======================================================================
   * Total *   -0.00000     15.99528    32.83809    0.16663    49.00000

 Normal termination of Gaussian 16 at Wed Dec  9 17:08:13 2020.
