 Gaussian 16, Revision A.03,

 -----------------------------------------------------------
 # opt freq B3LYP/6-31G(d) empiricaldispersion=gd3bj scf=xqc
 -----------------------------------------------------------

 -----------------------------
 CID_69714657_JID_114_neutraal
 -----------------------------
 Symbolic Z-matrix:
 Charge =  0 Multiplicity = 1

 SCF Done:  E(RB3LYP) =  -453.660279480     A.U. after   15 cycles
 SCF Done:  E(RB3LYP) =  -453.665798818     A.U. after   13 cycles
 SCF Done:  E(RB3LYP) =  -453.668280425     A.U. after   12 cycles
 SCF Done:  E(RB3LYP) =  -453.669081154     A.U. after   12 cycles
 SCF Done:  E(RB3LYP) =  -453.669303805     A.U. after   12 cycles
 SCF Done:  E(RB3LYP) =  -453.669458902     A.U. after   12 cycles
 SCF Done:  E(RB3LYP) =  -453.669527336     A.U. after   12 cycles
 SCF Done:  E(RB3LYP) =  -453.669532430     A.U. after    9 cycles
 SCF Done:  E(RB3LYP) =  -453.669535114     A.U. after    9 cycles
 SCF Done:  E(RB3LYP) =  -453.669535461     A.U. after    8 cycles
 Optimization completed.
    -- Stationary point found.

 1\1\GINC-NODE308\FOpt\RB3LYP\6-31G(d)\C6H10N4\VSC10255\08-Dec-2020\0\\
 # opt freq B3LYP/6-31G(d) empiricaldispersion=gd3bj scf=xqc\\CID_69714
 657_JID_114_neutraal\\0,1\C,0.9079807043,0.0897522037,0.0528221211\C,0
 .2685889138,-0.7154910184,1.1829499991\C,0.4411995702,-0.0454746325,2.
 5507334288\N,-1.1473221723,-0.9286085547,0.8659154078\C,-1.8989880907,
 -1.9155075622,1.4090225833\C,-3.2986156582,-2.0058769282,1.1593814357\
 N,-4.0359928995,-2.9728424057,1.6606010463\N,-3.4500981835,-3.91472845
 53,2.4332704553\C,-2.1425073075,-3.7896288566,2.6387939774\N,-1.315252

 Normal termination of Gaussian 16 at Tue Dec  8 10:16:21 2020.

 --------------------------------------------------------------------
 #N Geom=AllCheck Guess=TCheck SCRF=Check GenChk RB3LYP/6-31G(d) Freq
 --------------------------------------------------------------------

 Structure from the checkpoint file:  "JID_114.chk"
 -----------------------------
 CID_69714657_JID_114_neutraal
 -----------------------------
 Charge =  0 Multiplicity = 1

 SCF Done:  E(RB3LYP) =  -453.669535461     A.U. after    1 cycles

  Exact polarizability: 121.059   6.040  85.289  -0.368  -8.340  55.561
 Approx polarizability: 183.197  14.547 141.665   0.225 -20.495  82.360

                      1                      2                      3
                      A                      A                      A
 Frequencies --     54.7091                65.6480               144.5424
 Red. masses --      3.0111                 4.9775                 3.6996
 Frc consts  --      0.0053                 0.0126                 0.0455
 IR Inten    --      1.2251                 0.7994                 1.4191

                      4                      5                      6
                      A                      A                      A
 Frequencies --    177.2796               236.2316               265.6530
 Red. masses --      5.3268                 1.0262                 1.1342
 Frc consts  --      0.0986                 0.0337                 0.0472
 IR Inten    --      2.5375                 0.0661                 0.0577

                      7                      8                      9
                      A                      A                      A
 Frequencies --    304.4323               368.4276               390.2541
 Red. masses --      2.6648                 2.4267                 3.7737
 Frc consts  --      0.1455                 0.1941                 0.3386
 IR Inten    --      0.3227                28.6841                25.3125

                     10                     11                     12
                      A                      A                      A
 Frequencies --    423.1755               439.0680               472.3140
 Red. masses --      1.4786                 2.7173                 2.5930
 Frc consts  --      0.1560                 0.3086                 0.3408
 IR Inten    --     68.8052                11.5521                 3.1210

                     13                     14                     15
                      A                      A                      A
 Frequencies --    563.3803               645.4490               709.1576
 Red. masses --      3.5779                 8.9262                 6.7448
 Frc consts  --      0.6691                 2.1910                 1.9985
 IR Inten    --      0.2374                 1.6744                 1.5981

                     16                     17                     18
                      A                      A                      A
 Frequencies --    796.3169               853.9257               891.3988
 Red. masses --      5.7216                 2.4764                 1.4953
 Frc consts  --      2.1377                 1.0639                 0.7000
 IR Inten    --      5.0211                 0.5387                 9.0334

                     19                     20                     21
                      A                      A                      A
 Frequencies --    908.8652               945.7946               967.2342
 Red. masses --      3.7228                 1.2135                 1.4774
 Frc consts  --      1.8119                 0.6396                 0.8143
 IR Inten    --      2.3532                 1.7746                 0.5602

                     22                     23                     24
                      A                      A                      A
 Frequencies --    987.5798               994.4486              1026.9620
 Red. masses --      1.3711                 3.4602                 3.9531
 Frc consts  --      0.7879                 2.0161                 2.4564
 IR Inten    --      0.0940                16.2966                25.9875

                     25                     26                     27
                      A                      A                      A
 Frequencies --   1055.3042              1159.5616              1177.6473
 Red. masses --      3.9772                 2.0875                 2.2508
 Frc consts  --      2.6097                 1.6537                 1.8391
 IR Inten    --      6.0188                17.6621                22.1540

                     28                     29                     30
                      A                      A                      A
 Frequencies --   1207.5643              1223.8762              1314.5177
 Red. masses --      2.0078                 3.3986                 2.2029
 Frc consts  --      1.7250                 2.9993                 2.2427
 IR Inten    --     44.2050                28.5106                 8.2155

                     31                     32                     33
                      A                      A                      A
 Frequencies --   1322.4379              1366.3194              1390.1501
 Red. masses --      1.7733                 1.4864                 1.3432
 Frc consts  --      1.8272                 1.6349                 1.5294
 IR Inten    --     57.9023                 6.8278                 5.3724

                     34                     35                     36
                      A                      A                      A
 Frequencies --   1418.8164              1427.2842              1447.3925
 Red. masses --      1.5358                 1.2725                 1.2544
 Frc consts  --      1.8216                 1.5274                 1.5484
 IR Inten    --      1.6420                10.0789                 6.0409

                     37                     38                     39
                      A                      A                      A
 Frequencies --   1475.8085              1514.6854              1519.3286
 Red. masses --      2.1970                 1.0659                 1.0449
 Frc consts  --      2.8193                 1.4408                 1.4211
 IR Inten    --     60.2113                 3.3247                 3.7127

                     40                     41                     42
                      A                      A                      A
 Frequencies --   1528.8065              1539.7959              1559.9658
 Red. masses --      1.1094                 1.0506                 3.4332
 Frc consts  --      1.5277                 1.4676                 4.9224
 IR Inten    --      8.8880                10.5847                82.5837

                     43                     44                     45
                      A                      A                      A
 Frequencies --   1591.3347              1632.7075              3043.1594
 Red. masses --      3.7773                 4.7121                 1.0414
 Frc consts  --      5.6358                 7.4009                 5.6821
 IR Inten    --     91.7256               455.1988                19.1380

                     46                     47                     48
                      A                      A                      A
 Frequencies --   3051.1112              3093.2814              3111.9857
 Red. masses --      1.0381                 1.0849                 1.0985
 Frc consts  --      5.6940                 6.1162                 6.2679
 IR Inten    --     26.1529                 0.6431                 5.5359

                     49                     50                     51
                      A                      A                      A
 Frequencies --   3123.4420              3138.7872              3144.9150
 Red. masses --      1.0980                 1.1030                 1.1015
 Frc consts  --      6.3116                 6.4024                 6.4186
 IR Inten    --     51.0207                22.9551                18.8789

                     52                     53                     54
                      A                      A                      A
 Frequencies --   3167.6559              3194.2999              3610.3959
 Red. masses --      1.0910                 1.0912                 1.0767
 Frc consts  --      6.4501                 6.5603                 8.2687
 IR Inten    --     20.8902                26.6129                32.2429

 - Thermochemistry -
 -------------------
 Temperature   298.150 Kelvin.  Pressure   1.00000 Atm.
 Atom     1 has atomic number  6 and mass  12.00000

 Molecular mass:   138.09055 amu.
 Principal axes and moments of inertia in atomic units:
                           1         2         3
     Eigenvalues --   517.959882383.439702646.33952
           X            0.99999   0.00327  -0.00179
           Y           -0.00324   0.99982   0.01863
           Z            0.00185  -0.01862   0.99982
 This molecule is an asymmetric top.
 Rotational symmetry number  1.
 Warning -- assumption of classical behavior for rotation
           may cause significant error
 Rotational temperatures (Kelvin)      0.16722     0.03634     0.03273
 Rotational constants (GHZ):           3.48433     0.75720     0.68198
 Zero-point vibrational energy     437741.0 (Joules/Mol)
                                  104.62262 (Kcal/Mol)
 Warning -- explicit consideration of  13 degrees of freedom as
           vibrations may cause significant error
 Vibrational temperatures:     78.71    94.45   207.96   255.07   339.88
          (Kelvin)            382.22   438.01   530.09   561.49   608.86
                              631.72   679.55   810.58   928.66  1020.32
                             1145.72  1228.61  1282.52  1307.65  1360.79
                             1391.63  1420.91  1430.79  1477.57  1518.35
                             1668.35  1694.37  1737.42  1760.88  1891.30
                             1902.69  1965.83  2000.12  2041.36  2053.54
                             2082.47  2123.36  2179.29  2185.97  2199.61
                             2215.42  2244.44  2289.58  2349.10  4378.43
                             4389.87  4450.54  4477.45  4493.94  4516.01
                             4524.83  4557.55  4595.89  5194.55

 Zero-point correction=                           0.166727 (Hartree/Particle)
 Thermal correction to Energy=                    0.176353
 Thermal correction to Enthalpy=                  0.177297
 Thermal correction to Gibbs Free Energy=         0.131468
 Sum of electronic and zero-point Energies=           -453.502809
 Sum of electronic and thermal Energies=              -453.493182
 Sum of electronic and thermal Enthalpies=            -453.492238
 Sum of electronic and thermal Free Energies=         -453.538067

                     E (Thermal)             CV                S
                      KCal/Mol        Cal/Mol-Kelvin    Cal/Mol-Kelvin
 Total                  110.663             35.551             96.456
 Electronic               0.000              0.000              0.000
 Translational            0.889              2.981             40.680
 Rotational               0.889              2.981             29.570
 Vibrational            108.886             29.590             26.206
 Vibration     1          0.596              1.976              4.639
 Vibration     2          0.597              1.971              4.280
 Vibration     3          0.616              1.909              2.743
 Vibration     4          0.628              1.870              2.357
 Vibration     5          0.655              1.785              1.831
 Vibration     6          0.671              1.736              1.624
 Vibration     7          0.695              1.665              1.392
 Vibration     8          0.741              1.537              1.086
 Vibration     9          0.758              1.491              0.999
 Vibration    10          0.785              1.420              0.881
 Vibration    11          0.799              1.385              0.830
 Vibration    12          0.829              1.311              0.731
 Vibration    13          0.919              1.111              0.517

 Optimization completed.
    -- Stationary point found.

 1\1\GINC-NODE308\Freq\RB3LYP\6-31G(d)\C6H10N4\VSC10255\08-Dec-2020\0\\
 #N Geom=AllCheck Guess=TCheck SCRF=Check GenChk RB3LYP/6-31G(d) Freq\\
 CID_69714657_JID_114_neutraal\\0,1\C,0.9079807043,0.0897522037,0.05282
 21211\C,0.2685889138,-0.7154910184,1.1829499991\C,0.4411995702,-0.0454
 746325,2.5507334288\N,-1.1473221723,-0.9286085547,0.8659154078\C,-1.89
 89880907,-1.9155075622,1.4090225833\C,-3.2986156582,-2.0058769282,1.15
 93814357\N,-4.0359928995,-2.9728424057,1.6606010463\N,-3.4500981835,-3
 .9147284553,2.4332704553\C,-2.1425073075,-3.7896288566,2.6387939774\N,

 Normal termination of Gaussian 16 at Tue Dec  8 10:19:18 2020.

 ----------------------------------------------------------------------
 # B3LYP/6-311++G(d,p) empiricaldispersion=gd3bj scf=xqc pop=npa geom=c
 heck
 ----------------------------------------------------------------------

 -------------------------------------
 CID_69714657_JID_114_Energie_neutraal
 -------------------------------------
 Structure from the checkpoint file:  "JID_114.chk"
 Charge =  0 Multiplicity = 1

 SCF Done:  E(RB3LYP) =  -453.794265989     A.U. after   14 cycles
 Normal termination of Gaussian 16 at Tue Dec  8 10:20:06 2020.

 ----------------------------------------------------------------------
 # B3LYP/6-311++G(d,p) empiricaldispersion=gd3bj scf=xqc pop=npa geom=c
 heck
 ----------------------------------------------------------------------

 -----------------------------------
 CID_69714657_JID_114_Energie_kation
 -----------------------------------
 Structure from the checkpoint file:  "JID_114.chk"
 Charge =  1 Multiplicity = 2

 SCF Done:  E(UB3LYP) =  -453.475593520     A.U. after   25 cycles
 Normal termination of Gaussian 16 at Tue Dec  8 10:22:19 2020.
 Gaussian 16:  ES64L-G16RevA.03 25-Dec-2016

 ----------------------------------
 CID_69714657_JID_114_Energie_anion
 ----------------------------------
 Structure from the checkpoint file:  "JID_114.chk"
 Charge = -1 Multiplicity = 2

                         Standard orientation:
 ---------------------------------------------------------------------
 Center     Atomic      Atomic             Coordinates (Angstroms)
 Number     Number       Type             X           Y           Z
 ---------------------------------------------------------------------
      1          6           0       -3.237660   -0.623230   -0.644992
      2          6           0       -2.018819    0.196926   -0.225231
      3          6           0       -2.294554    1.069757    1.004274
      4          7           0       -0.894951   -0.716071    0.007346
      5          6           0        0.403207   -0.331015   -0.014022
      6          6           0        1.450572   -1.230898    0.336239
      7          7           0        2.716862   -0.877492    0.296463
      8          7           0        3.038587    0.376406   -0.092989
      9          6           0        2.028544    1.180725   -0.410113
     10          7           0        0.715235    0.914129   -0.391828
     11          1           0       -3.548325   -1.304851    0.158106
     12          1           0       -3.025789   -1.216841   -1.539996
     13          1           0       -4.082983    0.037504   -0.859584
     14          1           0       -1.713033    0.845932   -1.050986
     15          1           0       -2.583868    0.451856    1.862876
     16          1           0       -1.402743    1.643993    1.269270
     17          1           0       -3.109325    1.773185    0.799388
     18          1           0       -1.103043   -1.616490    0.417526
     19          1           0        1.238855   -2.251368    0.652132
     20          1           0        2.312381    2.184691   -0.718600
 ---------------------------------------------------------------------

 SCF Done:  E(UB3LYP) =  -453.792287079     A.U. after   33 cycles
 SCF Done:  E(UB3LYP) =  -453.792287079     a.u. after    1 cycles

 The electronic state is 2-A.
 Alpha  occ. eigenvalues --  -14.21367 -14.18664 -14.18600 -14.16699 -10.12091
 Alpha  occ. eigenvalues --  -10.10037 -10.09418 -10.06319 -10.05662 -10.04844
 Alpha  occ. eigenvalues --   -0.88474  -0.83596  -0.76738  -0.69143  -0.65692
 Alpha  occ. eigenvalues --   -0.58392  -0.54227  -0.53036  -0.48246  -0.42751
 Alpha  occ. eigenvalues --   -0.40055  -0.35163  -0.34495  -0.34215  -0.32184
 Alpha  occ. eigenvalues --   -0.31293  -0.29574  -0.28260  -0.27121  -0.25113
 Alpha  occ. eigenvalues --   -0.23765  -0.21524  -0.18276  -0.17462  -0.16794
 Alpha  occ. eigenvalues --   -0.10812  -0.09163   0.04700
 Alpha virt. eigenvalues --    0.06666   0.08299   0.08978   0.09904   0.10668
 Alpha virt. eigenvalues --    0.11189   0.11382   0.12408   0.12589   0.13899
 Alpha virt. eigenvalues --    0.14107   0.15770   0.16991   0.17298   0.17789

  Beta  occ. eigenvalues --  -14.21325 -14.18670 -14.18073 -14.16405 -10.12034
  Beta  occ. eigenvalues --  -10.10037 -10.09376 -10.06249 -10.05619 -10.04806
  Beta  occ. eigenvalues --   -0.88050  -0.83375  -0.76248  -0.68896  -0.65517
  Beta  occ. eigenvalues --   -0.58318  -0.53757  -0.52904  -0.48085  -0.42580
  Beta  occ. eigenvalues --   -0.39899  -0.35024  -0.34327  -0.34143  -0.31866
  Beta  occ. eigenvalues --   -0.31088  -0.29036  -0.28137  -0.27033  -0.24949
  Beta  occ. eigenvalues --   -0.23670  -0.20727  -0.17099  -0.16801  -0.16489
  Beta  occ. eigenvalues --   -0.10186  -0.08750
  Beta virt. eigenvalues --    0.07394   0.08997   0.09333   0.10077   0.10091
  Beta virt. eigenvalues --    0.11038   0.11455   0.11746   0.12599   0.12991
  Beta virt. eigenvalues --    0.14107   0.14341   0.15782   0.17004   0.17260

 Mulliken charges and spin densities:
               1          2
     1  C    0.964482  -1.494293
     2  C   -1.152098   1.104286
     3  C    0.654607  -1.078484
     4  N    0.020753   0.016084
     5  C    0.421227  -0.493365
     6  C   -0.614747   0.335151
     7  N   -0.132199   0.211588
     8  N   -0.144608   0.009982
     9  C   -0.073315  -0.025594
    10  N   -0.209149   0.126098
    11  H   -0.542608   0.683413
    12  H   -0.221090   0.374158
    13  H   -0.231817   0.372495
    14  H    0.205891  -0.023452
    15  H   -0.034854   0.173396
    16  H    0.040417   0.118641
    17  H   -0.182312   0.304442
    18  H    0.222354   0.030411
    19  H   -0.141367   0.263108
    20  H    0.150433  -0.008063
 Sum of Mulliken charges =  -1.00000   1.00000

 Dipole moment (field-independent basis, Debye):
    X=             -0.5723    Y=              1.4648    Z=             -0.3647  Tot=              1.6143
 Quadrupole moment (field-independent basis, Debye-Ang):
   XX=           -131.5918   YY=            -82.0496   ZZ=            -76.8584
   XY=             -0.2658   XZ=              0.5076   YZ=             -0.5702

 Summary of Natural Population Analysis:

                                       Natural Population
                Natural  -----------------------------------------------
    Atom  No    Charge         Core      Valence    Rydberg      Total
 -----------------------------------------------------------------------
      C    1   -0.28658      0.99965     2.28120    0.00573     3.28658
      C    2   -0.01558      0.99962     2.00393    0.01203     3.01558
      C    3   -0.28983      0.99964     2.28452    0.00567     3.28983
      N    4   -0.30366      0.99965     2.79192    0.01208     3.80366
      C    5    0.20699      0.99956     1.77786    0.01559     2.79301
      C    6   -0.02450      0.99959     2.00698    0.01793     3.02450
      N    7   -0.04749      0.99972     2.53241    0.01536     3.54749
      N    8   -0.18189      0.99973     2.66619    0.01596     3.68189
      C    9    0.13036      0.99969     1.85084    0.01912     2.86964
      N   10   -0.24202      0.99968     2.73353    0.00881     3.74202
      H   11    0.09817      0.00000     0.39946    0.00237     0.40183
      H   12    0.10121      0.00000     0.39763    0.00116     0.39879
      H   13    0.10125      0.00000     0.39765    0.00110     0.39875
      H   14    0.10209      0.00000     0.39517    0.00274     0.39791
      H   15    0.09582      0.00000     0.40309    0.00109     0.40418
      H   16    0.10806      0.00000     0.39091    0.00103     0.39194
      H   17    0.09701      0.00000     0.40199    0.00101     0.40299
      H   18    0.18943      0.00000     0.30826    0.00231     0.31057
      H   19    0.08542      0.00000     0.41243    0.00215     0.41458
      H   20    0.07573      0.00000     0.42283    0.00144     0.42427
 =======================================================================
   * Total *    0.00000      9.99652    26.85880    0.14468    37.00000

 Normal termination of Gaussian 16 at Tue Dec  8 10:25:15 2020.
