 Gaussian 16, Revision A.03,

 -----------------------------------------------------------
 # opt freq B3LYP/6-31G(d) empiricaldispersion=gd3bj scf=xqc
 -----------------------------------------------------------

 ------------------------------
 CID_74236446_JID_8666_neutraal
 ------------------------------
 Symbolic Z-matrix:
 Charge =  0 Multiplicity = 1

 SCF Done:  E(RB3LYP) =  -1106.21577835     A.U. after   14 cycles
 SCF Done:  E(RB3LYP) =  -1106.21690778     A.U. after   13 cycles
 SCF Done:  E(RB3LYP) =  -1106.21674644     A.U. after   15 cycles
 SCF Done:  E(RB3LYP) =  -1106.21912905     A.U. after   13 cycles
 SCF Done:  E(RB3LYP) =  -1106.21976420     A.U. after   15 cycles
 SCF Done:  E(RB3LYP) =  -1106.22127360     A.U. after   12 cycles
 SCF Done:  E(RB3LYP) =  -1106.22140537     A.U. after   13 cycles
 SCF Done:  E(RB3LYP) =  -1106.22182110     A.U. after   13 cycles
 SCF Done:  E(RB3LYP) =  -1106.22193233     A.U. after   12 cycles
 SCF Done:  E(RB3LYP) =  -1106.22205272     A.U. after   11 cycles
 SCF Done:  E(RB3LYP) =  -1106.22248181     A.U. after   12 cycles
 SCF Done:  E(RB3LYP) =  -1106.22248271     A.U. after    8 cycles
 SCF Done:  E(RB3LYP) =  -1106.22248329     A.U. after    9 cycles
 SCF Done:  E(RB3LYP) =  -1106.22248342     A.U. after    7 cycles
 SCF Done:  E(RB3LYP) =  -1106.22248345     A.U. after    8 cycles
 Optimization completed.
    -- Stationary point found.
 Normal termination of Gaussian 16 at Fri Dec 11 21:37:01 2020.

 --------------------------------------------------------------------
 #N Geom=AllCheck Guess=TCheck SCRF=Check GenChk RB3LYP/6-31G(d) Freq
 --------------------------------------------------------------------

 Structure from the checkpoint file:  "JID_8666.chk"
 ------------------------------
 CID_74236446_JID_8666_neutraal
 ------------------------------
 Charge =  0 Multiplicity = 1

 SCF Done:  E(RB3LYP) =  -1106.22248345     A.U. after    1 cycles

  Exact polarizability: 215.530 -25.621 156.438 -23.583 -23.252 137.639
 Approx polarizability: 329.134 -53.330 260.727 -50.719 -60.662 246.885

                      1                      2                      3
                      A                      A                      A
 Frequencies --     21.8253                36.0442                46.8808
 Red. masses --      3.6217                 5.3599                 5.0563
 Frc consts  --      0.0010                 0.0041                 0.0065
 IR Inten    --      1.0045                 1.2727                 0.2815

                      4                      5                      6
                      A                      A                      A
 Frequencies --     68.2776                69.9007               106.6362
 Red. masses --      5.0080                 4.7720                 3.7123
 Frc consts  --      0.0138                 0.0137                 0.0249
 IR Inten    --      0.1948                 0.0058                 0.0796

                      7                      8                      9
                      A                      A                      A
 Frequencies --    143.9545               156.9718               185.4411
 Red. masses --      4.5200                 3.6095                 3.3051
 Frc consts  --      0.0552                 0.0524                 0.0670
 IR Inten    --      0.2191                 0.1186                 1.3035

                     10                     11                     12
                      A                      A                      A
 Frequencies --    220.6310               240.2761               263.1169
 Red. masses --      3.3056                 1.1965                 1.0849
 Frc consts  --      0.0948                 0.0407                 0.0443
 IR Inten    --      1.9415                 0.2723                 0.4743

                     13                     14                     15
                      A                      A                      A
 Frequencies --    272.5454               287.9118               326.9889
 Red. masses --      3.1385                 3.7316                 4.6973
 Frc consts  --      0.1374                 0.1822                 0.2959
 IR Inten    --      0.6084                 7.0323                 0.8383

                     16                     17                     18
                      A                      A                      A
 Frequencies --    334.1798               391.3652               413.5413
 Red. masses --      4.6387                 4.5610                 3.5245
 Frc consts  --      0.3052                 0.4116                 0.3551
 IR Inten    --      1.1751                 0.7259                15.1114

                     19                     20                     21
                      A                      A                      A
 Frequencies --    421.0010               426.4475               453.3404
 Red. masses --      2.5466                 2.2967                 3.3753
 Frc consts  --      0.2659                 0.2461                 0.4087
 IR Inten    --      3.4346                 2.7419                14.9958

                     22                     23                     24
                      A                      A                      A
 Frequencies --    465.0685               497.7141               549.6361
 Red. masses --      2.8532                 3.6083                 3.2293
 Frc consts  --      0.3636                 0.5266                 0.5748
 IR Inten    --      3.1447                 1.6168                11.1666

                     25                     26                     27
                      A                      A                      A
 Frequencies --    625.6609               652.9513               654.3631
 Red. masses --      7.4012                 5.6794                 5.7655
 Frc consts  --      1.7070                 1.4266                 1.4545
 IR Inten    --      2.8212                 1.0062                 0.7120

                     28                     29                     30
                      A                      A                      A
 Frequencies --    679.2214               727.8250               741.0348
 Red. masses --      5.2631                 5.8141                 4.6223
 Frc consts  --      1.4306                 1.8146                 1.4955
 IR Inten    --      9.7231                 0.9612                 5.2077

                     31                     32                     33
                      A                      A                      A
 Frequencies --    776.6053               805.9547               830.3470
 Red. masses --      3.4551                 2.0007                 2.1341
 Frc consts  --      1.2278                 0.7657                 0.8669
 IR Inten    --      3.1237                24.5436                 4.6846

                     34                     35                     36
                      A                      A                      A
 Frequencies --    839.7441               846.8298               860.9020
 Red. masses --      1.2708                 3.0356                 2.8084
 Frc consts  --      0.5280                 1.2826                 1.2264
 IR Inten    --      1.4250                34.9193                10.8990

                     37                     38                     39
                      A                      A                      A
 Frequencies --    870.5336               946.9289               953.2146
 Red. masses --      2.4225                 1.4305                 1.3224
 Frc consts  --      1.0816                 0.7557                 0.7080
 IR Inten    --      8.4874                 1.6292                 0.5731

                     40                     41                     42
                      A                      A                      A
 Frequencies --    962.2103               966.4430               977.0225
 Red. masses --      1.5879                 1.3895                 1.4746
 Frc consts  --      0.8662                 0.7646                 0.8293
 IR Inten    --      3.4009                 2.8810                 0.0623

                     43                     44                     45
                      A                      A                      A
 Frequencies --    991.3124               996.8466              1004.6538
 Red. masses --      1.1870                 2.0393                 1.4039
 Frc consts  --      0.6873                 1.1940                 0.8349
 IR Inten    --      4.4446                 4.2960                10.4478

                     46                     47                     48
                      A                      A                      A
 Frequencies --   1040.0921              1042.1693              1075.7649
 Red. masses --      3.2265                 5.3422                 2.2168
 Frc consts  --      2.0565                 3.4186                 1.5115
 IR Inten    --      5.4736                30.5459                33.6871

                     49                     50                     51
                      A                      A                      A
 Frequencies --   1091.7016              1117.1890              1143.1869
 Red. masses --      2.4592                 4.0611                 1.9040
 Frc consts  --      1.7268                 2.9864                 1.4660
 IR Inten    --     10.4234                42.5339                23.9983

                     52                     53                     54
                      A                      A                      A
 Frequencies --   1162.5798              1172.0402              1209.5258
 Red. masses --      1.3826                 1.5311                 1.6727
 Frc consts  --      1.1010                 1.2392                 1.4418
 IR Inten    --      4.3709                 1.0527                 6.7551

                     55                     56                     57
                      A                      A                      A
 Frequencies --   1221.1608              1225.3541              1236.0048
 Red. masses --      1.5257                 1.4321                 2.0367
 Frc consts  --      1.3405                 1.2670                 1.8333
 IR Inten    --      4.3164                 1.8900                 2.1006

                     58                     59                     60
                      A                      A                      A
 Frequencies --   1248.7706              1263.0715              1331.1106
 Red. masses --      5.3022                 2.7501                 1.6389
 Frc consts  --      4.8716                 2.5849                 1.7109
 IR Inten    --      6.6174                 1.2320                 8.2158

                     61                     62                     63
                      A                      A                      A
 Frequencies --   1337.0018              1345.7639              1369.6043
 Red. masses --      3.7522                 1.5418                 1.5729
 Frc consts  --      3.9519                 1.6451                 1.7384
 IR Inten    --      7.5772                 8.8597                 4.8353

                     64                     65                     66
                      A                      A                      A
 Frequencies --   1388.8995              1390.6663              1398.6503
 Red. masses --      1.2083                 1.2605                 1.4248
 Frc consts  --      1.3733                 1.4362                 1.6422
 IR Inten    --      4.2837                18.6701                10.1732

                     67                     68                     69
                      A                      A                      A
 Frequencies --   1413.1579              1449.0596              1459.0231
 Red. masses --      1.3795                 1.9053                 2.3976
 Frc consts  --      1.6231                 2.3572                 3.0072
 IR Inten    --      2.9649                22.8118                 5.0595

                     70                     71                     72
                      A                      A                      A
 Frequencies --   1475.6075              1487.0361              1497.2674
 Red. masses --      1.1342                 1.1044                 1.1016
 Frc consts  --      1.4551                 1.4389                 1.4550
 IR Inten    --      3.4512                 7.5546                 7.0892

                     73                     74                     75
                      A                      A                      A
 Frequencies --   1499.2473              1507.0441              1518.2994
 Red. masses --      1.0517                 1.0846                 1.0618
 Frc consts  --      1.3929                 1.4513                 1.4421
 IR Inten    --      9.0067                 6.4781                28.3179

                     76                     77                     78
                      A                      A                      A
 Frequencies --   1524.9853              1547.7064              1555.2449
 Red. masses --      2.0672                 2.1686                 1.0569
 Frc consts  --      2.8325                 3.0606                 1.5062
 IR Inten    --      3.6864                32.2994                 8.6642

                     79                     80                     81
                      A                      A                      A
 Frequencies --   1593.4292              1622.6953              1631.0461
 Red. masses --      8.1411                 6.0536                 4.9601
 Frc consts  --     12.1786                 9.3916                 7.7745
 IR Inten    --      3.9706                 0.4494                 1.6557

                     82                     83                     84
                      A                      A                      A
 Frequencies --   1662.4766              3024.0986              3027.2122
 Red. masses --      5.5821                 1.0423                 1.0519
 Frc consts  --      9.0899                 5.6160                 5.6793
 IR Inten    --     24.9581                58.6735                30.1258

                     85                     86                     87
                      A                      A                      A
 Frequencies --   3034.4671              3064.2891              3067.6923
 Red. masses --      1.0555                 1.0302                 1.1044
 Frc consts  --      5.7263                 5.6996                 6.1232
 IR Inten    --     61.3101                20.9925                14.2404

                     88                     89                     90
                      A                      A                      A
 Frequencies --   3076.9484              3084.4456              3103.5561
 Red. masses --      1.1057                 1.1042                 1.1021
 Frc consts  --      6.1676                 6.1897                 6.2543
 IR Inten    --     25.6235                41.8192                42.6921

                     91                     92                     93
                      A                      A                      A
 Frequencies --   3146.6057              3160.5905              3164.1637
 Red. masses --      1.1081                 1.1038                 1.0905
 Frc consts  --      6.4641                 6.4965                 6.4324
 IR Inten    --      9.7956                 5.1180                25.2257

                     94                     95                     96
                      A                      A                      A
 Frequencies --   3176.6182              3181.3471              3188.0166
 Red. masses --      1.0875                 1.0868                 1.0884
 Frc consts  --      6.4655                 6.4805                 6.5178
 IR Inten    --      4.5849                 8.5359                13.8168

                     97                     98                     99
                      A                      A                      A
 Frequencies --   3196.5145              3199.1627              3223.0442
 Red. masses --      1.0968                 1.0942                 1.0911
 Frc consts  --      6.6029                 6.5980                 6.6778
 IR Inten    --     28.2925                 9.0001                11.0583

 - Thermochemistry -
 -------------------
 Temperature   298.150 Kelvin.  Pressure   1.00000 Atm.
 Atom     1 has atomic number  6 and mass  12.00000

 Molecular mass:   259.11432 amu.
 Principal axes and moments of inertia in atomic units:
                           1         2         3
     Eigenvalues --  2966.850315799.863457185.07752
           X            0.99987  -0.00879  -0.01365
           Y            0.00838   0.99953  -0.02958
           Z            0.01390   0.02946   0.99947
 This molecule is an asymmetric top.
 Rotational symmetry number  1.
 Warning -- assumption of classical behavior for rotation
           may cause significant error
 Rotational temperatures (Kelvin)      0.02919     0.01493     0.01205
 Rotational constants (GHZ):           0.60830     0.31117     0.25118
 Zero-point vibrational energy     762515.9 (Joules/Mol)
                                  182.24568 (Kcal/Mol)
 Warning -- explicit consideration of  24 degrees of freedom as
           vibrations may cause significant error
 Vibrational temperatures:     31.40    51.86    67.45    98.24   100.57
          (Kelvin)            153.43   207.12   225.85   266.81   317.44
                              345.70   378.57   392.13   414.24   470.46
                              480.81   563.09   594.99   605.73   613.56
                              652.26   669.13   716.10   790.80   900.19
                              939.45   941.48   977.25  1047.18  1066.18
                             1117.36  1159.59  1194.68  1208.20  1218.40
                             1238.65  1252.50  1362.42  1371.46  1384.41
                             1390.50  1405.72  1426.28  1434.24  1445.47
                             1496.46  1499.45  1547.79  1570.72  1607.39
                             1644.79  1672.69  1686.30  1740.24  1756.98
                             1763.01  1778.34  1796.70  1817.28  1915.17
                             1923.65  1936.25  1970.56  1998.32  2000.86
                             2012.35  2033.22  2084.87  2099.21  2123.07
                             2139.51  2154.23  2157.08  2168.30  2184.49
                             2194.11  2226.80  2237.65  2292.59  2334.70
                             2346.71  2391.93  4351.00  4355.48  4365.92
                             4408.83  4413.72  4427.04  4437.83  4465.32
                             4527.26  4547.38  4552.53  4570.45  4577.25
                             4586.84  4599.07  4602.88  4637.24

 Zero-point correction=                           0.290427 (Hartree/Particle)
 Thermal correction to Energy=                    0.307281
 Thermal correction to Enthalpy=                  0.308225
 Thermal correction to Gibbs Free Energy=         0.244343
 Sum of electronic and zero-point Energies=          -1105.932056
 Sum of electronic and thermal Energies=             -1105.915203
 Sum of electronic and thermal Enthalpies=           -1105.914259
 Sum of electronic and thermal Free Energies=        -1105.978140

                     E (Thermal)             CV                S
                      KCal/Mol        Cal/Mol-Kelvin    Cal/Mol-Kelvin
 Total                  192.821             64.214            134.449
 Electronic               0.000              0.000              0.000
 Translational            0.889              2.981             42.556
 Rotational               0.889              2.981             33.180
 Vibrational            191.044             58.253             58.713
 Vibration     1          0.593              1.985              6.461
 Vibration     2          0.594              1.982              5.465
 Vibration     3          0.595              1.979              4.945
 Vibration     4          0.598              1.969              4.202
 Vibration     5          0.598              1.968              4.156
 Vibration     6          0.606              1.944              3.329
 Vibration     7          0.616              1.909              2.751
 Vibration     8          0.621              1.895              2.586
 Vibration     9          0.632              1.860              2.273
 Vibration    10          0.647              1.810              1.954
 Vibration    11          0.657              1.779              1.801
 Vibration    12          0.670              1.740              1.641
 Vibration    13          0.676              1.724              1.580
 Vibration    14          0.685              1.696              1.486
 Vibration    15          0.711              1.622              1.275
 Vibration    16          0.716              1.607              1.240
 Vibration    17          0.759              1.489              0.995
 Vibration    18          0.777              1.441              0.914
 Vibration    19          0.784              1.425              0.889
 Vibration    20          0.788              1.413              0.870
 Vibration    21          0.812              1.354              0.786
 Vibration    22          0.823              1.328              0.751
 Vibration    23          0.853              1.255              0.664
 Vibration    24          0.905              1.140              0.545

 Optimization completed.
    -- Stationary point found.
 Normal termination of Gaussian 16 at Fri Dec 11 21:55:18 2020.

 ----------------------------------------------------------------------
 # B3LYP/6-311++G(d,p) empiricaldispersion=gd3bj scf=xqc pop=npa geom=c
 heck
 ----------------------------------------------------------------------

 --------------------------------------
 CID_74236446_JID_8666_Energie_neutraal
 --------------------------------------
 Structure from the checkpoint file:  "JID_8666.chk"
 Charge =  0 Multiplicity = 1

 SCF Done:  E(RB3LYP) =  -1106.43130961     A.U. after   16 cycles
 Normal termination of Gaussian 16 at Fri Dec 11 22:02:28 2020.

 ----------------------------------------------------------------------
 # B3LYP/6-311++G(d,p) empiricaldispersion=gd3bj scf=xqc pop=npa geom=c
 heck
 ----------------------------------------------------------------------

 ------------------------------------
 CID_74236446_JID_8666_Energie_kation
 ------------------------------------
 Structure from the checkpoint file:  "JID_8666.chk"
 Charge =  1 Multiplicity = 2

 SCF Done:  E(UB3LYP) =  -1106.16631899     A.U. after   24 cycles
 Normal termination of Gaussian 16 at Fri Dec 11 22:17:23 2020.
 Gaussian 16:  ES64L-G16RevA.03 25-Dec-2016

 ----------------------------------------------------------------------
 # B3LYP/6-311++G(d,p) empiricaldispersion=gd3bj scf=xqc pop=npa geom=c
 heck
 ----------------------------------------------------------------------

 -----------------------------------
 CID_74236446_JID_8666_Energie_anion
 -----------------------------------
 Structure from the checkpoint file:  "JID_8666.chk"
 Charge = -1 Multiplicity = 2

                         Standard orientation:
 ---------------------------------------------------------------------
 Center     Atomic      Atomic             Coordinates (Angstroms)
 Number     Number       Type             X           Y           Z
 ---------------------------------------------------------------------
      1          6           0        2.721909   -1.842962    1.391941
      2          7           0        2.942770   -1.279453    0.067636
      3          6           0        2.061541   -1.798606   -0.982032
      4          6           0        0.596048   -1.410825   -0.884893
      5          6           0        0.081849   -0.356425   -1.649704
      6          6           0       -1.207570    0.120492   -1.453772
      7          6           0       -2.037272   -0.465767   -0.485161
      8          6           0       -1.557647   -1.557941    0.244889
      9          6           0       -0.256996   -2.019712    0.038310
     10         16           0       -3.646858    0.264247   -0.267530
     11          6           0       -4.373713   -0.735767    1.068602
     12          6           0        3.210397    0.150679    0.034657
     13          6           0        2.042466    1.101987    0.256604
     14          7           0        1.226471    0.879769    1.298368
     15          6           0        0.166213    1.681328    1.411584
     16          6           0       -0.074409    2.727904    0.519334
     17          7           0        0.759387    2.994239   -0.491024
     18          6           0        1.806275    2.173606   -0.614013
     19          1           0        2.760543   -2.937179    1.318409
     20          1           0        1.773292   -1.549504    1.859276
     21          1           0        3.534087   -1.518452    2.052407
     22          1           0        2.463045   -1.457364   -1.944833
     23          1           0        2.159488   -2.891643   -0.960064
     24          1           0        0.713798    0.120788   -2.394022
     25          1           0       -1.568870    0.960236   -2.040648
     26          1           0       -2.180767   -2.051383    0.981791
     27          1           0        0.098824   -2.864133    0.622344
     28          1           0       -4.487110   -1.781515    0.770667
     29          1           0       -3.780506   -0.670635    1.984779
     30          1           0       -5.363205   -0.311868    1.255391
     31          1           0        3.975352    0.352180    0.796502
     32          1           0        3.661738    0.389911   -0.937846
     33          1           0       -0.514321    1.486217    2.237589
     34          1           0       -0.951550    3.362305    0.623328
     35          1           0        2.480948    2.364244   -1.447527
 ---------------------------------------------------------------------

 SCF Done:  E(UB3LYP) =  -1106.43179274     A.U. after   33 cycles
 SCF Done:  E(UB3LYP) =  -1106.43179274     a.u. after    1 cycles

 The electronic state is 2-A.
 Alpha  occ. eigenvalues --  -88.74621 -14.19856 -14.15910 -14.15458 -10.09953
 Alpha  occ. eigenvalues --  -10.09700 -10.09558 -10.08604 -10.07701 -10.06918
 Alpha  occ. eigenvalues --  -10.06794 -10.06705 -10.06652 -10.06536 -10.06475
 Alpha  occ. eigenvalues --  -10.06196 -10.06015 -10.05949  -7.83218  -5.79623
 Alpha  occ. eigenvalues --   -5.79222  -5.78608  -0.83214  -0.81343  -0.75724
 Alpha  occ. eigenvalues --   -0.75429  -0.69891  -0.65392  -0.64333  -0.64124
 Alpha  occ. eigenvalues --   -0.59724  -0.59001  -0.54540  -0.51470  -0.50645
 Alpha  occ. eigenvalues --   -0.50350  -0.47454  -0.46013  -0.40001  -0.38130
 Alpha  occ. eigenvalues --   -0.37771  -0.37647  -0.35925  -0.35092  -0.34756
 Alpha  occ. eigenvalues --   -0.34142  -0.33206  -0.32889  -0.31731  -0.30614
 Alpha  occ. eigenvalues --   -0.29126  -0.28832  -0.28256  -0.27686  -0.26895
 Alpha  occ. eigenvalues --   -0.26057  -0.25414  -0.25019  -0.24271  -0.23614
 Alpha  occ. eigenvalues --   -0.21757  -0.19025  -0.17663  -0.15937  -0.14853
 Alpha  occ. eigenvalues --   -0.12985  -0.11603  -0.10232  -0.08856   0.04466
 Alpha virt. eigenvalues --    0.06003   0.07325   0.08461   0.08693   0.09078
 Alpha virt. eigenvalues --    0.09383   0.09684   0.10079   0.10405   0.10898
 Alpha virt. eigenvalues --    0.11171   0.11684   0.12207   0.12409   0.12589

  Beta  occ. eigenvalues --  -88.74615 -14.19846 -14.15428 -14.14954 -10.09964
  Beta  occ. eigenvalues --  -10.09699 -10.09503 -10.08610 -10.07699 -10.06899
  Beta  occ. eigenvalues --  -10.06769 -10.06701 -10.06647 -10.06512 -10.06454
  Beta  occ. eigenvalues --  -10.06163 -10.05980 -10.05886  -7.83213  -5.79612
  Beta  occ. eigenvalues --   -5.79212  -5.78606  -0.82756  -0.81146  -0.75681
  Beta  occ. eigenvalues --   -0.74595  -0.69858  -0.65275  -0.64210  -0.64046
  Beta  occ. eigenvalues --   -0.59692  -0.58858  -0.54466  -0.50990  -0.50494
  Beta  occ. eigenvalues --   -0.50279  -0.47353  -0.45910  -0.39967  -0.38065
  Beta  occ. eigenvalues --   -0.37631  -0.37507  -0.35792  -0.35027  -0.34684
  Beta  occ. eigenvalues --   -0.34088  -0.33151  -0.32802  -0.31691  -0.30559
  Beta  occ. eigenvalues --   -0.28817  -0.28536  -0.28052  -0.27615  -0.26767
  Beta  occ. eigenvalues --   -0.26019  -0.25345  -0.24602  -0.23999  -0.23567
  Beta  occ. eigenvalues --   -0.21712  -0.18130  -0.16171  -0.15314  -0.14582
  Beta  occ. eigenvalues --   -0.12418  -0.11237  -0.10055  -0.08540
  Beta virt. eigenvalues --    0.06818   0.07371   0.08594   0.08658   0.09065
  Beta virt. eigenvalues --    0.09516   0.09737   0.09988   0.10289   0.10673
  Beta virt. eigenvalues --    0.10891   0.11305   0.11832   0.12280   0.12397

 Mulliken charges and spin densities:
               1          2
     1  C   -0.345607  -0.046977
     2  N    0.231701  -0.011856
     3  C   -0.744330  -0.075805
     4  C    0.898674  -0.159952
     5  C   -0.400922  -0.012216
     6  C   -0.400316   0.075959
     7  C   -0.055606   0.761044
     8  C   -0.026584  -0.215645
     9  C    0.219854  -0.522336
    10  S   -0.275360  -0.128609
    11  C    0.347147  -0.937591
    12  C   -1.005156   0.000102
    13  C    0.490412   0.066089
    14  N   -0.016975   0.220433
    15  C    0.214186   0.003715
    16  C   -0.442160   0.044996
    17  N   -0.081345   0.218780
    18  C   -0.507606   0.047141
    19  H    0.109173  -0.000046
    20  H    0.163669   0.018640
    21  H    0.098545   0.010080
    22  H    0.117692   0.005358
    23  H    0.157962   0.003852
    24  H    0.156849   0.004127
    25  H    0.188249  -0.007732
    26  H    0.025945   0.124617
    27  H    0.039423   0.110077
    28  H   -0.120753   0.303682
    29  H   -0.096091   0.289431
    30  H   -0.601571   0.789168
    31  H    0.132831   0.023477
    32  H    0.153098  -0.006807
    33  H    0.144291   0.012880
    34  H    0.113914  -0.002599
    35  H    0.116764  -0.005475
 Sum of Mulliken charges =  -1.00000   1.00000

 Dipole moment (field-independent basis, Debye):
    X=              4.4721    Y=             -3.0784    Z=             -2.0937  Tot=              5.8190
 Quadrupole moment (field-independent basis, Debye-Ang):
   XX=           -178.4061   YY=           -149.9113   ZZ=           -135.2214
   XY=             -7.9888   XZ=              4.2929   YZ=              1.0027

 Summary of Natural Population Analysis:

                                       Natural Population
                Natural  -----------------------------------------------
    Atom  No    Charge         Core      Valence    Rydberg      Total
 -----------------------------------------------------------------------
      C    1   -0.17656      0.99965     2.16986    0.00705     3.17656
      N    2   -0.27576      0.99974     2.76189    0.01413     3.77576
      C    3   -0.08460      0.99958     2.07447    0.01054     3.08460
      C    4   -0.03626      0.99949     2.02563    0.01114     3.03626
      C    5   -0.08780      0.99952     2.07923    0.00906     3.08780
      C    6   -0.09832      0.99950     2.08817    0.01065     3.09832
      C    7   -0.08896      0.99941     2.07699    0.01256     3.08896
      C    8   -0.11601      0.99949     2.10586    0.01065     3.11601
      C    9   -0.09037      0.99951     2.08100    0.00986     3.09037
      S   10    0.12901      4.99953     2.85089    0.02057     7.87099
      C   11   -0.35428      0.99963     2.34817    0.00649     3.35428
      C   12   -0.08880      0.99958     2.07868    0.01054     3.08880
      C   13    0.07122      0.99953     1.91290    0.01635     2.92878
      N   14   -0.17081      0.99967     2.65814    0.01300     3.67081
      C   15    0.01636      0.99959     1.96829    0.01576     2.98364
      C   16   -0.00121      0.99960     1.98544    0.01617     3.00121
      N   17   -0.16680      0.99971     2.65371    0.01338     3.66680
      C   18    0.00226      0.99953     1.98535    0.01286     2.99774
      H   19    0.08267      0.00000     0.41631    0.00101     0.41733
      H   20    0.10042      0.00000     0.39778    0.00180     0.39958
      H   21    0.09076      0.00000     0.40825    0.00100     0.40924
      H   22    0.09392      0.00000     0.40516    0.00092     0.40608
      H   23    0.09267      0.00000     0.40630    0.00103     0.40733
      H   24    0.10088      0.00000     0.39804    0.00108     0.39912
      H   25    0.10304      0.00000     0.39563    0.00133     0.39696
      H   26    0.10017      0.00000     0.39809    0.00173     0.39983
      H   27    0.09644      0.00000     0.40213    0.00143     0.40356
      H   28    0.10217      0.00000     0.39598    0.00185     0.39783
      H   29    0.10549      0.00000     0.39253    0.00198     0.39451
      H   30    0.11133      0.00000     0.38710    0.00157     0.38867
      H   31    0.09707      0.00000     0.40179    0.00114     0.40293
      H   32    0.09068      0.00000     0.40836    0.00096     0.40932
      H   33    0.08476      0.00000     0.41413    0.00112     0.41524
      H   34    0.08463      0.00000     0.41422    0.00115     0.41537
      H   35    0.08061      0.00000     0.41814    0.00125     0.41939
 =======================================================================
   * Total *   -0.00000     21.99225    46.76461    0.24314    69.00000

 Normal termination of Gaussian 16 at Fri Dec 11 22:37:37 2020.
