 Gaussian 16, Revision A.03,

 -----------------------------------------------------------
 # opt freq B3LYP/6-31G(d) empiricaldispersion=gd3bj scf=xqc
 -----------------------------------------------------------

 ------------------------------
 CID_10773692_JID_3628_neutraal
 ------------------------------
 Symbolic Z-matrix:
 Charge =  0 Multiplicity = 1

 SCF Done:  E(RB3LYP) =  -555.578712620     A.U. after   15 cycles
 SCF Done:  E(RB3LYP) =  -555.586071277     A.U. after   12 cycles
 SCF Done:  E(RB3LYP) =  -555.587634921     A.U. after   12 cycles
 SCF Done:  E(RB3LYP) =  -555.588068787     A.U. after   12 cycles
 SCF Done:  E(RB3LYP) =  -555.588161405     A.U. after   12 cycles
 SCF Done:  E(RB3LYP) =  -555.588214283     A.U. after   10 cycles
 SCF Done:  E(RB3LYP) =  -555.588224668     A.U. after    9 cycles
 SCF Done:  E(RB3LYP) =  -555.588225675     A.U. after    8 cycles
 SCF Done:  E(RB3LYP) =  -555.588225952     A.U. after    8 cycles
 SCF Done:  E(RB3LYP) =  -555.588226019     A.U. after    7 cycles
 Optimization completed.
    -- Stationary point found.
 Normal termination of Gaussian 16 at Wed Dec  9 23:48:16 2020.

 --------------------------------------------------------------------
 #N Geom=AllCheck Guess=TCheck SCRF=Check GenChk RB3LYP/6-31G(d) Freq
 --------------------------------------------------------------------

 Structure from the checkpoint file:  "JID_3628.chk"
 ------------------------------
 CID_10773692_JID_3628_neutraal
 ------------------------------
 Charge =  0 Multiplicity = 1

 SCF Done:  E(RB3LYP) =  -555.588226019     A.U. after    1 cycles

  Exact polarizability: 163.119   5.432 136.023  -3.886   3.518  86.307
 Approx polarizability: 233.965  12.246 201.578 -13.409  11.204 134.105

                      1                      2                      3
                      A                      A                      A
 Frequencies --     54.5038                55.8101                74.6978
 Red. masses --      3.4396                 2.7392                 2.9630
 Frc consts  --      0.0060                 0.0050                 0.0097
 IR Inten    --      0.2702                 0.3209                 1.8737

                      4                      5                      6
                      A                      A                      A
 Frequencies --     76.9041               138.9538               160.9705
 Red. masses --      2.7456                 2.5295                 3.2383
 Frc consts  --      0.0096                 0.0288                 0.0494
 IR Inten    --      0.6126                 0.8152                 2.7143

                      7                      8                      9
                      A                      A                      A
 Frequencies --    164.4106               209.0258               234.1390
 Red. masses --      1.2314                 1.8373                 1.0438
 Frc consts  --      0.0196                 0.0473                 0.0337
 IR Inten    --      0.0242                 1.0894                 0.1660

                     10                     11                     12
                      A                      A                      A
 Frequencies --    264.0684               267.3673               308.0307
 Red. masses --      2.0555                 1.7461                 2.6346
 Frc consts  --      0.0845                 0.0735                 0.1473
 IR Inten    --      1.1319                 0.2338                 5.4440

                     13                     14                     15
                      A                      A                      A
 Frequencies --    337.4300               366.6527               385.5820
 Red. masses --      2.5819                 2.9413                 3.0278
 Frc consts  --      0.1732                 0.2330                 0.2652
 IR Inten    --      2.2776                 2.0479                 4.8362

                     16                     17                     18
                      A                      A                      A
 Frequencies --    425.9332               458.7475               496.3838
 Red. masses --      3.6368                 3.1626                 3.6399
 Frc consts  --      0.3887                 0.3921                 0.5284
 IR Inten    --     10.7739                 0.9340                 7.5039

                     19                     20                     21
                      A                      A                      A
 Frequencies --    551.8957               596.5067               617.1287
 Red. masses --      3.0779                 3.6721                 3.2387
 Frc consts  --      0.5524                 0.7698                 0.7267
 IR Inten    --      4.1179                 3.7221                 0.9673

                     22                     23                     24
                      A                      A                      A
 Frequencies --    625.7300               735.7640               775.6067
 Red. masses --      2.5841                 4.1364                 1.5669
 Frc consts  --      0.5961                 1.3193                 0.5554
 IR Inten    --     17.2411                21.9897                14.1485

                     25                     26                     27
                      A                      A                      A
 Frequencies --    789.8673               793.0481               837.2011
 Red. masses --      1.3156                 1.1605                 2.1670
 Frc consts  --      0.4836                 0.4300                 0.8949
 IR Inten    --     13.5037                 5.5386                 5.4102

                     28                     29                     30
                      A                      A                      A
 Frequencies --    871.6217               921.1213               937.3741
 Red. masses --      5.3581                 1.6396                 1.9994
 Frc consts  --      2.3984                 0.8196                 1.0351
 IR Inten    --      6.9348                 6.4432                 1.3143

                     31                     32                     33
                      A                      A                      A
 Frequencies --    950.8481               984.6316              1019.2788
 Red. masses --      2.0849                 2.4379                 2.2622
 Frc consts  --      1.1106                 1.3926                 1.3847
 IR Inten    --      2.1740                 2.1116                 7.5910

                     34                     35                     36
                      A                      A                      A
 Frequencies --   1058.4921              1078.8582              1086.1618
 Red. masses --      1.9565                 1.6529                 2.1902
 Frc consts  --      1.2915                 1.1335                 1.5224
 IR Inten    --      6.3842                 2.2660                 7.6802

                     37                     38                     39
                      A                      A                      A
 Frequencies --   1103.9127              1107.0489              1118.9222
 Red. masses --      2.3301                 2.1535                 1.7923
 Frc consts  --      1.6730                 1.5550                 1.3221
 IR Inten    --      8.3679                 7.4959                25.1199

                     40                     41                     42
                      A                      A                      A
 Frequencies --   1131.1824              1202.4790              1211.6297
 Red. masses --      1.7006                 1.8456                 2.2708
 Frc consts  --      1.2821                 1.5724                 1.9641
 IR Inten    --     14.8437                 7.3294                40.3521

                     43                     44                     45
                      A                      A                      A
 Frequencies --   1252.0552              1276.6018              1307.0447
 Red. masses --      1.5304                 1.8384                 1.5013
 Frc consts  --      1.4135                 1.7653                 1.5111
 IR Inten    --     13.8439                16.8892                11.1690

                     46                     47                     48
                      A                      A                      A
 Frequencies --   1333.8802              1359.6678              1391.3557
 Red. masses --      1.3769                 1.3380                 1.5208
 Frc consts  --      1.4434                 1.4574                 1.7346
 IR Inten    --     79.9002                14.3372                 7.5088

                     49                     50                     51
                      A                      A                      A
 Frequencies --   1403.2310              1412.3194              1424.8556
 Red. masses --      1.3163                 1.4254                 1.4630
 Frc consts  --      1.5270                 1.6751                 1.7500
 IR Inten    --     12.2143                99.1267                31.7105

                     52                     53                     54
                      A                      A                      A
 Frequencies --   1435.1631              1436.7674              1438.1825
 Red. masses --      1.2988                 1.2735                 1.3934
 Frc consts  --      1.5762                 1.5490                 1.6981
 IR Inten    --     20.9566                25.2167                 4.3972

                     55                     56                     57
                      A                      A                      A
 Frequencies --   1476.9778              1500.2056              1500.6634
 Red. masses --      2.8350                 1.1229                 1.1138
 Frc consts  --      3.6438                 1.4890                 1.4778
 IR Inten    --     36.1319                16.7324                14.1036

                     58                     59                     60
                      A                      A                      A
 Frequencies --   1504.0957              1512.9245              1517.5979
 Red. masses --      1.0473                 1.2508                 1.1060
 Frc consts  --      1.3959                 1.6869                 1.5008
 IR Inten    --      7.7388                47.2422                10.7186

                     61                     62                     63
                      A                      A                      A
 Frequencies --   1519.8576              1522.8735              1531.2387
 Red. masses --      1.0809                 1.0465                 1.0721
 Frc consts  --      1.4710                 1.4300                 1.4810
 IR Inten    --      0.5468                 1.2435                 7.6267

                     64                     65                     66
                      A                      A                      A
 Frequencies --   1537.0311              1583.2366              1645.5646
 Red. masses --      1.0560                 3.5454                 5.6681
 Frc consts  --      1.4699                 5.2361                 9.0431
 IR Inten    --      9.7151               474.1791                75.9892

                     67                     68                     69
                      A                      A                      A
 Frequencies --   1703.6235              3018.3404              3048.1582
 Red. masses --      9.0509                 1.0691                 1.0365
 Frc consts  --     15.4770                 5.7385                 5.6739
 IR Inten    --    292.8545                24.0442                29.0006

                     70                     71                     72
                      A                      A                      A
 Frequencies --   3049.6725              3051.0300              3058.4997
 Red. masses --      1.0354                 1.0370                 1.0663
 Frc consts  --      5.6736                 5.6873                 5.8768
 IR Inten    --     17.9844                29.7561                31.6298

                     73                     74                     75
                      A                      A                      A
 Frequencies --   3069.0314              3104.2752              3109.6257
 Red. masses --      1.0668                 1.1001                 1.1020
 Frc consts  --      5.9203                 6.2457                 6.2782
 IR Inten    --     48.9271                18.4666                18.4931

                     76                     77                     78
                      A                      A                      A
 Frequencies --   3113.3604              3120.0396              3125.2587
 Red. masses --      1.1019                 1.0910                 1.0993
 Frc consts  --      6.2928                 6.2572                 6.3262
 IR Inten    --     20.1983                10.8685                33.5006

                     79                     80                     81
                      A                      A                      A
 Frequencies --   3129.0838              3134.6041              3135.9982
 Red. masses --      1.0981                 1.1024                 1.0939
 Frc consts  --      6.3346                 6.3822                 6.3383
 IR Inten    --     26.4178                29.5412                46.9087

                     82                     83                     84
                      A                      A                      A
 Frequencies --   3141.1312              3149.2683              3203.1612
 Red. masses --      1.1013                 1.1024                 1.0910
 Frc consts  --      6.4022                 6.4418                 6.5954
 IR Inten    --     23.0668                24.6343                17.2945

 - Thermochemistry -
 -------------------
 Temperature   298.150 Kelvin.  Pressure   1.00000 Atm.
 Atom     1 has atomic number  6 and mass  12.00000

 Molecular mass:   179.14225 amu.
 Principal axes and moments of inertia in atomic units:
                           1         2         3
     Eigenvalues --  1608.140352785.350254000.00726
           X            0.99993  -0.01119   0.00276
           Y            0.01123   0.99984  -0.01396
           Z           -0.00260   0.01399   0.99990
 This molecule is an asymmetric top.
 Rotational symmetry number  1.
 Warning -- assumption of classical behavior for rotation
           may cause significant error
 Rotational temperatures (Kelvin)      0.05386     0.03110     0.02165
 Rotational constants (GHZ):           1.12225     0.64794     0.45118
 Zero-point vibrational energy     693077.3 (Joules/Mol)
                                  165.64945 (Kcal/Mol)
 Warning -- explicit consideration of  21 degrees of freedom as
           vibrations may cause significant error
 Vibrational temperatures:     78.42    80.30   107.47   110.65   199.92
          (Kelvin)            231.60   236.55   300.74   336.87   379.94
                              384.68   443.19   485.49   527.53   554.77
                              612.82   660.04   714.19   794.05   858.24
                              887.91   900.29  1058.60  1115.93  1136.44
                             1141.02  1204.55  1254.07  1325.29  1348.67
                             1368.06  1416.67  1466.51  1522.93  1552.24
                             1562.74  1588.28  1592.80  1609.88  1627.52
                             1730.10  1743.26  1801.43  1836.75  1880.55
                             1919.16  1956.26  2001.85  2018.94  2032.01
                             2050.05  2064.88  2067.19  2069.22  2125.04
                             2158.46  2159.12  2164.06  2176.76  2183.48
                             2186.74  2191.08  2203.11  2211.44  2277.92
                             2367.60  2451.13  4342.72  4385.62  4387.80
                             4389.75  4400.50  4415.65  4466.36  4474.06
                             4479.43  4489.04  4496.55  4502.05  4510.00
                             4512.00  4519.39  4531.09  4608.63

 Zero-point correction=                           0.263979 (Hartree/Particle)
 Thermal correction to Energy=                    0.277841
 Thermal correction to Enthalpy=                  0.278785
 Thermal correction to Gibbs Free Energy=         0.223426
 Sum of electronic and zero-point Energies=           -555.324247
 Sum of electronic and thermal Energies=              -555.310385
 Sum of electronic and thermal Enthalpies=            -555.309441
 Sum of electronic and thermal Free Energies=         -555.364800

                     E (Thermal)             CV                S
                      KCal/Mol        Cal/Mol-Kelvin    Cal/Mol-Kelvin
 Total                  174.348             51.766            116.514
 Electronic               0.000              0.000              0.000
 Translational            0.889              2.981             41.456
 Rotational               0.889              2.981             31.261
 Vibrational            172.570             45.804             43.797
 Vibration     1          0.596              1.976              4.647
 Vibration     2          0.596              1.975              4.600
 Vibration     3          0.599              1.966              4.026
 Vibration     4          0.599              1.965              3.968
 Vibration     5          0.615              1.914              2.818
 Vibration     6          0.622              1.890              2.538
 Vibration     7          0.623              1.886              2.498
 Vibration     8          0.642              1.827              2.052
 Vibration     9          0.654              1.789              1.847
 Vibration    10          0.671              1.739              1.635
 Vibration    11          0.672              1.733              1.613
 Vibration    12          0.698              1.658              1.373
 Vibration    13          0.718              1.601              1.224
 Vibration    14          0.740              1.541              1.094
 Vibration    15          0.754              1.501              1.017
 Vibration    16          0.788              1.414              0.872
 Vibration    17          0.817              1.342              0.770
 Vibration    18          0.852              1.258              0.667
 Vibration    19          0.907              1.136              0.540
 Vibration    20          0.954              1.039              0.456
 Vibration    21          0.977              0.996              0.421

                           ! Non-Optimized Parameters !
 Normal termination of Gaussian 16 at Wed Dec  9 23:55:47 2020.

 ----------------------------------------------------------------------
 # B3LYP/6-311++G(d,p) empiricaldispersion=gd3bj scf=xqc pop=npa geom=c
 heck
 ----------------------------------------------------------------------

 --------------------------------------
 CID_10773692_JID_3628_Energie_neutraal
 --------------------------------------
 Structure from the checkpoint file:  "JID_3628.chk"
 Charge =  0 Multiplicity = 1

 SCF Done:  E(RB3LYP) =  -555.737010075     A.U. after   15 cycles
 Normal termination of Gaussian 16 at Wed Dec  9 23:58:43 2020.

 ----------------------------------------------------------------------
 # B3LYP/6-311++G(d,p) empiricaldispersion=gd3bj scf=xqc pop=npa geom=c
 heck
 ----------------------------------------------------------------------

 ------------------------------------
 CID_10773692_JID_3628_Energie_kation
 ------------------------------------
 Structure from the checkpoint file:  "JID_3628.chk"
 Charge =  1 Multiplicity = 2

 SCF Done:  E(UB3LYP) =  -555.474198363     A.U. after   20 cycles
 Normal termination of Gaussian 16 at Thu Dec 10 00:03:55 2020.
 Gaussian 16:  ES64L-G16RevA.03 25-Dec-2016

 ----------------------------------------------------------------------
 # B3LYP/6-311++G(d,p) empiricaldispersion=gd3bj scf=xqc pop=npa geom=c
 heck
 ----------------------------------------------------------------------

 -----------------------------------
 CID_10773692_JID_3628_Energie_anion
 -----------------------------------
 Structure from the checkpoint file:  "JID_3628.chk"
 Charge = -1 Multiplicity = 2

                         Standard orientation:
 ---------------------------------------------------------------------
 Center     Atomic      Atomic             Coordinates (Angstroms)
 Number     Number       Type             X           Y           Z
 ---------------------------------------------------------------------
      1          6           0        2.000865    2.582143   -0.277415
      2          6           0        1.869313    1.390727    0.672673
      3          7           0        1.449607    0.171282   -0.010720
      4          6           0        2.472445   -0.754227   -0.484920
      5          6           0        2.823820   -1.829592    0.546097
      6          6           0        0.118705   -0.069287   -0.207482
      7          7           0       -0.751369    0.848357    0.155643
      8          6           0       -2.114667    0.664021    0.116328
      9          6           0       -2.748618   -0.517088    0.347006
     10          6           0       -1.948381   -1.756139    0.649924
     11          6           0       -1.168252   -1.943699   -0.621016
     12          7           0       -0.177059   -1.200644   -0.959149
     13          6           0       -2.890163    1.934077   -0.133401
     14          1           0        2.722236    2.373918   -1.075933
     15          1           0        2.339047    3.472777    0.265088
     16          1           0        1.029092    2.796231   -0.729943
     17          1           0        2.825119    1.178111    1.164940
     18          1           0        1.134267    1.616200    1.448852
     19          1           0        2.116188   -1.219702   -1.406111
     20          1           0        3.360232   -0.162738   -0.735895
     21          1           0        1.946555   -2.448224    0.761623
     22          1           0        3.620604   -2.481903    0.170133
     23          1           0        3.164540   -1.380359    1.485772
     24          1           0       -3.829639   -0.583412    0.279009
     25          1           0       -1.258194   -1.594949    1.491277
     26          1           0       -2.583392   -2.617105    0.871323
     27          1           0       -1.498748   -2.695277   -1.342000
     28          1           0       -2.604334    2.696522    0.600166
     29          1           0       -2.652130    2.340022   -1.124098
     30          1           0       -3.970100    1.771313   -0.071388
 ---------------------------------------------------------------------

 SCF Done:  E(UB3LYP) =  -555.721964595     A.U. after   33 cycles
 SCF Done:  E(UB3LYP) =  -555.721964595     a.u. after    1 cycles

 The electronic state is 2-A.
 Alpha  occ. eigenvalues --  -14.22181 -14.19298 -14.16793 -10.15327 -10.10470
 Alpha  occ. eigenvalues --  -10.09627 -10.09271 -10.08979 -10.06832 -10.06073
 Alpha  occ. eigenvalues --  -10.05472 -10.05335 -10.04909  -0.88202  -0.81183
 Alpha  occ. eigenvalues --   -0.77323  -0.68912  -0.66552  -0.63328  -0.62362
 Alpha  occ. eigenvalues --   -0.56077  -0.54762  -0.53248  -0.48972  -0.45948
 Alpha  occ. eigenvalues --   -0.41385  -0.38759  -0.38234  -0.37175  -0.35077
 Alpha  occ. eigenvalues --   -0.33781  -0.33134  -0.31699  -0.31231  -0.30590
 Alpha  occ. eigenvalues --   -0.29424  -0.28493  -0.27863  -0.27232  -0.26479
 Alpha  occ. eigenvalues --   -0.26084  -0.24893  -0.24267  -0.23118  -0.21047
 Alpha  occ. eigenvalues --   -0.17916  -0.15288  -0.12106  -0.09065   0.04711
 Alpha virt. eigenvalues --    0.06327   0.07090   0.07709   0.08428   0.08545
 Alpha virt. eigenvalues --    0.09353   0.09814   0.10472   0.10615   0.11260
 Alpha virt. eigenvalues --    0.11649   0.12039   0.12429   0.13431   0.13982

  Beta  occ. eigenvalues --  -14.22170 -14.19229 -14.16736 -10.15306 -10.10271
  Beta  occ. eigenvalues --  -10.09607 -10.09258 -10.08989 -10.06830 -10.06051
  Beta  occ. eigenvalues --  -10.05458 -10.05311 -10.04853  -0.88105  -0.81073
  Beta  occ. eigenvalues --   -0.77192  -0.68810  -0.66510  -0.63274  -0.62313
  Beta  occ. eigenvalues --   -0.55894  -0.54709  -0.53184  -0.48817  -0.45880
  Beta  occ. eigenvalues --   -0.41311  -0.38627  -0.38111  -0.37093  -0.34950
  Beta  occ. eigenvalues --   -0.33741  -0.33093  -0.31628  -0.31179  -0.30533
  Beta  occ. eigenvalues --   -0.29389  -0.28385  -0.27757  -0.27185  -0.26426
  Beta  occ. eigenvalues --   -0.26026  -0.24858  -0.24223  -0.23038  -0.20760
  Beta  occ. eigenvalues --   -0.17517  -0.15133  -0.12028  -0.08859
  Beta virt. eigenvalues --    0.06923   0.07454   0.07704   0.08625   0.08770
  Beta virt. eigenvalues --    0.08972   0.09973   0.10225   0.10574   0.10830
  Beta virt. eigenvalues --    0.11597   0.11764   0.12263   0.12534   0.13662

 Mulliken charges and spin densities:
               1          2
     1  C    0.690155  -1.120889
     2  C   -0.372523   0.162595
     3  N    0.268706  -0.000205
     4  C   -0.439888   0.188602
     5  C    0.545913  -0.921943
     6  C   -0.702721  -0.009116
     7  N   -0.116826   0.111758
     8  C   -0.358631   0.347012
     9  C   -0.025534   0.013039
    10  C    0.802251  -1.145708
    11  C   -0.237057   0.255723
    12  N   -0.025371   0.048442
    13  C    0.925088  -1.479240
    14  H   -0.054398   0.182389
    15  H   -0.164735   0.284826
    16  H    0.087025   0.091849
    17  H   -0.340250   0.490644
    18  H    0.130934   0.050882
    19  H    0.216313  -0.015858
    20  H   -0.380333   0.523953
    21  H    0.111857   0.029596
    22  H   -0.209646   0.335153
    23  H   -0.051053   0.186370
    24  H   -0.768121   0.934817
    25  H   -0.005632   0.172107
    26  H   -0.391147   0.560602
    27  H   -0.178392   0.339504
    28  H    0.073873   0.066052
    29  H    0.065194   0.082538
    30  H   -0.095050   0.234506
 Sum of Mulliken charges =  -1.00000   1.00000

 Dipole moment (field-independent basis, Debye):
    X=              0.7818    Y=              0.1567    Z=             -0.6291  Tot=              1.0156
 Quadrupole moment (field-independent basis, Debye-Ang):
   XX=           -158.4103   YY=           -119.8830   ZZ=           -106.2512
   XY=             -9.6759   XZ=              0.6487   YZ=             -0.4534

 Summary of Natural Population Analysis:

                                       Natural Population
                Natural  -----------------------------------------------
    Atom  No    Charge         Core      Valence    Rydberg      Total
 -----------------------------------------------------------------------
      C    1   -0.29184      0.99966     2.28711    0.00508     3.29184
      C    2   -0.08319      0.99962     2.07280    0.01077     3.08319
      N    3   -0.24966      0.99963     2.73737    0.01266     3.74966
      C    4   -0.08411      0.99962     2.07403    0.01047     3.08411
      C    5   -0.28991      0.99966     2.28511    0.00515     3.28991
      C    6    0.31496      0.99953     1.66860    0.01691     2.68504
      N    7   -0.30244      0.99962     2.79207    0.01075     3.80244
      C    8    0.08851      0.99947     1.89859    0.01344     2.91149
      C    9   -0.12350      0.99948     2.11340    0.01062     3.12350
      C   10   -0.24385      0.99961     2.23367    0.01056     3.24385
      C   11    0.13065      0.99962     1.85460    0.01512     2.86935
      N   12   -0.26004      0.99963     2.74986    0.01055     3.76004
      C   13   -0.29012      0.99963     2.28531    0.00518     3.29012
      H   14    0.09481      0.00000     0.40411    0.00108     0.40519
      H   15    0.09592      0.00000     0.40293    0.00114     0.40408
      H   16    0.10671      0.00000     0.39214    0.00114     0.39329
      H   17    0.09256      0.00000     0.40602    0.00142     0.40744
      H   18    0.10617      0.00000     0.39221    0.00162     0.39383
      H   19    0.10818      0.00000     0.39028    0.00154     0.39182
      H   20    0.09357      0.00000     0.40498    0.00145     0.40643
      H   21    0.09970      0.00000     0.39925    0.00105     0.40030
      H   22    0.09628      0.00000     0.40258    0.00113     0.40372
      H   23    0.09689      0.00000     0.40191    0.00120     0.40311
      H   24    0.09997      0.00000     0.39811    0.00192     0.40003
      H   25    0.10432      0.00000     0.39426    0.00141     0.39568
      H   26    0.10734      0.00000     0.39099    0.00167     0.39266
      H   27    0.08162      0.00000     0.41711    0.00127     0.41838
      H   28    0.10248      0.00000     0.39626    0.00126     0.39752
      H   29    0.10018      0.00000     0.39857    0.00126     0.39982
      H   30    0.09783      0.00000     0.40131    0.00086     0.40217
 =======================================================================
   * Total *   -0.00000     12.99478    35.84553    0.15970    49.00000

 Normal termination of Gaussian 16 at Thu Dec 10 00:12:39 2020.
