 Gaussian 16, Revision A.03,

 -----------------------------------------------------------
 # opt freq B3LYP/6-31G(d) empiricaldispersion=gd3bj scf=xqc
 -----------------------------------------------------------

 ------------------------------
 CID_83227406_JID_6599_neutraal
 ------------------------------
 Symbolic Z-matrix:
 Charge =  0 Multiplicity = 1

 SCF Done:  E(RB3LYP) =  -656.311938629     A.U. after   14 cycles
 SCF Done:  E(RB3LYP) =  -656.315921823     A.U. after   11 cycles
 SCF Done:  E(RB3LYP) =  -656.316267155     A.U. after   11 cycles
 SCF Done:  E(RB3LYP) =  -656.316319765     A.U. after   10 cycles
 SCF Done:  E(RB3LYP) =  -656.316340223     A.U. after   10 cycles
 SCF Done:  E(RB3LYP) =  -656.316342937     A.U. after    9 cycles
 SCF Done:  E(RB3LYP) =  -656.316343972     A.U. after    8 cycles
 SCF Done:  E(RB3LYP) =  -656.316344241     A.U. after    7 cycles
 SCF Done:  E(RB3LYP) =  -656.316344407     A.U. after    7 cycles
 SCF Done:  E(RB3LYP) =  -656.316344541     A.U. after    7 cycles
 SCF Done:  E(RB3LYP) =  -656.316344690     A.U. after    7 cycles
 SCF Done:  E(RB3LYP) =  -656.316344777     A.U. after    7 cycles
 SCF Done:  E(RB3LYP) =  -656.316344822     A.U. after    7 cycles
 Optimization completed.
    -- Stationary point found.
 Normal termination of Gaussian 16 at Thu Dec 10 23:52:14 2020.

 --------------------------------------------------------------------
 #N Geom=AllCheck Guess=TCheck SCRF=Check GenChk RB3LYP/6-31G(d) Freq
 --------------------------------------------------------------------

 Structure from the checkpoint file:  "JID_6599.chk"
 ------------------------------
 CID_83227406_JID_6599_neutraal
 ------------------------------
 Charge =  0 Multiplicity = 1

 SCF Done:  E(RB3LYP) =  -656.316344822     A.U. after    1 cycles

  Exact polarizability: 183.452   7.841 168.520 -16.870   5.947 115.573
 Approx polarizability: 253.014  16.059 254.755 -35.823  14.196 180.854

                      1                      2                      3
                      A                      A                      A
 Frequencies --     28.2796                31.2829                56.3520
 Red. masses --      2.9848                 3.3022                 3.8708
 Frc consts  --      0.0014                 0.0019                 0.0072
 IR Inten    --      0.0842                 0.1285                 0.4442

                      4                      5                      6
                      A                      A                      A
 Frequencies --     66.4768               106.3038               145.2797
 Red. masses --      3.4386                 2.2432                 2.0356
 Frc consts  --      0.0090                 0.0149                 0.0253
 IR Inten    --      0.0496                 0.0990                 0.1507

                      7                      8                      9
                      A                      A                      A
 Frequencies --    172.3484               196.5453               221.9709
 Red. masses --      3.4107                 3.2645                 2.3962
 Frc consts  --      0.0597                 0.0743                 0.0696
 IR Inten    --      1.5570                 4.6362                 1.7447

                     10                     11                     12
                      A                      A                      A
 Frequencies --    234.2969               243.8165               256.9859
 Red. masses --      3.5428                 1.2532                 1.1445
 Frc consts  --      0.1146                 0.0439                 0.0445
 IR Inten    --      4.7593                 0.2605                 0.1702

                     13                     14                     15
                      A                      A                      A
 Frequencies --    287.4490               293.8274               351.9304
 Red. masses --      2.5943                 1.0887                 2.3961
 Frc consts  --      0.1263                 0.0554                 0.1749
 IR Inten    --      0.5259                20.6595                 0.1113

                     16                     17                     18
                      A                      A                      A
 Frequencies --    364.9784               427.2283               436.0300
 Red. masses --      2.6364                 2.6923                 2.2440
 Frc consts  --      0.2069                 0.2895                 0.2514
 IR Inten    --      1.1752                 1.5737                 1.6503

                     19                     20                     21
                      A                      A                      A
 Frequencies --    457.1576               470.4396               486.9906
 Red. masses --      3.0777                 2.7377                 2.6354
 Frc consts  --      0.3790                 0.3570                 0.3682
 IR Inten    --      8.6374                 3.5978                 3.5633

                     22                     23                     24
                      A                      A                      A
 Frequencies --    533.5831               547.7436               560.0106
 Red. masses --      4.8347                 3.4430                 4.0405
 Frc consts  --      0.8110                 0.6086                 0.7466
 IR Inten    --     16.7842                11.4622                16.4041

                     25                     26                     27
                      A                      A                      A
 Frequencies --    617.3261               636.0358               690.6293
 Red. masses --      1.9579                 1.9749                 3.4609
 Frc consts  --      0.4396                 0.4707                 0.9726
 IR Inten    --    181.6262               158.5097                29.7267

                     28                     29                     30
                      A                      A                      A
 Frequencies --    724.5431               767.4669               774.9784
 Red. masses --      2.4853                 2.4129                 1.9685
 Frc consts  --      0.7687                 0.8373                 0.6966
 IR Inten    --      7.4908                27.6307                17.0360

                     31                     32                     33
                      A                      A                      A
 Frequencies --    785.3934               805.2361               839.1344
 Red. masses --      1.6361                 1.8585                 1.5307
 Frc consts  --      0.5946                 0.7100                 0.6350
 IR Inten    --      2.1931                19.2095                 7.5252

                     34                     35                     36
                      A                      A                      A
 Frequencies --    875.1214               880.9871               888.7406
 Red. masses --      1.4857                 1.5489                 1.9674
 Frc consts  --      0.6704                 0.7083                 0.9156
 IR Inten    --     15.3161                 5.2305                 5.3039

                     37                     38                     39
                      A                      A                      A
 Frequencies --    907.0573               946.2332               960.0633
 Red. masses --      2.1581                 2.2379                 1.2772
 Frc consts  --      1.0462                 1.1806                 0.6936
 IR Inten    --      1.0324                 0.6682                 0.6659

                     40                     41                     42
                      A                      A                      A
 Frequencies --    965.3163               978.7494              1000.7168
 Red. masses --      1.5882                 1.7394                 2.0562
 Frc consts  --      0.8720                 0.9817                 1.2132
 IR Inten    --      5.0819                 1.6123                 2.0014

                     43                     44                     45
                      A                      A                      A
 Frequencies --   1008.9258              1017.2792              1044.7558
 Red. masses --      2.3951                 5.9193                 1.8357
 Frc consts  --      1.4364                 3.6091                 1.1805
 IR Inten    --      0.6901                 1.5338                 1.8744

                     46                     47                     48
                      A                      A                      A
 Frequencies --   1065.0585              1082.6210              1102.7580
 Red. masses --      1.3387                 1.9408                 1.7340
 Frc consts  --      0.8947                 1.3403                 1.2424
 IR Inten    --      4.5667                 1.4315                 9.4341

                     49                     50                     51
                      A                      A                      A
 Frequencies --   1124.5505              1145.6163              1148.3343
 Red. masses --      2.3952                 1.9199                 1.5826
 Frc consts  --      1.7847                 1.4846                 1.2296
 IR Inten    --     11.7183                11.4951                 3.2231

                     52                     53                     54
                      A                      A                      A
 Frequencies --   1162.4510              1186.3471              1198.8347
 Red. masses --      2.0079                 2.1493                 1.6939
 Frc consts  --      1.5986                 1.7822                 1.4344
 IR Inten    --     25.0753                 6.6829                 7.1457

                     55                     56                     57
                      A                      A                      A
 Frequencies --   1205.4762              1210.1773              1234.7506
 Red. masses --      1.1896                 2.1377                 1.6409
 Frc consts  --      1.0186                 1.8445                 1.4740
 IR Inten    --      5.2760                23.7078                13.5983

                     58                     59                     60
                      A                      A                      A
 Frequencies --   1250.9367              1301.8525              1311.3515
 Red. masses --      1.4048                 1.2569                 1.6056
 Frc consts  --      1.2952                 1.2551                 1.6267
 IR Inten    --      1.3872                 3.6663                 4.1888

                     61                     62                     63
                      A                      A                      A
 Frequencies --   1332.3118              1335.6053              1350.2487
 Red. masses --      1.4880                 2.3222                 1.2537
 Frc consts  --      1.5562                 2.4406                 1.3467
 IR Inten    --     21.9231                41.8690                 2.0604

                     64                     65                     66
                      A                      A                      A
 Frequencies --   1357.8109              1366.1537              1373.8495
 Red. masses --      1.3907                 1.5549                 1.7962
 Frc consts  --      1.5106                 1.7098                 1.9975
 IR Inten    --      4.2281                 1.9571                10.8244

                     67                     68                     69
                      A                      A                      A
 Frequencies --   1384.7194              1395.0424              1400.5700
 Red. masses --      1.5034                 1.4290                 1.4546
 Frc consts  --      1.6984                 1.6385                 1.6811
 IR Inten    --      5.4931                15.0889                13.1975

                     70                     71                     72
                      A                      A                      A
 Frequencies --   1414.5199              1429.3803              1438.0692
 Red. masses --      1.4545                 1.3885                 1.3939
 Frc consts  --      1.7147                 1.6715                 1.6984
 IR Inten    --     10.3227                 8.5357                11.5639

                     73                     74                     75
                      A                      A                      A
 Frequencies --   1442.2070              1510.0600              1512.9810
 Red. masses --      1.2737                 1.1312                 2.1989
 Frc consts  --      1.5609                 1.5198                 2.9656
 IR Inten    --      2.1649                 7.3960                16.9118

                     76                     77                     78
                      A                      A                      A
 Frequencies --   1515.2665              1520.8689              1522.1591
 Red. masses --      1.1291                 1.1013                 1.0650
 Frc consts  --      1.5275                 1.5008                 1.4538
 IR Inten    --      3.2030                 5.2879                 4.1659

                     79                     80                     81
                      A                      A                      A
 Frequencies --   1527.5281              1531.3123              1536.0742
 Red. masses --      1.0451                 1.0527                 1.0960
 Frc consts  --      1.4368                 1.4544                 1.5237
 IR Inten    --      3.8728                 3.7466                 0.5142

                     82                     83                     84
                      A                      A                      A
 Frequencies --   1539.6610              1547.9280              1649.0034
 Red. masses --      1.0785                 2.4173                 5.3713
 Frc consts  --      1.5064                 3.4126                 8.6054
 IR Inten    --      8.2590                23.4624                17.7664

                     85                     86                     87
                      A                      A                      A
 Frequencies --   1668.2496              1694.8893              2932.8112
 Red. masses --      4.0644                 1.2555                 1.0804
 Frc consts  --      6.6645                 2.1250                 5.4753
 IR Inten    --     56.8174               113.6125                36.8091

                     88                     89                     90
                      A                      A                      A
 Frequencies --   2996.5095              3040.0116              3041.9689
 Red. masses --      1.0828                 1.0598                 1.0361
 Frc consts  --      5.7282                 5.7705                 5.6490
 IR Inten    --     31.5392                17.0960                21.5876

                     91                     92                     93
                      A                      A                      A
 Frequencies --   3045.9868              3054.3263              3057.5467
 Red. masses --      1.0368                 1.0660                 1.0606
 Frc consts  --      5.6678                 5.8594                 5.8421
 IR Inten    --     24.7590                23.6151                64.4969

                     94                     95                     96
                      A                      A                      A
 Frequencies --   3064.6260              3073.7074              3097.6670
 Red. masses --      1.0623                 1.1013                 1.1033
 Frc consts  --      5.8782                 6.1301                 6.2374
 IR Inten    --     27.9826                19.3567                26.7583

                     97                     98                     99
                      A                      A                      A
 Frequencies --   3102.5907              3107.8451              3110.6154
 Red. masses --      1.1016                 1.1012                 1.1012
 Frc consts  --      6.2478                 6.2667                 6.2778
 IR Inten    --      8.2763                43.8148                55.7693

                    100                    101                    102
                      A                      A                      A
 Frequencies --   3116.5005              3119.8867              3121.9805
 Red. masses --      1.1031                 1.1025                 1.1019
 Frc consts  --      6.3126                 6.3226                 6.3277
 IR Inten    --     48.0391                44.9948                38.1063

                    103                    104                    105
                      A                      A                      A
 Frequencies --   3163.2330              3173.2921              3187.3327
 Red. masses --      1.0894                 1.0863                 1.0898
 Frc consts  --      6.4222                 6.4448                 6.5233
 IR Inten    --     18.6364                 8.7959                25.9622

                    106                    107                    108
                      A                      A                      A
 Frequencies --   3202.6991              3548.2458              3646.6993
 Red. masses --      1.0958                 1.0479                 1.0979
 Frc consts  --      6.6222                 7.7731                 8.6021
 IR Inten    --     20.9535                 9.5222                 7.0038

 - Thermochemistry -
 -------------------
 Temperature   298.150 Kelvin.  Pressure   1.00000 Atm.
 Atom     1 has atomic number  6 and mass  12.00000

 Molecular mass:   218.17830 amu.
 Principal axes and moments of inertia in atomic units:
                           1         2         3
     Eigenvalues --  2374.217075085.693956445.28927
           X            0.99984   0.01792  -0.00197
           Y           -0.01791   0.99982   0.00636
           Z            0.00209  -0.00633   0.99998
 This molecule is an asymmetric top.
 Rotational symmetry number  1.
 Warning -- assumption of classical behavior for rotation
           may cause significant error
 Rotational temperatures (Kelvin)      0.03648     0.01703     0.01344
 Rotational constants (GHZ):           0.76014     0.35487     0.28001
 Zero-point vibrational energy     897950.9 (Joules/Mol)
                                  214.61541 (Kcal/Mol)
 Warning -- explicit consideration of  25 degrees of freedom as
           vibrations may cause significant error
 Vibrational temperatures:     40.69    45.01    81.08    95.65   152.95
          (Kelvin)            209.03   247.97   282.78   319.37   337.10
                              350.80   369.75   413.58   422.75   506.35
                              525.12   614.69   627.35   657.75   676.86
                              700.67   767.71   788.08   805.73   888.19
                              915.11   993.66  1042.46  1104.21  1115.02
                             1130.01  1158.56  1207.33  1259.10  1267.54
                             1278.70  1305.05  1361.42  1381.32  1388.87
                             1408.20  1439.81  1451.62  1463.64  1503.17
                             1532.38  1557.65  1586.62  1617.98  1648.29
                             1652.20  1672.51  1706.89  1724.86  1734.41
                             1741.18  1776.53  1799.82  1873.08  1886.74
                             1916.90  1921.64  1942.71  1953.59  1965.59
                             1976.66  1992.30  2007.15  2015.11  2035.18
                             2056.56  2069.06  2075.01  2172.64  2176.84
                             2180.13  2188.19  2190.05  2197.77  2203.22
                             2210.07  2215.23  2227.12  2372.55  2400.24
                             2438.57  4219.66  4311.31  4373.90  4376.71
                             4382.50  4394.49  4399.13  4409.31  4422.38
                             4456.85  4463.94  4471.50  4475.48  4483.95
                             4488.82  4491.83  4551.19  4565.66  4585.86
                             4607.97  5105.13  5246.79

 Zero-point correction=                           0.342011 (Hartree/Particle)
 Thermal correction to Energy=                    0.358100
 Thermal correction to Enthalpy=                  0.359044
 Thermal correction to Gibbs Free Energy=         0.297822
 Sum of electronic and zero-point Energies=           -655.974333
 Sum of electronic and thermal Energies=              -655.958245
 Sum of electronic and thermal Enthalpies=            -655.957300
 Sum of electronic and thermal Free Energies=         -656.018523

                     E (Thermal)             CV                S
                      KCal/Mol        Cal/Mol-Kelvin    Cal/Mol-Kelvin
 Total                  224.711             62.899            128.854
 Electronic               0.000              0.000              0.000
 Translational            0.889              2.981             42.043
 Rotational               0.889              2.981             32.720
 Vibrational            222.934             56.938             54.090
 Vibration     1          0.593              1.984              5.947
 Vibration     2          0.594              1.983              5.746
 Vibration     3          0.596              1.975              4.581
 Vibration     4          0.598              1.970              4.255
 Vibration     5          0.605              1.944              3.335
 Vibration     6          0.617              1.908              2.733
 Vibration     7          0.626              1.877              2.410
 Vibration     8          0.636              1.845              2.165
 Vibration     9          0.648              1.808              1.943
 Vibration    10          0.654              1.788              1.846
 Vibration    11          0.659              1.773              1.775
 Vibration    12          0.667              1.751              1.682
 Vibration    13          0.685              1.697              1.489
 Vibration    14          0.689              1.685              1.452
 Vibration    15          0.728              1.571              1.158
 Vibration    16          0.738              1.544              1.101
 Vibration    17          0.789              1.411              0.868
 Vibration    18          0.796              1.392              0.839
 Vibration    19          0.815              1.345              0.774
 Vibration    20          0.827              1.316              0.736
 Vibration    21          0.843              1.279              0.691
 Vibration    22          0.889              1.176              0.579
 Vibration    23          0.903              1.145              0.549
 Vibration    24          0.916              1.118              0.524
 Vibration    25          0.977              0.995              0.421

 Optimization completed.
    -- Stationary point found.
 Normal termination of Gaussian 16 at Fri Dec 11 00:06:07 2020.

 ----------------------------------------------------------------------
 # B3LYP/6-311++G(d,p) empiricaldispersion=gd3bj scf=xqc pop=npa geom=c
 heck
 ----------------------------------------------------------------------

 --------------------------------------
 CID_83227406_JID_6599_Energie_neutraal
 --------------------------------------
 Structure from the checkpoint file:  "JID_6599.chk"
 Charge =  0 Multiplicity = 1

 SCF Done:  E(RB3LYP) =  -656.497350558     A.U. after   14 cycles
 Normal termination of Gaussian 16 at Fri Dec 11 00:11:57 2020.

 ----------------------------------------------------------------------
 # B3LYP/6-311++G(d,p) empiricaldispersion=gd3bj scf=xqc pop=npa geom=c
 heck
 ----------------------------------------------------------------------

 ------------------------------------
 CID_83227406_JID_6599_Energie_kation
 ------------------------------------
 Structure from the checkpoint file:  "JID_6599.chk"
 Charge =  1 Multiplicity = 2

 SCF Done:  E(UB3LYP) =  -656.231206648     A.U. after   24 cycles
 Normal termination of Gaussian 16 at Fri Dec 11 00:25:53 2020.
 Gaussian 16:  ES64L-G16RevA.03 25-Dec-2016

 ----------------------------------------------------------------------
 # B3LYP/6-311++G(d,p) empiricaldispersion=gd3bj scf=xqc pop=npa geom=c
 heck
 ----------------------------------------------------------------------

 -----------------------------------
 CID_83227406_JID_6599_Energie_anion
 -----------------------------------
 Structure from the checkpoint file:  "JID_6599.chk"
 Charge = -1 Multiplicity = 2

                         Standard orientation:
 ---------------------------------------------------------------------
 Center     Atomic      Atomic             Coordinates (Angstroms)
 Number     Number       Type             X           Y           Z
 ---------------------------------------------------------------------
      1          6           0       -3.298637   -2.549562   -0.257902
      2          6           0       -2.618103   -1.487893    0.610283
      3          6           0       -1.852044   -0.448849   -0.210195
      4          6           0       -2.734456    0.394327   -1.135401
      5          6           0       -1.846899    1.607686   -1.443675
      6          6           0       -0.980270    1.793658   -0.172977
      7          7           0       -1.236204    0.582979    0.633330
      8          6           0       -0.139563    0.171188    1.512531
      9          6           0        1.106590   -0.333837    0.806630
     10          6           0        2.152296    0.543874    0.510598
     11          6           0        3.284992    0.120175   -0.202386
     12          6           0        3.357770   -1.218393   -0.618071
     13          6           0        2.324157   -2.100072   -0.313529
     14          6           0        1.202540   -1.670008    0.394581
     15          7           0        4.347165    1.000132   -0.436163
     16          6           0       -1.329261    3.051354    0.623855
     17          1           0       -4.061950   -2.108808   -0.908503
     18          1           0       -3.787855   -3.310460    0.359773
     19          1           0       -2.569844   -3.059449   -0.900098
     20          1           0       -3.357206   -0.961384    1.227641
     21          1           0       -1.932966   -1.987879    1.306727
     22          1           0       -1.098800   -0.975603   -0.827099
     23          1           0       -3.045508   -0.145994   -2.033997
     24          1           0       -3.636854    0.699454   -0.591162
     25          1           0       -2.424605    2.506219   -1.683179
     26          1           0       -1.205464    1.392526   -2.305211
     27          1           0        0.077848    1.848164   -0.471073
     28          1           0        0.118073    1.031244    2.141168
     29          1           0       -0.518376   -0.603326    2.187580
     30          1           0        2.099315    1.574900    0.855550
     31          1           0        4.231551   -1.564109   -1.165475
     32          1           0        2.398772   -3.136574   -0.632034
     33          1           0        0.408494   -2.369912    0.637875
     34          1           0        4.926803    0.758133   -1.230406
     35          1           0        4.085431    1.978045   -0.459493
     36          1           0       -0.764766    3.098345    1.562373
     37          1           0       -1.097898    3.955767    0.048025
     38          1           0       -2.395595    3.057039    0.874807
 ---------------------------------------------------------------------

 SCF Done:  E(UB3LYP) =  -656.484940620     A.U. after   33 cycles
 SCF Done:  E(UB3LYP) =  -656.484940620     a.u. after    1 cycles

 The electronic state is 2-A.
 Alpha  occ. eigenvalues --  -14.21174 -14.20429 -10.11326 -10.10098 -10.09975
 Alpha  occ. eigenvalues --  -10.09971 -10.07884 -10.07596 -10.07462 -10.07342
 Alpha  occ. eigenvalues --  -10.07319 -10.07207 -10.06716 -10.06669 -10.06462
 Alpha  occ. eigenvalues --  -10.06391  -0.83888  -0.81625  -0.74355  -0.70234
 Alpha  occ. eigenvalues --   -0.69225  -0.65135  -0.64418  -0.62854  -0.58444
 Alpha  occ. eigenvalues --   -0.56715  -0.52915  -0.50960  -0.49695  -0.47363
 Alpha  occ. eigenvalues --   -0.45703  -0.41691  -0.40959  -0.40136  -0.37980
 Alpha  occ. eigenvalues --   -0.37706  -0.36613  -0.36166  -0.33982  -0.33523
 Alpha  occ. eigenvalues --   -0.32304  -0.31819  -0.31179  -0.30629  -0.29154
 Alpha  occ. eigenvalues --   -0.28961  -0.27950  -0.27843  -0.27065  -0.26187
 Alpha  occ. eigenvalues --   -0.24952  -0.24718  -0.24063  -0.23322  -0.23011
 Alpha  occ. eigenvalues --   -0.22752  -0.21038  -0.15244  -0.11690  -0.10941
 Alpha  occ. eigenvalues --    0.04166
 Alpha virt. eigenvalues --    0.05642   0.06586   0.07324   0.07612   0.07974
 Alpha virt. eigenvalues --    0.08484   0.08907   0.09162   0.09671   0.09897
 Alpha virt. eigenvalues --    0.10263   0.10565   0.11381   0.11672   0.12018

  Beta  occ. eigenvalues --  -14.21104 -14.20427 -10.11317 -10.10094 -10.09974
  Beta  occ. eigenvalues --  -10.09965 -10.07881 -10.07591 -10.07454 -10.07333
  Beta  occ. eigenvalues --  -10.07310 -10.07185 -10.06697 -10.06653 -10.06452
  Beta  occ. eigenvalues --  -10.06376  -0.83879  -0.81545  -0.74321  -0.70217
  Beta  occ. eigenvalues --   -0.69206  -0.65113  -0.64395  -0.62796  -0.58419
  Beta  occ. eigenvalues --   -0.56686  -0.52878  -0.50922  -0.49641  -0.47332
  Beta  occ. eigenvalues --   -0.45671  -0.41643  -0.40914  -0.40102  -0.37922
  Beta  occ. eigenvalues --   -0.37674  -0.36587  -0.36143  -0.33950  -0.33490
  Beta  occ. eigenvalues --   -0.32275  -0.31793  -0.31156  -0.30606  -0.29131
  Beta  occ. eigenvalues --   -0.28941  -0.27916  -0.27816  -0.27039  -0.26156
  Beta  occ. eigenvalues --   -0.24930  -0.24695  -0.24048  -0.23306  -0.22990
  Beta  occ. eigenvalues --   -0.22737  -0.20992  -0.15226  -0.11675  -0.10883
  Beta virt. eigenvalues --    0.05967   0.06801   0.07168   0.07446   0.08230
  Beta virt. eigenvalues --    0.08438   0.08642   0.09024   0.09314   0.09876
  Beta virt. eigenvalues --    0.10208   0.10641   0.10719   0.11542   0.11848

 Mulliken charges and spin densities:
               1          2
     1  C    0.485163  -1.176216
     2  C   -0.805848   1.127044
     3  C   -0.140359  -0.427269
     4  C   -0.362080  -0.208506
     5  C    0.028959  -0.577294
     6  C   -0.729214   0.804366
     7  N    0.458825   0.047644
     8  C    0.594034  -1.500693
     9  C    0.819020   0.069441
    10  C   -0.576882   0.459752
    11  C   -0.273273  -0.066745
    12  C    0.692654  -0.689661
    13  C   -0.110719  -0.207773
    14  C   -0.388268   0.020824
    15  N   -0.233573  -0.062514
    16  C    0.524519  -1.119452
    17  H   -0.071341   0.215510
    18  H   -0.242799   0.390682
    19  H   -0.120842   0.264769
    20  H    0.119768   0.036596
    21  H   -0.075184   0.184098
    22  H    0.448167  -0.274726
    23  H    0.044684   0.105539
    24  H    0.046326   0.098079
    25  H    0.102358   0.069064
    26  H   -0.118390   0.281075
    27  H    0.054239   0.106375
    28  H    0.149355  -0.005848
    29  H    0.120966   0.042832
    30  H   -0.310994   0.493222
    31  H   -0.323523   0.474427
    32  H   -0.177454   0.342590
    33  H    0.128947   0.017373
    34  H   -0.354045   0.610736
    35  H   -0.326481   0.573972
    36  H   -0.034797   0.156617
    37  H   -0.119647   0.256938
    38  H    0.077730   0.067131
 Sum of Mulliken charges =  -1.00000   1.00000

 Dipole moment (field-independent basis, Debye):
    X=             -6.4354    Y=             -1.2383    Z=              2.4670  Tot=              7.0024
 Quadrupole moment (field-independent basis, Debye-Ang):
   XX=           -192.3556   YY=           -154.3118   ZZ=           -131.6953
   XY=            -17.0865   XZ=              9.2305   YZ=              1.1869

 Summary of Natural Population Analysis:

                                       Natural Population
                Natural  -----------------------------------------------
    Atom  No    Charge         Core      Valence    Rydberg      Total
 -----------------------------------------------------------------------
      C    1   -0.28615      0.99967     2.28170    0.00478     3.28615
      C    2   -0.19263      0.99961     2.18357    0.00945     3.19263
      C    3   -0.00587      0.99958     1.99415    0.01214     3.00587
      C    4   -0.19121      0.99961     2.18337    0.00823     3.19121
      C    5   -0.18989      0.99962     2.18286    0.00742     3.18989
      C    6   -0.00903      0.99960     1.99730    0.01213     3.00903
      N    7   -0.28205      0.99969     2.77052    0.01185     3.78205
      C    8   -0.08872      0.99957     2.07777    0.01137     3.08872
      C    9   -0.01747      0.99950     2.00875    0.00922     3.01747
      C   10   -0.12532      0.99947     2.11606    0.00979     3.12532
      C   11    0.09030      0.99949     1.89847    0.01175     2.90970
      C   12   -0.12667      0.99952     2.11722    0.00993     3.12667
      C   13   -0.09072      0.99957     2.08121    0.00994     3.09072
      C   14   -0.12700      0.99951     2.11801    0.00949     3.12700
      N   15   -0.39435      0.99972     2.88393    0.01071     3.89435
      C   16   -0.28465      0.99964     2.27868    0.00633     3.28465
      H   17    0.09611      0.00000     0.40296    0.00092     0.40389
      H   18    0.09885      0.00000     0.40032    0.00083     0.40115
      H   19    0.09784      0.00000     0.40112    0.00104     0.40216
      H   20    0.09624      0.00000     0.40238    0.00138     0.40376
      H   21    0.09543      0.00000     0.40326    0.00131     0.40457
      H   22    0.08705      0.00000     0.41086    0.00209     0.41295
      H   23    0.10103      0.00000     0.39820    0.00077     0.39897
      H   24    0.09521      0.00000     0.40358    0.00121     0.40479
      H   25    0.09818      0.00000     0.40098    0.00083     0.40182
      H   26    0.10030      0.00000     0.39851    0.00119     0.39970
      H   27    0.09237      0.00000     0.40519    0.00244     0.40763
      H   28    0.09783      0.00000     0.40101    0.00116     0.40217
      H   29    0.09769      0.00000     0.40112    0.00119     0.40231
      H   30    0.09990      0.00000     0.39844    0.00166     0.40010
      H   31    0.10098      0.00000     0.39791    0.00111     0.39902
      H   32    0.09851      0.00000     0.40068    0.00081     0.40149
      H   33    0.09834      0.00000     0.39996    0.00171     0.40166
      H   34    0.18878      0.00000     0.30463    0.00660     0.31122
      H   35    0.18898      0.00000     0.30478    0.00624     0.31102
      H   36    0.09805      0.00000     0.40088    0.00106     0.40195
      H   37    0.09739      0.00000     0.40168    0.00093     0.40261
      H   38    0.09639      0.00000     0.40243    0.00118     0.40361
 =======================================================================
   * Total *    0.00000     15.99336    43.81445    0.19218    60.00000

 Normal termination of Gaussian 16 at Fri Dec 11 00:44:25 2020.
