 Gaussian 16, Revision A.03,

 -----------------------------------------------------------
 # opt freq B3LYP/6-31G(d) empiricaldispersion=gd3bj scf=xqc
 -----------------------------------------------------------

 -------------------------------
 CID_105500447_JID_7010_neutraal
 -------------------------------
 Symbolic Z-matrix:
 Charge =  0 Multiplicity = 1

 SCF Done:  E(RB3LYP) =  -799.524891472     A.U. after   14 cycles
 SCF Done:  E(RB3LYP) =  -799.530833377     A.U. after   12 cycles
 SCF Done:  E(RB3LYP) =  -799.532252193     A.U. after   11 cycles
 SCF Done:  E(RB3LYP) =  -799.532915642     A.U. after   12 cycles
 SCF Done:  E(RB3LYP) =  -799.533112593     A.U. after   11 cycles
 SCF Done:  E(RB3LYP) =  -799.533520366     A.U. after   12 cycles
 SCF Done:  E(RB3LYP) =  -799.533799924     A.U. after   12 cycles
 SCF Done:  E(RB3LYP) =  -799.533932815     A.U. after   12 cycles
 SCF Done:  E(RB3LYP) =  -799.534115649     A.U. after   12 cycles
 SCF Done:  E(RB3LYP) =  -799.534272283     A.U. after   12 cycles
 SCF Done:  E(RB3LYP) =  -799.534959553     A.U. after    8 cycles
 SCF Done:  E(RB3LYP) =  -799.534962164     A.U. after    9 cycles
 SCF Done:  E(RB3LYP) =  -799.534963036     A.U. after    9 cycles
 SCF Done:  E(RB3LYP) =  -799.534963769     A.U. after    9 cycles
 SCF Done:  E(RB3LYP) =  -799.534963974     A.U. after    7 cycles
 Optimization completed.
    -- Stationary point found.
 Normal termination of Gaussian 16 at Sun Dec 13 16:17:43 2020.

 --------------------------------------------------------------------
 #N Geom=AllCheck Guess=TCheck SCRF=Check GenChk RB3LYP/6-31G(d) Freq
 --------------------------------------------------------------------

 Structure from the checkpoint file:  "JID_7010.chk"
 -------------------------------
 CID_105500447_JID_7010_neutraal
 -------------------------------
 Charge =  0 Multiplicity = 1

 SCF Done:  E(RB3LYP) =  -799.534963974     A.U. after    1 cycles

  Exact polarizability: 182.712   4.635 139.279   1.451   0.082 110.718
 Approx polarizability: 221.935   6.227 227.307   4.169  -0.443 163.268

                      1                      2                      3
                      A                      A                      A
 Frequencies --     19.3150                29.1523                62.0192
 Red. masses --      4.0589                 3.0974                 3.8333
 Frc consts  --      0.0009                 0.0016                 0.0087
 IR Inten    --      0.1241                 0.3017                 1.2563

                      4                      5                      6
                      A                      A                      A
 Frequencies --     82.3669                86.2700               117.1270
 Red. masses --      3.9161                 4.0317                 1.6573
 Frc consts  --      0.0157                 0.0177                 0.0134
 IR Inten    --      2.0253                 1.9621                 4.4363

                      7                      8                      9
                      A                      A                      A
 Frequencies --    144.3559               151.5074               166.0870
 Red. masses --      1.2848                 1.9942                 2.4831
 Frc consts  --      0.0158                 0.0270                 0.0404
 IR Inten    --     33.7325                 0.2615                 8.9426

                     10                     11                     12
                      A                      A                      A
 Frequencies --    168.9058               221.1837               222.7172
 Red. masses --      2.8605                 1.2334                 2.3265
 Frc consts  --      0.0481                 0.0356                 0.0680
 IR Inten    --      4.5380                 0.4796                 1.1513

                     13                     14                     15
                      A                      A                      A
 Frequencies --    239.7130               256.9182               274.3212
 Red. masses --      3.3436                 1.1950                 2.6398
 Frc consts  --      0.1132                 0.0465                 0.1170
 IR Inten    --      6.2907                 0.4273                 3.8407

                     16                     17                     18
                      A                      A                      A
 Frequencies --    279.1439               321.7586               366.9871
 Red. masses --      2.5686                 3.8746                 2.7245
 Frc consts  --      0.1179                 0.2363                 0.2162
 IR Inten    --      0.9039                 3.4787                14.9615

                     19                     20                     21
                      A                      A                      A
 Frequencies --    379.3119               401.8130               428.0633
 Red. masses --      3.1112                 3.2742                 3.3950
 Frc consts  --      0.2637                 0.3115                 0.3665
 IR Inten    --     12.5095                 2.3686                 1.4056

                     22                     23                     24
                      A                      A                      A
 Frequencies --    447.8342               492.2539               542.5639
 Red. masses --      3.2975                 3.5678                 4.1994
 Frc consts  --      0.3896                 0.5094                 0.7284
 IR Inten    --      6.1484                 5.0043                 5.3425

                     25                     26                     27
                      A                      A                      A
 Frequencies --    598.3561               606.9940               634.9473
 Red. masses --      4.4952                 3.9045                 3.5364
 Frc consts  --      0.9483                 0.8476                 0.8400
 IR Inten    --      2.0302                 4.6262                 4.6667

                     28                     29                     30
                      A                      A                      A
 Frequencies --    650.5362               676.9193               704.9234
 Red. masses --      4.9958                 3.4446                 4.4138
 Frc consts  --      1.2456                 0.9300                 1.2923
 IR Inten    --     26.4836                 3.7337                 7.8471

                     31                     32                     33
                      A                      A                      A
 Frequencies --    762.0145               778.1823               813.2320
 Red. masses --     11.3055                 2.8917                 3.7502
 Frc consts  --      3.8678                 1.0317                 1.4613
 IR Inten    --     21.2675                70.7983                63.6152

                     34                     35                     36
                      A                      A                      A
 Frequencies --    816.6866               830.3334               910.6086
 Red. masses --      1.8919                 2.9140                 2.4680
 Frc consts  --      0.7435                 1.1837                 1.2058
 IR Inten    --     90.2389                24.4177                 6.2852

                     37                     38                     39
                      A                      A                      A
 Frequencies --    944.6385               949.5086               963.5593
 Red. masses --      2.5971                 1.1969                 1.4897
 Frc consts  --      1.3655                 0.6358                 0.8149
 IR Inten    --      6.8556                 0.9855                 0.1108

                     40                     41                     42
                      A                      A                      A
 Frequencies --    971.2461               995.5047              1027.8659
 Red. masses --      2.1886                 2.8439                 2.2342
 Frc consts  --      1.2164                 1.6605                 1.3908
 IR Inten    --      4.5622                27.0606                14.0157

                     43                     44                     45
                      A                      A                      A
 Frequencies --   1075.4326              1096.0576              1117.6038
 Red. masses --      2.4548                 2.0973                 3.2115
 Frc consts  --      1.6728                 1.4845                 2.3634
 IR Inten    --     10.7381                 6.3984                20.5821

                     46                     47                     48
                      A                      A                      A
 Frequencies --   1159.4624              1161.7331              1184.2943
 Red. masses --      2.4468                 2.1510                 1.7838
 Frc consts  --      1.9381                 1.7104                 1.4741
 IR Inten    --     69.3425                 3.9481                 4.9970

                     49                     50                     51
                      A                      A                      A
 Frequencies --   1190.0486              1201.3678              1220.9679
 Red. masses --      1.2648                 2.5545                 1.3895
 Frc consts  --      1.0553                 2.1723                 1.2205
 IR Inten    --      0.7851                 3.7453                 2.4996

                     52                     53                     54
                      A                      A                      A
 Frequencies --   1224.1390              1228.7934              1244.9857
 Red. masses --      1.4553                 2.0190                 2.3076
 Frc consts  --      1.2849                 1.7962                 2.1073
 IR Inten    --     68.9506                 1.2032                29.4211

                     55                     56                     57
                      A                      A                      A
 Frequencies --   1269.9900              1290.0397              1319.1471
 Red. masses --      1.9939                 1.9120                 3.1344
 Frc consts  --      1.8947                 1.8747                 3.2136
 IR Inten    --    452.7436                27.5085                43.9443

                     58                     59                     60
                      A                      A                      A
 Frequencies --   1363.3840              1376.8818              1382.4304
 Red. masses --      1.5057                 1.3412                 1.6523
 Frc consts  --      1.6490                 1.4981                 1.8605
 IR Inten    --     12.6925                 5.6100                36.6279

                     61                     62                     63
                      A                      A                      A
 Frequencies --   1408.3461              1417.4897              1425.3744
 Red. masses --      1.6904                 1.4587                 1.2842
 Frc consts  --      1.9754                 1.7268                 1.5372
 IR Inten    --      2.2378                17.9883                 9.0772

                     64                     65                     66
                      A                      A                      A
 Frequencies --   1442.3769              1454.3075              1460.0749
 Red. masses --      1.3618                 2.2129                 1.9754
 Frc consts  --      1.6692                 2.7576                 2.4812
 IR Inten    --     12.9341               141.6472                71.2836

                     67                     68                     69
                      A                      A                      A
 Frequencies --   1500.3011              1507.7942              1510.1448
 Red. masses --      1.2698                 1.1423                 1.0429
 Frc consts  --      1.6840                 1.5301                 1.4014
 IR Inten    --     49.4009                 9.3764                 0.5413

                     70                     71                     72
                      A                      A                      A
 Frequencies --   1511.8324              1515.2561              1520.7566
 Red. masses --      1.0494                 1.5341                 1.0491
 Frc consts  --      1.4132                 2.0753                 1.4295
 IR Inten    --      5.6685                20.8120                 1.4413

                     73                     74                     75
                      A                      A                      A
 Frequencies --   1524.8995              1528.3695              1534.3850
 Red. masses --      1.0712                 1.0795                 1.5795
 Frc consts  --      1.4676                 1.4857                 2.1910
 IR Inten    --     13.3320                32.3680                38.0651

                     76                     77                     78
                      A                      A                      A
 Frequencies --   1538.4126              1540.5300              1552.0548
 Red. masses --      1.6334                 1.3206                 3.1867
 Frc consts  --      2.2776                 1.8465                 4.5228
 IR Inten    --     31.3789                16.0935                50.8966

                     79                     80                     81
                      A                      A                      A
 Frequencies --   1633.0479              1697.1454              1801.0482
 Red. masses --      4.0647                 1.2855                10.8456
 Frc consts  --      6.3867                 2.1814                20.7278
 IR Inten    --     56.6048                52.1457               382.0052

                     82                     83                     84
                      A                      A                      A
 Frequencies --   3003.4590              3043.9269              3053.6170
 Red. masses --      1.0737                 1.0656                 1.0353
 Frc consts  --      5.7066                 5.8172                 5.6876
 IR Inten    --     56.1674                20.9647                21.7726

                     85                     86                     87
                      A                      A                      A
 Frequencies --   3059.9581              3064.5126              3073.4497
 Red. masses --      1.0711                 1.0363                 1.0293
 Frc consts  --      5.9088                 5.7340                 5.7284
 IR Inten    --     35.0086                21.3370                45.5216

                     88                     89                     90
                      A                      A                      A
 Frequencies --   3083.2520              3092.3366              3121.0410
 Red. masses --      1.0849                 1.0990                 1.1027
 Frc consts  --      6.0767                 6.1920                 6.3288
 IR Inten    --      7.0813                32.4749                32.5565

                     91                     92                     93
                      A                      A                      A
 Frequencies --   3124.0746              3132.7628              3139.8561
 Red. masses --      1.0890                 1.1025                 1.1027
 Frc consts  --      6.2621                 6.3752                 6.4052
 IR Inten    --      3.4286                29.9064                20.5291

                     94                     95                     96
                      A                      A                      A
 Frequencies --   3147.5808              3154.9562              3174.4042
 Red. masses --      1.1076                 1.1020                 1.1071
 Frc consts  --      6.4650                 6.4628                 6.5731
 IR Inten    --     23.5759                19.1918                21.1933

                     97                     98                     99
                      A                      A                      A
 Frequencies --   3178.1447              3494.2336              3597.8505
 Red. masses --      1.0939                 1.0527                 1.0909
 Frc consts  --      6.5097                 7.5728                 8.3199
 IR Inten    --     10.4520                 2.8147                 8.3517

 - Thermochemistry -
 -------------------
 Temperature   298.150 Kelvin.  Pressure   1.00000 Atm.
 Atom     1 has atomic number  6 and mass  12.00000

 Molecular mass:   238.14298 amu.
 Principal axes and moments of inertia in atomic units:
                           1         2         3
     Eigenvalues --  1728.340147541.165447997.98820
           X            0.99999   0.00400   0.00293
           Y           -0.00399   0.99999  -0.00067
           Z           -0.00293   0.00065   1.00000
 This molecule is an asymmetric top.
 Rotational symmetry number  1.
 Warning -- assumption of classical behavior for rotation
           may cause significant error
 Rotational temperatures (Kelvin)      0.05011     0.01149     0.01083
 Rotational constants (GHZ):           1.04420     0.23932     0.22565
 Zero-point vibrational energy     785993.6 (Joules/Mol)
                                  187.85698 (Kcal/Mol)
 Warning -- explicit consideration of  26 degrees of freedom as
           vibrations may cause significant error
 Vibrational temperatures:     27.79    41.94    89.23   118.51   124.12
          (Kelvin)            168.52   207.70   217.99   238.96   243.02
                              318.23   320.44   344.89   369.65   394.69
                              401.63   462.94   528.01   545.75   578.12
                              615.89   644.33   708.24   780.63   860.90
                              873.33   913.55   935.98   973.94  1014.23
                             1096.37  1119.63  1170.06  1175.03  1194.66
                             1310.16  1359.12  1366.13  1386.35  1397.41
                             1432.31  1478.87  1547.31  1576.98  1607.98
                             1668.21  1671.47  1703.94  1712.21  1728.50
                             1756.70  1761.26  1767.96  1791.26  1827.23
                             1856.08  1897.96  1961.61  1981.03  1989.01
                             2026.30  2039.45  2050.80  2075.26  2092.42
                             2100.72  2158.60  2169.38  2172.76  2175.19
                             2180.12  2188.03  2193.99  2198.98  2207.64
                             2213.43  2216.48  2233.06  2349.59  2441.81
                             2591.31  4321.31  4379.53  4393.47  4402.60
                             4409.15  4422.01  4436.11  4449.18  4490.48
                             4494.85  4507.35  4517.55  4528.67  4539.28
                             4567.26  4572.64  5027.42  5176.50

 Zero-point correction=                           0.299369 (Hartree/Particle)
 Thermal correction to Energy=                    0.316725
 Thermal correction to Enthalpy=                  0.317670
 Thermal correction to Gibbs Free Energy=         0.252978
 Sum of electronic and zero-point Energies=           -799.235595
 Sum of electronic and thermal Energies=              -799.218239
 Sum of electronic and thermal Enthalpies=            -799.217294
 Sum of electronic and thermal Free Energies=         -799.281986

                     E (Thermal)             CV                S
                      KCal/Mol        Cal/Mol-Kelvin    Cal/Mol-Kelvin
 Total                  198.748             64.071            136.155
 Electronic               0.000              0.000              0.000
 Translational            0.889              2.981             42.304
 Rotational               0.889              2.981             33.011
 Vibrational            196.971             58.109             60.840
 Vibration     1          0.593              1.986              6.703
 Vibration     2          0.593              1.984              5.886
 Vibration     3          0.597              1.972              4.392
 Vibration     4          0.600              1.961              3.834
 Vibration     5          0.601              1.959              3.743
 Vibration     6          0.608              1.935              3.147
 Vibration     7          0.616              1.909              2.745
 Vibration     8          0.619              1.901              2.653
 Vibration     9          0.624              1.884              2.479
 Vibration    10          0.625              1.881              2.448
 Vibration    11          0.648              1.809              1.949
 Vibration    12          0.648              1.806              1.937
 Vibration    13          0.657              1.780              1.805
 Vibration    14          0.667              1.751              1.683
 Vibration    15          0.677              1.721              1.569
 Vibration    16          0.679              1.712              1.539
 Vibration    17          0.707              1.632              1.301
 Vibration    18          0.740              1.540              1.092
 Vibration    19          0.749              1.514              1.042
 Vibration    20          0.767              1.466              0.956
 Vibration    21          0.790              1.409              0.865
 Vibration    22          0.807              1.366              0.802
 Vibration    23          0.848              1.267              0.678
 Vibration    24          0.898              1.156              0.560
 Vibration    25          0.956              1.035              0.452
 Vibration    26          0.966              1.017              0.438

                           ! Non-Optimized Parameters !
 Normal termination of Gaussian 16 at Sun Dec 13 16:30:37 2020.

 ----------------------------------------------------------------------
 # B3LYP/6-311++G(d,p) empiricaldispersion=gd3bj scf=xqc pop=npa geom=c
 heck
 ----------------------------------------------------------------------

 ---------------------------------------
 CID_105500447_JID_7010_Energie_neutraal
 ---------------------------------------
 Structure from the checkpoint file:  "JID_7010.chk"
 Charge =  0 Multiplicity = 1

 SCF Done:  E(RB3LYP) =  -799.762648844     A.U. after   15 cycles
 Normal termination of Gaussian 16 at Sun Dec 13 16:36:47 2020.

 ----------------------------------------------------------------------
 # B3LYP/6-311++G(d,p) empiricaldispersion=gd3bj scf=xqc pop=npa geom=c
 heck
 ----------------------------------------------------------------------

 -------------------------------------
 CID_105500447_JID_7010_Energie_kation
 -------------------------------------
 Structure from the checkpoint file:  "JID_7010.chk"
 Charge =  1 Multiplicity = 2

 SCF Done:  E(UB3LYP) =  -799.476498503     A.U. after   26 cycles
 Normal termination of Gaussian 16 at Sun Dec 13 16:52:54 2020.
 Gaussian 16:  ES64L-G16RevA.03 25-Dec-2016

 ----------------------------------------------------------------------
 # B3LYP/6-311++G(d,p) empiricaldispersion=gd3bj scf=xqc pop=npa geom=c
 heck
 ----------------------------------------------------------------------

 ------------------------------------
 CID_105500447_JID_7010_Energie_anion
 ------------------------------------
 Structure from the checkpoint file:  "JID_7010.chk"
 Charge = -1 Multiplicity = 2

                         Standard orientation:
 ---------------------------------------------------------------------
 Center     Atomic      Atomic             Coordinates (Angstroms)
 Number     Number       Type             X           Y           Z
 ---------------------------------------------------------------------
      1          6           0        3.877784   -0.078926    1.923111
      2          6           0        3.740390    0.048558    0.402291
      3          6           0        4.537438   -1.021815   -0.345344
      4          7           0        2.332488   -0.008663    0.014145
      5          6           0        1.531892    1.031343   -0.361873
      6          6           0        0.276668    0.494065   -0.606018
      7          6           0       -1.014100    1.118868   -1.053460
      8          7           0       -2.104055    0.163322   -0.834488
      9          6           0       -1.829263   -1.206705   -1.280035
     10          6           0       -0.718665   -1.855324   -0.433583
     11          6           0        0.420851   -0.884884   -0.327622
     12          7           0        1.654534   -1.191937    0.065093
     13          6           0       -3.020755    0.454621    0.139070
     14          8           0       -3.155405    1.540447    0.680174
     15          8           0       -3.805502   -0.621887    0.422709
     16          6           0       -4.829724   -0.365454    1.389339
     17          7           0        2.038612    2.335113   -0.494875
     18          1           0        3.479755   -1.043843    2.251592
     19          1           0        3.319778    0.712010    2.436521
     20          1           0        4.929268   -0.010691    2.222447
     21          1           0        4.082759    1.037847    0.081138
     22          1           0        4.173125   -2.017897   -0.081873
     23          1           0        4.435454   -0.893188   -1.427188
     24          1           0        5.598177   -0.949669   -0.082446
     25          1           0       -0.991705    1.378453   -2.122889
     26          1           0       -1.261390    2.026096   -0.497430
     27          1           0       -2.751772   -1.782480   -1.239572
     28          1           0       -1.509696   -1.144904   -2.327453
     29          1           0       -1.119895   -2.092230    0.560696
     30          1           0       -0.394810   -2.800485   -0.884374
     31          1           0       -4.394080   -0.047910    2.340213
     32          1           0       -5.511230    0.412868    1.035784
     33          1           0       -5.359067   -1.311887    1.507791
     34          1           0        1.349327    2.950403   -0.914322
     35          1           0        2.327105    2.738114    0.393923
 ---------------------------------------------------------------------

 SCF Done:  E(UB3LYP) =  -799.752642153     A.U. after   33 cycles
 SCF Done:  E(UB3LYP) =  -799.752642153     a.u. after    1 cycles

 The electronic state is 2-A.
 Alpha  occ. eigenvalues --  -19.07488 -19.00169 -14.27468 -14.25104 -14.21925
 Alpha  occ. eigenvalues --  -14.21563 -10.22419 -10.13628 -10.13575 -10.12096
 Alpha  occ. eigenvalues --  -10.11894 -10.11385 -10.09049 -10.08484 -10.06999
 Alpha  occ. eigenvalues --  -10.06727 -10.06112  -1.01881  -0.94286  -0.92325
 Alpha  occ. eigenvalues --   -0.85715  -0.81220  -0.75523  -0.69199  -0.68169
 Alpha  occ. eigenvalues --   -0.65945  -0.63935  -0.59897  -0.58569  -0.56705
 Alpha  occ. eigenvalues --   -0.50968  -0.49537  -0.47000  -0.46056  -0.43458
 Alpha  occ. eigenvalues --   -0.41004  -0.40736  -0.39686  -0.39056  -0.37334
 Alpha  occ. eigenvalues --   -0.36585  -0.35988  -0.35093  -0.34851  -0.33809
 Alpha  occ. eigenvalues --   -0.33647  -0.32349  -0.31500  -0.30076  -0.29572
 Alpha  occ. eigenvalues --   -0.28884  -0.28345  -0.28076  -0.27910  -0.26243
 Alpha  occ. eigenvalues --   -0.25583  -0.25241  -0.21594  -0.21080  -0.19132
 Alpha  occ. eigenvalues --   -0.18449  -0.15789  -0.13630  -0.11462   0.04053
 Alpha virt. eigenvalues --    0.05504   0.06790   0.07121   0.08127   0.08726
 Alpha virt. eigenvalues --    0.09009   0.09490   0.09846   0.10142   0.10372
 Alpha virt. eigenvalues --    0.11006   0.11607   0.11809   0.12247   0.12762

  Beta  occ. eigenvalues --  -19.07485 -19.00164 -14.27469 -14.25103 -14.21836
  Beta  occ. eigenvalues --  -14.21559 -10.22419 -10.13602 -10.13568 -10.12082
  Beta  occ. eigenvalues --  -10.11885 -10.11361 -10.09049 -10.08478 -10.06989
  Beta  occ. eigenvalues --  -10.06698 -10.06109  -1.01874  -0.94278  -0.92317
  Beta  occ. eigenvalues --   -0.85706  -0.81102  -0.75503  -0.69180  -0.68132
  Beta  occ. eigenvalues --   -0.65913  -0.63900  -0.59855  -0.58529  -0.56682
  Beta  occ. eigenvalues --   -0.50930  -0.49514  -0.46950  -0.46035  -0.43375
  Beta  occ. eigenvalues --   -0.40965  -0.40716  -0.39664  -0.38992  -0.37303
  Beta  occ. eigenvalues --   -0.36552  -0.35948  -0.35073  -0.34822  -0.33788
  Beta  occ. eigenvalues --   -0.33624  -0.32326  -0.31476  -0.30057  -0.29552
  Beta  occ. eigenvalues --   -0.28865  -0.28322  -0.28051  -0.27892  -0.26224
  Beta  occ. eigenvalues --   -0.25551  -0.25210  -0.21584  -0.21016  -0.19121
  Beta  occ. eigenvalues --   -0.18426  -0.15776  -0.13624  -0.11419
  Beta virt. eigenvalues --    0.05970   0.06589   0.07284   0.07749   0.08445
  Beta virt. eigenvalues --    0.08975   0.09226   0.09871   0.10052   0.10334
  Beta virt. eigenvalues --    0.10694   0.11176   0.11707   0.12140   0.12405

 Mulliken charges and spin densities:
               1          2
     1  C    0.514843  -0.934717
     2  C   -1.013620   0.763197
     3  C    0.189688  -0.686941
     4  N    0.655629  -0.138571
     5  C    0.303311  -0.371187
     6  C   -0.184254   1.045102
     7  C    0.033236  -1.471264
     8  N    0.003432   0.084213
     9  C   -0.047947  -0.337518
    10  C   -0.251057  -0.040031
    11  C    0.790658  -0.882259
    12  N   -0.324876   0.087888
    13  C   -0.074031   0.030079
    14  O   -0.311907   0.011055
    15  O   -0.180974   0.045953
    16  C    0.499228  -0.695121
    17  N   -0.523086   0.132742
    18  H    0.086101   0.071662
    19  H   -0.177254   0.337791
    20  H   -0.146812   0.277195
    21  H   -0.215433   0.390028
    22  H    0.142962   0.014997
    23  H    0.041764   0.113225
    24  H   -0.037664   0.166181
    25  H   -0.252543   0.453789
    26  H    0.174358   0.065858
    27  H    0.006772   0.234210
    28  H    0.101785   0.047840
    29  H    0.145204   0.033977
    30  H    0.057300   0.097651
    31  H   -0.022633   0.200127
    32  H   -0.024109   0.196321
    33  H   -0.226496   0.364545
    34  H   -0.311929   0.591952
    35  H   -0.419646   0.700030
 Sum of Mulliken charges =  -1.00000   1.00000

 Dipole moment (field-independent basis, Debye):
    X=             -2.1104    Y=             -5.7708    Z=             -1.8100  Tot=              6.4056
 Quadrupole moment (field-independent basis, Debye-Ang):
   XX=           -182.4469   YY=           -153.8156   ZZ=           -133.2493
   XY=            -10.8213   XZ=              0.1297   YZ=             -0.5967

 Summary of Natural Population Analysis:

                                       Natural Population
                Natural  -----------------------------------------------
    Atom  No    Charge         Core      Valence    Rydberg      Total
 -----------------------------------------------------------------------
      C    1   -0.28740      0.99964     2.28183    0.00592     3.28740
      C    2   -0.00911      0.99960     1.99677    0.01274     3.00911
      C    3   -0.28638      0.99964     2.28215    0.00459     3.28638
      N    4   -0.12056      0.99961     2.60597    0.01498     3.62056
      C    5    0.18782      0.99943     1.79877    0.01397     2.81218
      C    6   -0.10264      0.99940     2.09302    0.01022     3.10264
      C    7   -0.08616      0.99958     2.07566    0.01092     3.08616
      N    8   -0.25928      0.99965     2.74871    0.01092     3.75928
      C    9   -0.08077      0.99962     2.07192    0.00923     3.08077
      C   10   -0.20630      0.99959     2.19903    0.00768     3.20630
      C   11    0.08023      0.99952     1.90646    0.01379     2.91977
      N   12   -0.17160      0.99969     2.66121    0.01070     3.67160
      C   13    0.46703      0.99964     1.50912    0.02420     2.53297
      O   14   -0.33319      0.99987     3.32792    0.00540     4.33319
      O   15   -0.28882      0.99986     3.28073    0.00823     4.28882
      C   16   -0.09910      0.99960     2.09116    0.00834     3.09910
      N   17   -0.40714      0.99973     2.89778    0.00963     3.90714
      H   18    0.10297      0.00000     0.39599    0.00104     0.39703
      H   19    0.10446      0.00000     0.39433    0.00120     0.39554
      H   20    0.09831      0.00000     0.40084    0.00085     0.40169
      H   21    0.10663      0.00000     0.39073    0.00263     0.39337
      H   22    0.10642      0.00000     0.39244    0.00114     0.39358
      H   23    0.10252      0.00000     0.39661    0.00087     0.39748
      H   24    0.09755      0.00000     0.40173    0.00071     0.40245
      H   25    0.09537      0.00000     0.40330    0.00132     0.40463
      H   26    0.12064      0.00000     0.37794    0.00142     0.37936
      H   27    0.11006      0.00000     0.38858    0.00137     0.38994
      H   28    0.09367      0.00000     0.40503    0.00130     0.40633
      H   29    0.10482      0.00000     0.39358    0.00161     0.39518
      H   30    0.10529      0.00000     0.39328    0.00143     0.39471
      H   31    0.09115      0.00000     0.40730    0.00155     0.40885
      H   32    0.08930      0.00000     0.40918    0.00151     0.41070
      H   33    0.08958      0.00000     0.40888    0.00154     0.41042
      H   34    0.19125      0.00000     0.30412    0.00463     0.30875
      H   35    0.19335      0.00000     0.29645    0.01020     0.30665
 =======================================================================
   * Total *   -0.00000     16.99368    46.78854    0.21778    64.00000

 Normal termination of Gaussian 16 at Sun Dec 13 17:13:07 2020.
