 Gaussian 16, Revision A.03,

 -----------------------------------------------------------
 # opt freq B3LYP/6-31G(d) empiricaldispersion=gd3bj scf=xqc
 -----------------------------------------------------------

 ------------------------------
 CID_62687578_JID_7121_neutraal
 ------------------------------
 Symbolic Z-matrix:
 Charge =  0 Multiplicity = 1

 SCF Done:  E(RB3LYP) =  -829.085146554     A.U. after   16 cycles
 SCF Done:  E(RB3LYP) =  -829.084104433     A.U. after   14 cycles
 SCF Done:  E(RB3LYP) =  -829.097784240     A.U. after   14 cycles
 SCF Done:  E(RB3LYP) =  -829.099175753     A.U. after   13 cycles
 SCF Done:  E(RB3LYP) =  -829.101447403     A.U. after   14 cycles
 SCF Done:  E(RB3LYP) =  -829.103094030     A.U. after   12 cycles
 SCF Done:  E(RB3LYP) =  -829.103823684     A.U. after   13 cycles
 SCF Done:  E(RB3LYP) =  -829.104048704     A.U. after   12 cycles
 SCF Done:  E(RB3LYP) =  -829.104154825     A.U. after   12 cycles
 SCF Done:  E(RB3LYP) =  -829.104199121     A.U. after   10 cycles
 SCF Done:  E(RB3LYP) =  -829.104238733     A.U. after    9 cycles
 SCF Done:  E(RB3LYP) =  -829.104239944     A.U. after    8 cycles
 SCF Done:  E(RB3LYP) =  -829.104240152     A.U. after    8 cycles
 SCF Done:  E(RB3LYP) =  -829.104240186     A.U. after    7 cycles
 Optimization completed.
    -- Stationary point found.
 Normal termination of Gaussian 16 at Mon Dec 14 16:45:23 2020.

 --------------------------------------------------------------------
 #N Geom=AllCheck Guess=TCheck SCRF=Check GenChk RB3LYP/6-31G(d) Freq
 --------------------------------------------------------------------

 Structure from the checkpoint file:  "JID_7121.chk"
 ------------------------------
 CID_62687578_JID_7121_neutraal
 ------------------------------
 Charge =  0 Multiplicity = 1

 SCF Done:  E(RB3LYP) =  -829.104240186     A.U. after    1 cycles

  Exact polarizability: 126.043 -14.505 133.728 -11.137   3.728 124.747
 Approx polarizability: 188.185 -34.754 223.575 -27.669   0.087 216.079

                      1                      2                      3
                      A                      A                      A
 Frequencies --     42.4043                58.7053                71.3447
 Red. masses --      5.6073                10.1298                 3.9766
 Frc consts  --      0.0059                 0.0206                 0.0119
 IR Inten    --      0.8548                 0.6388                 1.0546

                      4                      5                      6
                      A                      A                      A
 Frequencies --     74.2361                86.6542               132.5595
 Red. masses --      5.1661                 3.7184                 3.7182
 Frc consts  --      0.0168                 0.0165                 0.0385
 IR Inten    --      3.8691                 0.7383                 0.9659

                      7                      8                      9
                      A                      A                      A
 Frequencies --    168.5100               183.4565               205.7038
 Red. masses --      6.6442                 5.4823                 2.6616
 Frc consts  --      0.1112                 0.1087                 0.0664
 IR Inten    --      1.2011                 0.6052                 2.0925

                     10                     11                     12
                      A                      A                      A
 Frequencies --    218.9847               260.3892               272.6259
 Red. masses --      1.0892                 1.3022                 4.5262
 Frc consts  --      0.0308                 0.0520                 0.1982
 IR Inten    --      0.0445                 1.0181                 1.4594

                     13                     14                     15
                      A                      A                      A
 Frequencies --    300.3246               317.6926               346.6148
 Red. masses --      2.7979                 2.3018                 4.1897
 Frc consts  --      0.1487                 0.1369                 0.2966
 IR Inten    --      0.5187                10.1315                13.5420

                     16                     17                     18
                      A                      A                      A
 Frequencies --    386.0379               408.2020               421.6244
 Red. masses --      2.2637                 2.5802                 3.1549
 Frc consts  --      0.1988                 0.2533                 0.3304
 IR Inten    --      9.3773                 0.9596                 6.8031

                     19                     20                     21
                      A                      A                      A
 Frequencies --    443.5708               526.1091               540.8950
 Red. masses --      4.4264                 2.9274                 2.2940
 Frc consts  --      0.5131                 0.4774                 0.3954
 IR Inten    --      6.5496                18.3946                 9.6805

                     22                     23                     24
                      A                      A                      A
 Frequencies --    554.4776               601.3563               613.2794
 Red. masses --      2.2372                 6.1046                 7.9457
 Frc consts  --      0.4052                 1.3007                 1.7607
 IR Inten    --     75.3517                20.6851                 6.5347

                     25                     26                     27
                      A                      A                      A
 Frequencies --    662.3375               680.9645               688.6315
 Red. masses --      3.2213                 4.6284                 3.9827
 Frc consts  --      0.8326                 1.2645                 1.1128
 IR Inten    --      3.7083                 4.5182               103.2905

                     28                     29                     30
                      A                      A                      A
 Frequencies --    693.3853               729.9263               759.4089
 Red. masses --      6.4170                 2.2042                 3.8696
 Frc consts  --      1.8177                 0.6919                 1.3148
 IR Inten    --      9.2093                90.3865                23.4514

                     31                     32                     33
                      A                      A                      A
 Frequencies --    791.4633               802.5838               866.4277
 Red. masses --      2.0317                 2.2935                 3.8468
 Frc consts  --      0.7498                 0.8704                 1.7014
 IR Inten    --      5.5725               109.8220                19.9099

                     34                     35                     36
                      A                      A                      A
 Frequencies --    880.0482               903.4886               917.8341
 Red. masses --      1.3707                 2.7185                10.7569
 Frc consts  --      0.6255                 1.3075                 5.3391
 IR Inten    --      0.0808                 5.7746                 6.6806

                     37                     38                     39
                      A                      A                      A
 Frequencies --    950.7481               952.7084               954.4760
 Red. masses --      4.4748                 1.2732                 5.4848
 Frc consts  --      2.3832                 0.6809                 2.9440
 IR Inten    --     13.8378                 2.5682                 8.5125

                     40                     41                     42
                      A                      A                      A
 Frequencies --    966.9254              1046.7487              1073.6775
 Red. masses --      1.5136                 8.0537                 1.4646
 Frc consts  --      0.8338                 5.1991                 0.9947
 IR Inten    --      0.4596                50.5783                 0.2461

                     43                     44                     45
                      A                      A                      A
 Frequencies --   1090.8500              1145.1547              1163.1919
 Red. masses --      1.9120                 2.4163                 2.1613
 Frc consts  --      1.3405                 1.8669                 1.7230
 IR Inten    --      7.6736                19.2712                 5.1223

                     46                     47                     48
                      A                      A                      A
 Frequencies --   1181.3999              1196.8209              1224.4407
 Red. masses --      1.7631                 4.8564                 1.9044
 Frc consts  --      1.4498                 4.0985                 1.6822
 IR Inten    --      2.7209                66.5650                 0.8734

                     49                     50                     51
                      A                      A                      A
 Frequencies --   1254.5668              1285.9584              1351.6947
 Red. masses --      1.7978                 6.4190                 5.8513
 Frc consts  --      1.6672                 6.2541                 6.2988
 IR Inten    --      0.4087                31.1558               106.2074

                     52                     53                     54
                      A                      A                      A
 Frequencies --   1362.5729              1380.9216              1399.8546
 Red. masses --      1.4311                 2.8886                 2.5317
 Frc consts  --      1.5655                 3.2454                 2.9230
 IR Inten    --      1.0710                72.3742                20.6350

                     55                     56                     57
                      A                      A                      A
 Frequencies --   1428.7792              1437.7773              1449.5807
 Red. masses --      1.2650                 1.7987                 1.2874
 Frc consts  --      1.5215                 2.1907                 1.5938
 IR Inten    --      5.9642                17.1351                 7.7328

                     58                     59                     60
                      A                      A                      A
 Frequencies --   1452.4821              1473.3866              1505.4504
 Red. masses --      4.8826                 2.1029                 4.6430
 Frc consts  --      6.0691                 2.6897                 6.1999
 IR Inten    --      7.9710                34.7440                47.4223

                     61                     62                     63
                      A                      A                      A
 Frequencies --   1510.2857              1521.2482              1525.8907
 Red. masses --      1.0481                 1.0536                 1.0516
 Frc consts  --      1.4086                 1.4366                 1.4426
 IR Inten    --      1.9824                 0.2779                 9.3192

                     64                     65                     66
                      A                      A                      A
 Frequencies --   1538.1308              1543.8401              1602.7376
 Red. masses --      5.8667                 1.0913                 6.1922
 Frc consts  --      8.1777                 1.5326                 9.3718
 IR Inten    --     38.6992                 4.1511                60.4785

                     67                     68                     69
                      A                      A                      A
 Frequencies --   1632.0681              1694.1437              1804.2783
 Red. masses --      3.8273                 1.3979                 9.7415
 Frc consts  --      6.0065                 2.3640                18.6846
 IR Inten    --     68.0391                84.5486               381.6605

                     70                     71                     72
                      A                      A                      A
 Frequencies --   3062.9525              3077.2699              3123.7174
 Red. masses --      1.0348                 1.0359                 1.0876
 Frc consts  --      5.7201                 5.7798                 6.2525
 IR Inten    --     16.6479                11.1968                 1.6741

                     73                     74                     75
                      A                      A                      A
 Frequencies --   3133.9957              3146.3636              3154.1339
 Red. masses --      1.1026                 1.1031                 1.1005
 Frc consts  --      6.3808                 6.4343                 6.4507
 IR Inten    --     20.9915                 2.4855                25.6850

                     76                     77                     78
                      A                      A                      A
 Frequencies --   3164.2825              3259.4203              3277.5703
 Red. masses --      1.1024                 1.0927                 1.1019
 Frc consts  --      6.5031                 6.8398                 6.9745
 IR Inten    --     12.3291                 5.9336                 0.6711

                     79                     80                     81
                      A                      A                      A
 Frequencies --   3511.1610              3576.5078              3623.3793
 Red. masses --      1.0510                 1.0755                 1.0953
 Frc consts  --      7.6343                 8.1056                 8.4722
 IR Inten    --    105.5855                48.1178                81.0186

 - Thermochemistry -
 -------------------
 Temperature   298.150 Kelvin.  Pressure   1.00000 Atm.
 Atom     1 has atomic number  6 and mass  12.00000

 Molecular mass:   236.10217 amu.
 Principal axes and moments of inertia in atomic units:
                           1         2         3
     Eigenvalues --  2794.075664237.954234446.37062
           X            0.99912   0.03769   0.01815
           Y           -0.03984   0.98967   0.13775
           Z           -0.01277  -0.13835   0.99030
 This molecule is an asymmetric top.
 Rotational symmetry number  1.
 Warning -- assumption of classical behavior for rotation
           may cause significant error
 Rotational temperatures (Kelvin)      0.03100     0.02044     0.01948
 Rotational constants (GHZ):           0.64592     0.42585     0.40589
 Zero-point vibrational energy     597090.9 (Joules/Mol)
                                  142.70815 (Kcal/Mol)
 Warning -- explicit consideration of  24 degrees of freedom as
           vibrations may cause significant error
 Vibrational temperatures:     61.01    84.46   102.65   106.81   124.68
          (Kelvin)            190.72   242.45   263.95   295.96   315.07
                              374.64   392.25   432.10   457.09   498.70
                              555.42   587.31   606.62   638.20   756.95
                              778.23   797.77   865.22   882.37   952.96
                              979.76   990.79   997.63  1050.20  1092.62
                             1138.74  1154.74  1246.60  1266.19  1299.92
                             1320.56  1367.91  1370.73  1373.28  1391.19
                             1506.04  1544.78  1569.49  1647.62  1673.57
                             1699.77  1721.96  1761.70  1805.04  1850.21
                             1944.79  1960.44  1986.84  2014.08  2055.69
                             2068.64  2085.62  2089.80  2119.87  2166.01
                             2172.96  2188.74  2195.42  2213.03  2221.24
                             2305.98  2348.18  2437.49  2595.95  4406.91
                             4427.51  4494.33  4509.12  4526.92  4538.10
                             4552.70  4689.58  4715.69  5051.78  5145.80
                             5213.23

 Zero-point correction=                           0.227420 (Hartree/Particle)
 Thermal correction to Energy=                    0.242937
 Thermal correction to Enthalpy=                  0.243881
 Thermal correction to Gibbs Free Energy=         0.184378
 Sum of electronic and zero-point Energies=           -828.876820
 Sum of electronic and thermal Energies=              -828.861303
 Sum of electronic and thermal Enthalpies=            -828.860359
 Sum of electronic and thermal Free Energies=         -828.919863

                     E (Thermal)             CV                S
                      KCal/Mol        Cal/Mol-Kelvin    Cal/Mol-Kelvin
 Total                  152.445             58.592            125.236
 Electronic               0.000              0.000              0.000
 Translational            0.889              2.981             42.279
 Rotational               0.889              2.981             32.332
 Vibrational            150.668             52.630             50.626
 Vibration     1          0.595              1.980              5.143
 Vibration     2          0.596              1.974              4.500
 Vibration     3          0.598              1.968              4.116
 Vibration     4          0.599              1.966              4.038
 Vibration     5          0.601              1.958              3.734
 Vibration     6          0.613              1.921              2.909
 Vibration     7          0.625              1.881              2.452
 Vibration     8          0.631              1.862              2.293
 Vibration     9          0.640              1.832              2.081
 Vibration    10          0.647              1.812              1.967
 Vibration    11          0.668              1.745              1.659
 Vibration    12          0.676              1.724              1.580
 Vibration    13          0.693              1.673              1.415
 Vibration    14          0.704              1.640              1.322
 Vibration    15          0.725              1.582              1.182
 Vibration    16          0.755              1.500              1.015
 Vibration    17          0.773              1.452              0.933
 Vibration    18          0.784              1.423              0.886
 Vibration    19          0.803              1.375              0.815
 Vibration    20          0.881              1.192              0.596
 Vibration    21          0.896              1.160              0.563
 Vibration    22          0.910              1.130              0.535
 Vibration    23          0.960              1.029              0.447
 Vibration    24          0.973              1.004              0.427

                           ! Non-Optimized Parameters !
 Normal termination of Gaussian 16 at Mon Dec 14 16:57:29 2020.

 ----------------------------------------------------------------------
 # B3LYP/6-311++G(d,p) empiricaldispersion=gd3bj scf=xqc pop=npa geom=c
 heck
 ----------------------------------------------------------------------

 --------------------------------------
 CID_62687578_JID_7121_Energie_neutraal
 --------------------------------------
 Structure from the checkpoint file:  "JID_7121.chk"
 Charge =  0 Multiplicity = 1

 SCF Done:  E(RB3LYP) =  -829.338008302     A.U. after   17 cycles
 Normal termination of Gaussian 16 at Mon Dec 14 17:03:13 2020.

 ----------------------------------------------------------------------
 # B3LYP/6-311++G(d,p) empiricaldispersion=gd3bj scf=xqc pop=npa geom=c
 heck
 ----------------------------------------------------------------------

 ------------------------------------
 CID_62687578_JID_7121_Energie_kation
 ------------------------------------
 Structure from the checkpoint file:  "JID_7121.chk"
 Charge =  1 Multiplicity = 2

 SCF Done:  E(UB3LYP) =  -829.003544697     A.U. after   33 cycles
 SCF Done:  E(UB3LYP) =  -829.003544702     a.u. after    2 cycles
 Normal termination of Gaussian 16 at Mon Dec 14 17:35:07 2020.
 Gaussian 16:  ES64L-G16RevA.03 25-Dec-2016

 ----------------------------------------------------------------------
 # B3LYP/6-311++G(d,p) empiricaldispersion=gd3bj scf=xqc pop=npa geom=c
 heck
 ----------------------------------------------------------------------

 -----------------------------------
 CID_62687578_JID_7121_Energie_anion
 -----------------------------------
 Structure from the checkpoint file:  "JID_7121.chk"
 Charge = -1 Multiplicity = 2

                         Standard orientation:
 ---------------------------------------------------------------------
 Center     Atomic      Atomic             Coordinates (Angstroms)
 Number     Number       Type             X           Y           Z
 ---------------------------------------------------------------------
      1          6           0        2.571202    2.063493    0.997191
      2          6           0        1.304556    1.488191    0.359306
      3          6           0        0.812013    2.317013   -0.826544
      4          7           0        1.558203    0.098969   -0.061977
      5          6           0        1.105973   -1.066608    0.492368
      6          6           0        1.728431   -2.106328   -0.189780
      7          6           0        2.537526   -1.459777   -1.145538
      8          7           0        2.424388   -0.133317   -1.070520
      9          7           0        0.204107   -1.122303    1.562437
     10          6           0       -1.099930   -0.661927    1.616530
     11          8           0       -1.749140   -0.720644    2.642846
     12          6           0       -1.655656   -0.064878    0.359228
     13          7           0       -2.294975    1.075811    0.437701
     14          8           0       -2.745559    1.347999   -0.812279
     15          7           0       -2.387479    0.353232   -1.712254
     16          6           0       -1.717997   -0.529796   -1.004420
     17          7           0       -1.274357   -1.720821   -1.527177
     18          1           0        3.384616    2.088466    0.266585
     19          1           0        2.888792    1.457402    1.851850
     20          1           0        2.380446    3.082760    1.347692
     21          1           0        0.517680    1.428520    1.113471
     22          1           0        1.584560    2.365329   -1.598451
     23          1           0       -0.091451    1.889029   -1.267129
     24          1           0        0.581711    3.332819   -0.491573
     25          1           0        1.603341   -3.163653   -0.004585
     26          1           0        3.189801   -1.899940   -1.887893
     27          1           0        0.504710   -1.568745    2.421956
     28          1           0       -1.358525   -1.759851   -2.536775
     29          1           0       -0.354010   -2.008266   -1.207204
 ---------------------------------------------------------------------

 SCF Done:  E(UB3LYP) =  -829.350687570     A.U. after   33 cycles
 SCF Done:  E(UB3LYP) =  -829.350687570     a.u. after    1 cycles

 The electronic state is 2-A.
 Alpha  occ. eigenvalues --  -19.05398 -18.94805 -14.28011 -14.22688 -14.22531
 Alpha  occ. eigenvalues --  -14.20248 -14.19803 -14.18732 -10.13890 -10.13351
 Alpha  occ. eigenvalues --  -10.11646 -10.10357 -10.09282 -10.07206 -10.06528
 Alpha  occ. eigenvalues --  -10.05385 -10.05007  -1.01296  -0.95162  -0.90734
 Alpha  occ. eigenvalues --   -0.81688  -0.81014  -0.74925  -0.73364  -0.68871
 Alpha  occ. eigenvalues --   -0.67527  -0.65512  -0.59346  -0.54125  -0.52714
 Alpha  occ. eigenvalues --   -0.51030  -0.48245  -0.47788  -0.44122  -0.43300
 Alpha  occ. eigenvalues --   -0.40582  -0.37009  -0.36264  -0.36204  -0.35389
 Alpha  occ. eigenvalues --   -0.34680  -0.34443  -0.33262  -0.32172  -0.29981
 Alpha  occ. eigenvalues --   -0.29374  -0.29009  -0.28403  -0.27283  -0.25418
 Alpha  occ. eigenvalues --   -0.25167  -0.24527  -0.22615  -0.19953  -0.18615
 Alpha  occ. eigenvalues --   -0.17479  -0.15889  -0.15635  -0.14876  -0.13296
 Alpha  occ. eigenvalues --   -0.12217  -0.10919   0.04728
 Alpha virt. eigenvalues --    0.07033   0.08014   0.08632   0.09864   0.10341
 Alpha virt. eigenvalues --    0.10523   0.10805   0.11424   0.12729   0.13016
 Alpha virt. eigenvalues --    0.13852   0.14130   0.14474   0.15217   0.15433

  Beta  occ. eigenvalues --  -19.04982 -18.94540 -14.27910 -14.22687 -14.22508
  Beta  occ. eigenvalues --  -14.20259 -14.19603 -14.17899 -10.13844 -10.13129
  Beta  occ. eigenvalues --  -10.11650 -10.10409 -10.09292 -10.07204 -10.06497
  Beta  occ. eigenvalues --  -10.05381 -10.04963  -1.00535  -0.95046  -0.90287
  Beta  occ. eigenvalues --   -0.81538  -0.80920  -0.74869  -0.72432  -0.68516
  Beta  occ. eigenvalues --   -0.67423  -0.65464  -0.59336  -0.53663  -0.52457
  Beta  occ. eigenvalues --   -0.50940  -0.48090  -0.47498  -0.43933  -0.43265
  Beta  occ. eigenvalues --   -0.40405  -0.36731  -0.36148  -0.36109  -0.35240
  Beta  occ. eigenvalues --   -0.34404  -0.34146  -0.32142  -0.31925  -0.29870
  Beta  occ. eigenvalues --   -0.29203  -0.28763  -0.27976  -0.26726  -0.25258
  Beta  occ. eigenvalues --   -0.24923  -0.24351  -0.21971  -0.19763  -0.18072
  Beta  occ. eigenvalues --   -0.17029  -0.15378  -0.14177  -0.13834  -0.12655
  Beta  occ. eigenvalues --   -0.11364  -0.09952
  Beta virt. eigenvalues --    0.07116   0.07957   0.08761   0.09835   0.10387
  Beta virt. eigenvalues --    0.10700   0.10875   0.11349   0.12085   0.12975
  Beta virt. eigenvalues --    0.13630   0.14195   0.14388   0.14740   0.15261

 Mulliken charges and spin densities:
               1          2
     1  C   -0.516098  -0.012663
     2  C    0.199613   0.054753
     3  C   -0.740621  -0.014090
     4  N    0.690325   0.055856
     5  C   -0.790941  -0.137818
     6  C    0.431067  -0.013198
     7  C   -0.156099  -0.080179
     8  N   -0.389713   0.010212
     9  N   -0.185221   0.000600
    10  C   -0.084988   0.098118
    11  O   -0.346528   0.089709
    12  C    0.493718  -0.019032
    13  N   -0.354629   0.389613
    14  O    0.267454   0.079538
    15  N   -0.307401   0.092765
    16  C   -0.730027   0.006891
    17  N   -0.358695  -0.001920
    18  H    0.169549  -0.002479
    19  H    0.139494   0.011790
    20  H    0.123910   0.002724
    21  H    0.241444  -0.008566
    22  H    0.139224   0.002656
    23  H    0.146788  -0.004500
    24  H    0.135628   0.002479
    25  H   -0.030865   0.202918
    26  H    0.123632   0.010554
    27  H    0.114327   0.193229
    28  H    0.243987  -0.000529
    29  H    0.331668  -0.009428
 Sum of Mulliken charges =  -1.00000   1.00000

 Dipole moment (field-independent basis, Debye):
    X=              7.8526    Y=             -0.6404    Z=             -2.0987  Tot=              8.1534
 Quadrupole moment (field-independent basis, Debye-Ang):
   XX=           -142.6521   YY=           -113.2584   ZZ=           -125.2801
   XY=              5.4799   XZ=              6.3807   YZ=              8.7961

 Summary of Natural Population Analysis:

                                       Natural Population
                Natural  -----------------------------------------------
    Atom  No    Charge         Core      Valence    Rydberg      Total
 -----------------------------------------------------------------------
      C    1   -0.28588      0.99965     2.28208    0.00415     3.28588
      C    2   -0.01124      0.99960     2.00106    0.01058     3.01124
      C    3   -0.28912      0.99964     2.28414    0.00534     3.28912
      N    4   -0.09889      0.99960     2.58390    0.01539     3.59889
      C    5    0.17666      0.99950     1.80891    0.01493     2.82334
      C    6   -0.18572      0.99951     2.17603    0.01018     3.18572
      C    7   -0.02075      0.99964     2.00590    0.01521     3.02075
      N    8   -0.15627      0.99973     2.64530    0.01124     3.65627
      N    9   -0.33211      0.99964     2.82295    0.00952     3.83211
      C   10    0.36105      0.99964     1.61448    0.02483     2.63895
      O   11   -0.28342      0.99987     3.27807    0.00547     4.28342
      C   12   -0.02831      0.99951     2.00955    0.01925     3.02831
      N   13    0.07024      0.99966     2.41177    0.01832     3.42976
      O   14   -0.06592      0.99990     3.05617    0.00984     4.06592
      N   15   -0.09605      0.99966     2.58257    0.01382     3.59605
      C   16    0.14249      0.99957     1.84362    0.01433     2.85751
      N   17   -0.40605      0.99970     2.89792    0.00843     3.90605
      H   18    0.10288      0.00000     0.39628    0.00083     0.39712
      H   19    0.09980      0.00000     0.39948    0.00073     0.40020
      H   20    0.09747      0.00000     0.40180    0.00073     0.40253
      H   21    0.11376      0.00000     0.38448    0.00176     0.38624
      H   22    0.10032      0.00000     0.39884    0.00084     0.39968
      H   23    0.11748      0.00000     0.38120    0.00132     0.38252
      H   24    0.09737      0.00000     0.40190    0.00073     0.40263
      H   25    0.11102      0.00000     0.38815    0.00083     0.38898
      H   26    0.09337      0.00000     0.40575    0.00088     0.40663
      H   27    0.19850      0.00000     0.29795    0.00355     0.30150
      H   28    0.18374      0.00000     0.31473    0.00153     0.31626
      H   29    0.19359      0.00000     0.30410    0.00231     0.30641
 =======================================================================
   * Total *    0.00000     16.99403    44.77910    0.22688    62.00000

 Normal termination of Gaussian 16 at Mon Dec 14 17:50:58 2020.
