 Gaussian 16, Revision A.03,

 -----------------------------------------------------------
 # opt freq B3LYP/6-31G(d) empiricaldispersion=gd3bj scf=xqc
 -----------------------------------------------------------

 -------------------------------
 CID_130167957_JID_4880_neutraal
 -------------------------------
 Symbolic Z-matrix:
 Charge =  0 Multiplicity = 1

 SCF Done:  E(RB3LYP) =  -1097.26365353     A.U. after   18 cycles
 SCF Done:  E(RB3LYP) =  -1097.27596582     A.U. after   15 cycles
 SCF Done:  E(RB3LYP) =  -1097.27837163     A.U. after   14 cycles
 SCF Done:  E(RB3LYP) =  -1097.27869457     A.U. after   14 cycles
 SCF Done:  E(RB3LYP) =  -1097.27969414     A.U. after   14 cycles
 SCF Done:  E(RB3LYP) =  -1097.28019257     A.U. after   14 cycles
 SCF Done:  E(RB3LYP) =  -1097.28120710     A.U. after   14 cycles
 SCF Done:  E(RB3LYP) =  -1097.28168081     A.U. after   14 cycles
 SCF Done:  E(RB3LYP) =  -1097.28197728     A.U. after   14 cycles
 SCF Done:  E(RB3LYP) =  -1097.28227144     A.U. after   12 cycles
 SCF Done:  E(RB3LYP) =  -1097.28232996     A.U. after   10 cycles
 SCF Done:  E(RB3LYP) =  -1097.28233052     A.U. after    9 cycles
 SCF Done:  E(RB3LYP) =  -1097.28233082     A.U. after    9 cycles
 SCF Done:  E(RB3LYP) =  -1097.28233107     A.U. after   10 cycles
 SCF Done:  E(RB3LYP) =  -1097.28233117     A.U. after    9 cycles
 Optimization completed.
    -- Stationary point found.
 Normal termination of Gaussian 16 at Thu Dec 10 10:56:25 2020.

 --------------------------------------------------------------------
 #N Geom=AllCheck Guess=TCheck SCRF=Check GenChk RB3LYP/6-31G(d) Freq
 --------------------------------------------------------------------

 Structure from the checkpoint file:  "JID_4880.chk"
 -------------------------------
 CID_130167957_JID_4880_neutraal
 -------------------------------
 Charge =  0 Multiplicity = 1

 SCF Done:  E(RB3LYP) =  -1097.28233117     A.U. after    1 cycles

  Exact polarizability: 143.453  -5.763 109.791   7.223  -1.278  73.774
 Approx polarizability: 202.556 -12.399 194.492  16.016  -9.938 123.150

                      1                      2                      3
                      A                      A                      A
 Frequencies --     24.2495                46.0206                58.7883
 Red. masses --      5.2757                 8.5743                 7.1444
 Frc consts  --      0.0018                 0.0107                 0.0145
 IR Inten    --      2.2625                 1.9310                 0.9843

                      4                      5                      6
                      A                      A                      A
 Frequencies --     81.8771               119.5601               194.3018
 Red. masses --      4.2361                 5.5063                 3.2211
 Frc consts  --      0.0167                 0.0464                 0.0716
 IR Inten    --      9.5683                 3.5783                 3.2844

                      7                      8                      9
                      A                      A                      A
 Frequencies --    219.1160               239.6573               256.5850
 Red. masses --      4.1655                 3.5993                 4.4803
 Frc consts  --      0.1178                 0.1218                 0.1738
 IR Inten    --      6.1988                 2.8751                 5.0391

                     10                     11                     12
                      A                      A                      A
 Frequencies --    272.8429               302.2923               328.8517
 Red. masses --      5.7566                 6.9253                10.4135
 Frc consts  --      0.2525                 0.3729                 0.6635
 IR Inten    --      4.6329                 3.0300                 3.0014

                     13                     14                     15
                      A                      A                      A
 Frequencies --    354.9888               436.8074               458.2665
 Red. masses --      8.0414                 2.1587                 2.7288
 Frc consts  --      0.5970                 0.2427                 0.3376
 IR Inten    --      9.1859                36.7187                31.6339

                     16                     17                     18
                      A                      A                      A
 Frequencies --    475.0848               496.4302               506.7729
 Red. masses --      3.9461                 4.6880                 2.5806
 Frc consts  --      0.5248                 0.6807                 0.3905
 IR Inten    --      7.2793                 1.6084                61.3388

                     19                     20                     21
                      A                      A                      A
 Frequencies --    551.0189               589.5854               616.1796
 Red. masses --      4.3337                 4.9236                 1.1691
 Frc consts  --      0.7752                 1.0084                 0.2615
 IR Inten    --     26.5571                53.0924               227.8566

                     22                     23                     24
                      A                      A                      A
 Frequencies --    619.6158               637.3424               681.7179
 Red. masses --      5.8321                 3.8821                 4.3740
 Frc consts  --      1.3192                 0.9291                 1.1977
 IR Inten    --     52.9226                 6.8303                21.0557

                     25                     26                     27
                      A                      A                      A
 Frequencies --    722.5641               824.7596               857.2078
 Red. masses --      7.1346                 4.0738                 1.5444
 Frc consts  --      2.1947                 1.6327                 0.6686
 IR Inten    --     27.0008                32.7678                33.9195

                     28                     29                     30
                      A                      A                      A
 Frequencies --    862.3165               893.9529               934.7455
 Red. masses --      1.9312                 4.3269                 5.0353
 Frc consts  --      0.8461                 2.0373                 2.5922
 IR Inten    --      2.6899               103.4779                 7.2050

                     31                     32                     33
                      A                      A                      A
 Frequencies --    943.9060               957.5595              1039.9456
 Red. masses --      1.8202                 2.8316                 1.7291
 Frc consts  --      0.9555                 1.5297                 1.1018
 IR Inten    --     33.4268                 1.8547                22.6704

                     34                     35                     36
                      A                      A                      A
 Frequencies --   1043.7399              1090.4078              1111.7744
 Red. masses --      2.1387                 4.2198                 6.9826
 Frc consts  --      1.3727                 2.9561                 5.0851
 IR Inten    --      8.4650                68.9820               150.7126

                     37                     38                     39
                      A                      A                      A
 Frequencies --   1135.9515              1197.9483              1207.4766
 Red. masses --      2.1544                 1.4553                 1.5677
 Frc consts  --      1.6379                 1.2305                 1.3467
 IR Inten    --      7.6687                28.0037                 3.3323

                     40                     41                     42
                      A                      A                      A
 Frequencies --   1217.1187              1228.6285              1312.1463
 Red. masses --      2.1170                 1.3662                 3.0075
 Frc consts  --      1.8477                 1.2151                 3.0509
 IR Inten    --     72.6096                35.5164                51.5460

                     43                     44                     45
                      A                      A                      A
 Frequencies --   1334.5179              1339.4239              1368.8891
 Red. masses --      1.3170                 2.6142                 1.6854
 Frc consts  --      1.3819                 2.7632                 1.8608
 IR Inten    --      2.5569                21.9370               112.3114

                     46                     47                     48
                      A                      A                      A
 Frequencies --   1421.1217              1437.7133              1451.6515
 Red. masses --      1.2736                 1.5390                 1.1416
 Frc consts  --      1.5154                 1.8742                 1.4174
 IR Inten    --      5.5752               167.3144                24.8102

                     49                     50                     51
                      A                      A                      A
 Frequencies --   1457.9039              1476.4067              1529.2305
 Red. masses --      1.1655                 1.1165                 1.0816
 Frc consts  --      1.4595                 1.4340                 1.4903
 IR Inten    --     30.5121                21.3863                 0.5227

                     52                     53                     54
                      A                      A                      A
 Frequencies --   1553.8007              1726.3177              1846.2056
 Red. masses --     10.2760                 7.2910                12.7134
 Frc consts  --     14.6172                12.8021                25.5312
 IR Inten    --    164.1644                99.6552               216.9702

                     55                     56                     57
                      A                      A                      A
 Frequencies --   2994.9487              3044.7163              3098.4027
 Red. masses --      1.0724                 1.0666                 1.0872
 Frc consts  --      5.6673                 5.8257                 6.1495
 IR Inten    --      4.8296                41.5434                 0.6939

                     58                     59                     60
                      A                      A                      A
 Frequencies --   3099.0588              3114.5803              3163.5519
 Red. masses --      1.0619                 1.0961                 1.1081
 Frc consts  --      6.0087                 6.2648                 6.5342
 IR Inten    --      2.1354                18.4848                 1.8670

                     61                     62                     63
                      A                      A                      A
 Frequencies --   3206.0504              3554.2658              3677.4917
 Red. masses --      1.0938                 1.0759                 1.0652
 Frc consts  --      6.6242                 8.0082                 8.4874
 IR Inten    --      8.0956                96.1957                76.0584

 - Thermochemistry -
 -------------------
 Temperature   298.150 Kelvin.  Pressure   1.00000 Atm.
 Atom     1 has atomic number  6 and mass  12.00000

 Molecular mass:   219.03138 amu.
 Principal axes and moments of inertia in atomic units:
                           1         2         3
     Eigenvalues --  1508.948314926.460135859.45562
           X            0.99997   0.00497   0.00596
           Y           -0.00500   0.99998   0.00496
           Z           -0.00593  -0.00499   0.99997
 This molecule is an asymmetric top.
 Rotational symmetry number  1.
 Warning -- assumption of classical behavior for rotation
           may cause significant error
 Rotational temperatures (Kelvin)      0.05740     0.01758     0.01478
 Rotational constants (GHZ):           1.19603     0.36634     0.30800
 Zero-point vibrational energy     442895.5 (Joules/Mol)
                                  105.85457 (Kcal/Mol)
 Warning -- explicit consideration of  22 degrees of freedom as
           vibrations may cause significant error
 Vibrational temperatures:     34.89    66.21    84.58   117.80   172.02
          (Kelvin)            279.56   315.26   344.81   369.17   392.56
                              434.93   473.14   510.75   628.47   659.34
                              683.54   714.25   729.13   792.79   848.28
                              886.54   891.49   916.99   980.84  1039.61
                             1186.65  1233.33  1240.68  1286.20  1344.89
                             1358.07  1377.71  1496.25  1501.71  1568.85
                             1599.60  1634.38  1723.58  1737.29  1751.16
                             1767.72  1887.89  1920.07  1927.13  1969.53
                             2044.68  2068.55  2088.60  2097.60  2124.22
                             2200.22  2235.57  2483.79  2656.28  4309.06
                             4380.67  4457.91  4458.85  4481.19  4551.65
                             4612.79  5113.80  5291.09

 Zero-point correction=                           0.168690 (Hartree/Particle)
 Thermal correction to Energy=                    0.182141
 Thermal correction to Enthalpy=                  0.183086
 Thermal correction to Gibbs Free Energy=         0.126972
 Sum of electronic and zero-point Energies=          -1097.113641
 Sum of electronic and thermal Energies=             -1097.100190
 Sum of electronic and thermal Enthalpies=           -1097.099246
 Sum of electronic and thermal Free Energies=        -1097.155359

                     E (Thermal)             CV                S
                      KCal/Mol        Cal/Mol-Kelvin    Cal/Mol-Kelvin
 Total                  114.295             49.851            118.100
 Electronic               0.000              0.000              0.000
 Translational            0.889              2.981             42.055
 Rotational               0.889              2.981             32.144
 Vibrational            112.518             43.890             43.902
 Vibration     1          0.593              1.985              6.252
 Vibration     2          0.595              1.979              4.981
 Vibration     3          0.596              1.974              4.497
 Vibration     4          0.600              1.962              3.845
 Vibration     5          0.609              1.933              3.107
 Vibration     6          0.635              1.848              2.186
 Vibration     7          0.647              1.812              1.966
 Vibration     8          0.657              1.780              1.805
 Vibration     9          0.666              1.752              1.685
 Vibration    10          0.676              1.723              1.578
 Vibration    11          0.694              1.669              1.404
 Vibration    12          0.712              1.618              1.266
 Vibration    13          0.731              1.565              1.144
 Vibration    14          0.797              1.390              0.837
 Vibration    15          0.816              1.343              0.771
 Vibration    16          0.832              1.305              0.723
 Vibration    17          0.852              1.258              0.667
 Vibration    18          0.862              1.235              0.641
 Vibration    19          0.906              1.137              0.542
 Vibration    20          0.947              1.054              0.468
 Vibration    21          0.976              0.998              0.423
 Vibration    22          0.980              0.990              0.417

                           ! Non-Optimized Parameters !
 Normal termination of Gaussian 16 at Thu Dec 10 11:02:50 2020.

 ----------------------------------------------------------------------
 # B3LYP/6-311++G(d,p) empiricaldispersion=gd3bj scf=xqc pop=npa geom=c
 heck
 ----------------------------------------------------------------------

 ---------------------------------------
 CID_130167957_JID_4880_Energie_neutraal
 ---------------------------------------
 Structure from the checkpoint file:  "JID_4880.chk"
 Charge =  0 Multiplicity = 1

 SCF Done:  E(RB3LYP) =  -1097.52213149     A.U. after   18 cycles
 Normal termination of Gaussian 16 at Thu Dec 10 11:06:57 2020.

 ----------------------------------------------------------------------
 # B3LYP/6-311++G(d,p) empiricaldispersion=gd3bj scf=xqc pop=npa geom=c
 heck
 ----------------------------------------------------------------------

 -------------------------------------
 CID_130167957_JID_4880_Energie_kation
 -------------------------------------
 Structure from the checkpoint file:  "JID_4880.chk"
 Charge =  1 Multiplicity = 2

 SCF Done:  E(UB3LYP) =  -1097.18679388     A.U. after   33 cycles
 SCF Done:  E(UB3LYP) =  -1097.18689375     a.u. after    4 cycles
 Normal termination of Gaussian 16 at Thu Dec 10 11:32:50 2020.
 Gaussian 16:  ES64L-G16RevA.03 25-Dec-2016

 ----------------------------------------------------------------------
 # B3LYP/6-311++G(d,p) empiricaldispersion=gd3bj scf=xqc pop=npa geom=c
 heck
 ----------------------------------------------------------------------

 ------------------------------------
 CID_130167957_JID_4880_Energie_anion
 ------------------------------------
 Structure from the checkpoint file:  "JID_4880.chk"
 Charge = -1 Multiplicity = 2

                         Standard orientation:
 ---------------------------------------------------------------------
 Center     Atomic      Atomic             Coordinates (Angstroms)
 Number     Number       Type             X           Y           Z
 ---------------------------------------------------------------------
      1          6           0       -2.393321    1.398688    0.204537
      2          6           0       -1.021415    0.805127    0.264044
      3          6           0       -0.915898   -0.531786    0.339934
      4          7           0       -2.036440   -1.401149    0.489439
      5          7           0       -3.218364   -1.005249    0.329107
      6          6           0       -3.453885    0.371410   -0.105348
      7          8           0       -4.496573    0.606149   -0.665566
      8          7           0        0.263121   -1.291940    0.421877
      9         16           0        1.731544   -0.826894   -0.271228
     10          8           0        2.509468   -2.059761   -0.361535
     11          8           0        1.480354   -0.006715   -1.467349
     12          6           0        2.422078    0.270406    1.011998
     13          6           0        3.038029    1.534440    0.403386
     14          8           0        2.066073    2.374167   -0.188933
     15          1           0       -2.466765    2.197275   -0.541452
     16          1           0       -2.645999    1.870049    1.170396
     17          1           0       -0.160002    1.465468    0.250909
     18          1           0        0.116776   -2.298144    0.388622
     19          1           0        1.598618    0.532191    1.680791
     20          1           0        3.151317   -0.336675    1.555158
     21          1           0        3.498209    2.103558    1.216785
     22          1           0        3.832659    1.267766   -0.306555
     23          1           0        1.784152    1.916763   -1.002200
 ---------------------------------------------------------------------

 SCF Done:  E(UB3LYP) =  -1097.58623646     A.U. after   22 cycles

 The electronic state is 2-A.
 Alpha  occ. eigenvalues --  -88.97633 -19.04089 -19.03214 -19.03084 -18.94118
 Alpha  occ. eigenvalues --  -14.23898 -14.16956 -14.15658 -10.15769 -10.13085
 Alpha  occ. eigenvalues --  -10.10083 -10.09299 -10.04379 -10.02555  -8.03794
 Alpha  occ. eigenvalues --   -6.00071  -6.00056  -5.99872  -1.03311  -0.94896
 Alpha  occ. eigenvalues --   -0.92340  -0.89377  -0.85519  -0.81544  -0.71321
 Alpha  occ. eigenvalues --   -0.66196  -0.62121  -0.58518  -0.52773  -0.51382
 Alpha  occ. eigenvalues --   -0.47070  -0.44911  -0.42655  -0.41896  -0.40324
 Alpha  occ. eigenvalues --   -0.39620  -0.36001  -0.35211  -0.34440  -0.33575
 Alpha  occ. eigenvalues --   -0.32615  -0.30744  -0.27814  -0.27528  -0.27124
 Alpha  occ. eigenvalues --   -0.26172  -0.24999  -0.24030  -0.23499  -0.22221
 Alpha  occ. eigenvalues --   -0.22113  -0.20384  -0.18934  -0.18171  -0.12853
 Alpha  occ. eigenvalues --   -0.09932  -0.05135   0.00749
 Alpha virt. eigenvalues --    0.06110   0.08818   0.09309   0.09614   0.11504
 Alpha virt. eigenvalues --    0.11552   0.12372   0.12983   0.13528   0.14273
 Alpha virt. eigenvalues --    0.14703   0.15062   0.15614   0.15894   0.16587

  Beta  occ. eigenvalues --  -88.97633 -19.04088 -19.03211 -19.03075 -18.93754
  Beta  occ. eigenvalues --  -14.23892 -14.16266 -14.15106 -10.15768 -10.13083
  Beta  occ. eigenvalues --  -10.09981 -10.09377 -10.04421 -10.02236  -8.03794
  Beta  occ. eigenvalues --   -6.00073  -6.00056  -5.99870  -1.03298  -0.94893
  Beta  occ. eigenvalues --   -0.92325  -0.88640  -0.84790  -0.81083  -0.71306
  Beta  occ. eigenvalues --   -0.65790  -0.61699  -0.58274  -0.52617  -0.50464
  Beta  occ. eigenvalues --   -0.46706  -0.44825  -0.42509  -0.41750  -0.40255
  Beta  occ. eigenvalues --   -0.39601  -0.35980  -0.35093  -0.34263  -0.33483
  Beta  occ. eigenvalues --   -0.31910  -0.30086  -0.27693  -0.27228  -0.26867
  Beta  occ. eigenvalues --   -0.25510  -0.24762  -0.23770  -0.22567  -0.22021
  Beta  occ. eigenvalues --   -0.21502  -0.20324  -0.17420  -0.16720  -0.12113
  Beta  occ. eigenvalues --   -0.08402  -0.04379
  Beta virt. eigenvalues --    0.06104   0.08504   0.09031   0.09309   0.09684
  Beta virt. eigenvalues --    0.11520   0.11614   0.12410   0.13039   0.13547
  Beta virt. eigenvalues --    0.14564   0.15101   0.15170   0.15884   0.16137

 Mulliken charges and spin densities:
               1          2
     1  C   -0.753777  -0.063990
     2  C    0.727934   0.302569
     3  C   -0.623574  -0.068768
     4  N   -0.362174   0.316924
     5  N   -0.006560   0.253293
     6  C   -0.020230   0.076943
     7  O   -0.341982   0.127438
     8  N   -0.374452   0.007054
     9  S    0.538419   0.003432
    10  O   -0.164636   0.001354
    11  O   -0.268172  -0.002967
    12  C   -0.561339   0.001923
    13  C   -0.395284  -0.004154
    14  O   -0.206974   0.000225
    15  H    0.134354   0.016107
    16  H    0.114853   0.046835
    17  H    0.177353  -0.016520
    18  H    0.313744  -0.003631
    19  H    0.290630   0.002140
    20  H    0.223084  -0.000312
    21  H    0.142100  -0.000320
    22  H    0.175118   0.001057
    23  H    0.241565   0.003369
 Sum of Mulliken charges =  -1.00000   1.00000

 Dipole moment (field-independent basis, Debye):
    X=             12.3019    Y=              3.0238    Z=              2.8087  Tot=             12.9757
 Quadrupole moment (field-independent basis, Debye-Ang):
   XX=           -154.1949   YY=           -110.9366   ZZ=            -96.1891
   XY=             -1.2625   XZ=              2.9484   YZ=              2.0463

 Summary of Natural Population Analysis:

                                       Natural Population
                Natural  -----------------------------------------------
    Atom  No    Charge         Core      Valence    Rydberg      Total
 -----------------------------------------------------------------------
      C    1   -0.25413      0.99959     2.24644    0.00810     3.25413
      C    2   -0.06592      0.99948     2.05864    0.00780     3.06592
      C    3    0.11081      0.99943     1.87333    0.01643     2.88919
      N    4   -0.02823      0.99971     2.50840    0.02012     3.52823
      N    5   -0.05189      0.99974     2.53263    0.01952     3.55189
      C    6    0.33646      0.99969     1.63752    0.02632     2.66354
      O    7   -0.25853      0.99987     3.24924    0.00942     4.25853
      N    8   -0.43461      0.99967     2.91673    0.01821     3.93461
      S    9    1.09436      4.99935     1.80517    0.10113     6.90564
      O   10   -0.46481      0.99991     3.45935    0.00556     4.46481
      O   11   -0.46985      0.99990     3.46385    0.00610     4.46985
      C   12   -0.30428      0.99958     2.29451    0.01019     3.30428
      C   13   -0.02169      0.99961     2.00833    0.01375     3.02169
      O   14   -0.37269      0.99990     3.36563    0.00716     4.37269
      H   15    0.11208      0.00000     0.38635    0.00158     0.38792
      H   16    0.11383      0.00000     0.38470    0.00148     0.38617
      H   17    0.09413      0.00000     0.40359    0.00228     0.40587
      H   18    0.20998      0.00000     0.28710    0.00292     0.29002
      H   19    0.12438      0.00000     0.37401    0.00161     0.37562
      H   20    0.11536      0.00000     0.38340    0.00124     0.38464
      H   21    0.08832      0.00000     0.41032    0.00137     0.41168
      H   22    0.08127      0.00000     0.41717    0.00156     0.41873
      H   23    0.24566      0.00000     0.25148    0.00286     0.25434
 =======================================================================
   * Total *    0.00000     17.99541    38.71788    0.28671    57.00000

 Normal termination of Gaussian 16 at Thu Dec 10 11:38:28 2020.
