 Gaussian 16, Revision A.03,

 -----------------------------------------------------------
 # opt freq B3LYP/6-31G(d) empiricaldispersion=gd3bj scf=xqc
 -----------------------------------------------------------

 ------------------------------
 CID_117125936_JID_327_neutraal
 ------------------------------
 Symbolic Z-matrix:
 Charge =  0 Multiplicity = 1

 SCF Done:  E(RB3LYP) =  -802.779906930     A.U. after   15 cycles
 SCF Done:  E(RB3LYP) =  -802.782349943     A.U. after   12 cycles
 SCF Done:  E(RB3LYP) =  -802.782440871     A.U. after   12 cycles
 SCF Done:  E(RB3LYP) =  -802.781848597     A.U. after   12 cycles
 SCF Done:  E(RB3LYP) =  -802.782734863     A.U. after   12 cycles
 SCF Done:  E(RB3LYP) =  -802.782925483     A.U. after   12 cycles
 SCF Done:  E(RB3LYP) =  -802.782932459     A.U. after   11 cycles
 SCF Done:  E(RB3LYP) =  -802.782944293     A.U. after   12 cycles
 SCF Done:  E(RB3LYP) =  -802.782947985     A.U. after   11 cycles
 SCF Done:  E(RB3LYP) =  -802.782952151     A.U. after   11 cycles
 SCF Done:  E(RB3LYP) =  -802.782955092     A.U. after    7 cycles
 SCF Done:  E(RB3LYP) =  -802.782955062     A.U. after    8 cycles
 SCF Done:  E(RB3LYP) =  -802.782954997     A.U. after    8 cycles
 SCF Done:  E(RB3LYP) =  -802.782955068     A.U. after    7 cycles
 SCF Done:  E(RB3LYP) =  -802.782955079     A.U. after    8 cycles
 Optimization completed.
    -- Stationary point found.
 Normal termination of Gaussian 16 at Tue Dec  8 10:28:45 2020.

 --------------------------------------------------------------------
 #N Geom=AllCheck Guess=TCheck SCRF=Check GenChk RB3LYP/6-31G(d) Freq
 --------------------------------------------------------------------

 Structure from the checkpoint file:  "JID_327.chk"
 ------------------------------
 CID_117125936_JID_327_neutraal
 ------------------------------
 Charge =  0 Multiplicity = 1

 SCF Done:  E(RB3LYP) =  -802.782955079     A.U. after    1 cycles

  Exact polarizability: 124.234   2.886  84.825   0.890   2.520  85.615
 Approx polarizability: 162.650   8.427 128.606   6.756  14.728 138.111

                      1                      2                      3
                      A                      A                      A
 Frequencies --      5.7016                38.8252                94.4914
 Red. masses --      6.8317                 1.0307                 3.3434
 Frc consts  --      0.0001                 0.0009                 0.0176
 IR Inten    --      0.6135                 0.0278                 0.6434

                      4                      5                      6
                      A                      A                      A
 Frequencies --    110.7977               190.4522               208.8857
 Red. masses --      3.5122                 4.1266                 3.4655
 Frc consts  --      0.0254                 0.0882                 0.0891
 IR Inten    --      1.0768                 5.6867                 6.4818

                      7                      8                      9
                      A                      A                      A
 Frequencies --    248.6010               291.2299               303.3913
 Red. masses --      3.9644                 2.4862                 3.0363
 Frc consts  --      0.1444                 0.1242                 0.1647
 IR Inten    --      0.2896                 2.9930                 2.9258

                     10                     11                     12
                      A                      A                      A
 Frequencies --    385.2098               456.7033               474.9899
 Red. masses --      1.8890                 3.1936                 4.9498
 Frc consts  --      0.1652                 0.3925                 0.6580
 IR Inten    --      1.2946                 2.4825                18.2638

                     13                     14                     15
                      A                      A                      A
 Frequencies --    499.5080               576.8072               691.6407
 Red. masses --      3.7401                 2.1089                 6.8355
 Frc consts  --      0.5498                 0.4134                 1.9266
 IR Inten    --     35.3233                 2.9451                 1.0923

                     16                     17                     18
                      A                      A                      A
 Frequencies --    718.4290               774.4006               820.5245
 Red. masses --      6.2272                 2.1678                 3.8363
 Frc consts  --      1.8937                 0.7659                 1.5218
 IR Inten    --      1.0349               110.5280                13.7293

                     19                     20                     21
                      A                      A                      A
 Frequencies --    828.6631               846.6030               892.4352
 Red. masses --      1.5802                 2.3555                 2.4176
 Frc consts  --      0.6393                 0.9947                 1.1345
 IR Inten    --      2.0436                 4.0874                 0.8347

                     22                     23                     24
                      A                      A                      A
 Frequencies --    908.8151               980.1292               997.1069
 Red. masses --      2.0306                 1.8625                 1.1913
 Frc consts  --      0.9881                 1.0542                 0.6978
 IR Inten    --     23.4883               112.9347                 3.1802

                     25                     26                     27
                      A                      A                      A
 Frequencies --   1017.3911              1040.4859              1072.0912
 Red. masses --      1.8559                 1.4512                 1.7253
 Frc consts  --      1.1318                 0.9257                 1.1683
 IR Inten    --    115.4337                 0.5008                28.8620

                     28                     29                     30
                      A                      A                      A
 Frequencies --   1081.6823              1102.4669              1139.8665
 Red. masses --      2.4211                 1.9474                 1.9914
 Frc consts  --      1.6691                 1.3946                 1.5245
 IR Inten    --     22.6036                 8.4339                10.2087

                     31                     32                     33
                      A                      A                      A
 Frequencies --   1147.6823              1198.5810              1220.6730
 Red. masses --      3.6593                 1.2457                 1.0865
 Frc consts  --      2.8398                 1.0543                 0.9538
 IR Inten    --     17.5265                 2.3427                 3.0286

                     34                     35                     36
                      A                      A                      A
 Frequencies --   1280.3908              1327.5360              1334.7394
 Red. masses --      1.1940                 1.4100                 1.2340
 Frc consts  --      1.1533                 1.4640                 1.2952
 IR Inten    --      1.8955                 0.6019                 0.5116

                     37                     38                     39
                      A                      A                      A
 Frequencies --   1372.2667              1381.2880              1384.6214
 Red. masses --      1.3050                 1.2956                 1.3064
 Frc consts  --      1.4479                 1.4565                 1.4757
 IR Inten    --     16.0798                18.2802                 6.0096

                     40                     41                     42
                      A                      A                      A
 Frequencies --   1388.2967              1418.2381              1458.0246
 Red. masses --      1.3505                 1.4138                 1.4680
 Frc consts  --      1.5336                 1.6754                 1.8387
 IR Inten    --     15.4173                 2.3072                 1.1001

                     43                     44                     45
                      A                      A                      A
 Frequencies --   1491.5084              1498.1495              1501.5116
 Red. masses --      1.0520                 1.1485                 1.0511
 Frc consts  --      1.3789                 1.5188                 1.3963
 IR Inten    --      9.3752                 5.4467                10.1523

                     46                     47                     48
                      A                      A                      A
 Frequencies --   1505.9813              1514.2325              1528.5983
 Red. masses --      1.2086                 1.0922                 1.1098
 Frc consts  --      1.6150                 1.4755                 1.5279
 IR Inten    --      0.0436                 4.6003                 0.0320

                     49                     50                     51
                      A                      A                      A
 Frequencies --   1542.6879              1781.1544              2981.5505
 Red. masses --      1.1021                10.2553                 1.0710
 Frc consts  --      1.5454                19.1691                 5.6093
 IR Inten    --     13.5220               191.5604                47.0956

                     52                     53                     54
                      A                      A                      A
 Frequencies --   3007.2822              3047.8100              3053.0739
 Red. masses --      1.0678                 1.0715                 1.0609
 Frc consts  --      5.6896                 5.8642                 5.8263
 IR Inten    --     39.3371                 7.7976                12.5142

                     55                     56                     57
                      A                      A                      A
 Frequencies --   3062.9599              3078.5628              3080.5996
 Red. masses --      1.0754                 1.0922                 1.0903
 Frc consts  --      5.9446                 6.0986                 6.0962
 IR Inten    --     42.5430                75.7098                34.7370

                     58                     59                     60
                      A                      A                      A
 Frequencies --   3084.7310              3098.3136              3100.0028
 Red. masses --      1.0290                 1.1054                 1.1057
 Frc consts  --      5.7689                 6.2521                 6.2604
 IR Inten    --     13.9927                15.4905                44.3126

                     61                     62                     63
                      A                      A                      A
 Frequencies --   3176.6944              3181.2938              3498.7229
 Red. masses --      1.1072                 1.1066                 1.0745
 Frc consts  --      6.5832                 6.5986                 7.7498
 IR Inten    --      4.5650                 3.0137                 2.1461

 - Thermochemistry -
 -------------------
 Temperature   298.150 Kelvin.  Pressure   1.00000 Atm.
 Atom     1 has atomic number  6 and mass  12.00000

 Molecular mass:   159.07179 amu.
 Principal axes and moments of inertia in atomic units:
                           1         2         3
     Eigenvalues --   727.951662807.509902844.71598
           X            0.99992  -0.00757  -0.01022
           Y            0.00457   0.96390  -0.26621
           Z            0.01187   0.26614   0.96386
 This molecule is an asymmetric top.
 Rotational symmetry number  1.
 Warning -- assumption of classical behavior for rotation
           may cause significant error
 Rotational temperatures (Kelvin)      0.11898     0.03085     0.03045
 Rotational constants (GHZ):           2.47920     0.64283     0.63442
 Zero-point vibrational energy     523522.2 (Joules/Mol)
                                  125.12482 (Kcal/Mol)
 Warning -- explicit consideration of  14 degrees of freedom as
           vibrations may cause significant error
 Vibrational temperatures:      8.20    55.86   135.95   159.41   274.02
          (Kelvin)            300.54   357.68   419.01   436.51   554.23
                              657.09   683.40   718.68   829.90   995.12
                             1033.66  1114.19  1180.55  1192.26  1218.07
                             1284.02  1307.58  1410.19  1434.61  1463.80
                             1497.03  1542.50  1556.30  1586.20  1640.01
                             1651.26  1724.49  1756.28  1842.20  1910.03
                             1920.39  1974.39  1987.37  1992.16  1997.45
                             2040.53  2097.77  2145.95  2155.50  2160.34
                             2166.77  2178.64  2199.31  2219.58  2562.68
                             4289.79  4326.81  4385.12  4392.69  4406.92
                             4429.37  4432.30  4438.24  4457.78  4460.21
                             4570.55  4577.17  5033.88

 Zero-point correction=                           0.199399 (Hartree/Particle)
 Thermal correction to Energy=                    0.210194
 Thermal correction to Enthalpy=                  0.211139
 Thermal correction to Gibbs Free Energy=         0.159952
 Sum of electronic and zero-point Energies=           -802.583556
 Sum of electronic and thermal Energies=              -802.572761
 Sum of electronic and thermal Enthalpies=            -802.571816
 Sum of electronic and thermal Free Energies=         -802.623003

                     E (Thermal)             CV                S
                      KCal/Mol        Cal/Mol-Kelvin    Cal/Mol-Kelvin
 Total                  131.899             39.077            107.732
 Electronic               0.000              0.000              0.000
 Translational            0.889              2.981             41.102
 Rotational               0.889              2.981             30.143
 Vibrational            130.122             33.115             36.488
 Vibration     1          0.593              1.987              9.127
 Vibration     2          0.594              1.981              5.318
 Vibration     3          0.603              1.953              3.565
 Vibration     4          0.607              1.941              3.255
 Vibration     5          0.634              1.853              2.223
 Vibration     6          0.642              1.827              2.053
 Vibration     7          0.662              1.765              1.740
 Vibration     8          0.687              1.690              1.467
 Vibration     9          0.695              1.667              1.398
 Vibration    10          0.754              1.502              1.019
 Vibration    11          0.815              1.346              0.776
 Vibration    12          0.832              1.306              0.724
 Vibration    13          0.855              1.251              0.659
 Vibration    14          0.933              1.081              0.491

 Optimization completed.
    -- Stationary point found.
 Normal termination of Gaussian 16 at Tue Dec  8 10:33:12 2020.

 ----------------------------------------------------------------------
 # B3LYP/6-311++G(d,p) empiricaldispersion=gd3bj scf=xqc pop=npa geom=c
 heck
 ----------------------------------------------------------------------

 --------------------------------------
 CID_117125936_JID_327_Energie_neutraal
 --------------------------------------
 Structure from the checkpoint file:  "JID_327.chk"
 Charge =  0 Multiplicity = 1

 SCF Done:  E(RB3LYP) =  -802.929258523     A.U. after   14 cycles
 Normal termination of Gaussian 16 at Tue Dec  8 10:37:00 2020.

 ----------------------------------------------------------------------
 # B3LYP/6-311++G(d,p) empiricaldispersion=gd3bj scf=xqc pop=npa geom=c
 heck
 ----------------------------------------------------------------------

 ------------------------------------
 CID_117125936_JID_327_Energie_kation
 ------------------------------------
 Structure from the checkpoint file:  "JID_327.chk"
 Charge =  1 Multiplicity = 2

 SCF Done:  E(UB3LYP) =  -802.627292497     A.U. after   30 cycles
 Normal termination of Gaussian 16 at Tue Dec  8 10:45:10 2020.
 Gaussian 16:  ES64L-G16RevA.03 25-Dec-2016

 ----------------------------------------------------------------------
 # B3LYP/6-311++G(d,p) empiricaldispersion=gd3bj scf=xqc pop=npa geom=c
 heck
 ----------------------------------------------------------------------

 -----------------------------------
 CID_117125936_JID_327_Energie_anion
 -----------------------------------
 Structure from the checkpoint file:  "JID_327.chk"
 Charge = -1 Multiplicity = 2

                         Standard orientation:
 ---------------------------------------------------------------------
 Center     Atomic      Atomic             Coordinates (Angstroms)
 Number     Number       Type             X           Y           Z
 ---------------------------------------------------------------------
      1          6           0        3.424052   -0.344762   -0.772707
      2         16           0        2.405877    0.362366    0.565756
      3          6           0        0.783122   -0.177059   -0.008905
      4          8           0        0.653441   -0.845000   -1.013976
      5          6           0       -0.352872    0.318007    0.870602
      6          6           0       -1.337862   -0.814592    1.236511
      7          6           0       -2.248909   -1.208300    0.070700
      8          7           0       -2.942373   -0.015947   -0.428204
      9          6           0       -2.001226    0.970464   -0.965947
     10          6           0       -1.105081    1.474718    0.165876
     11          1           0        4.469010   -0.174602   -0.505912
     12          1           0        3.194502    0.143873   -1.721301
     13          1           0        3.225549   -1.413991   -0.861260
     14          1           0        0.093411    0.709940    1.792421
     15          1           0       -0.789358   -1.691468    1.599350
     16          1           0       -1.963796   -0.450442    2.059888
     17          1           0       -1.649131   -1.710193   -0.704795
     18          1           0       -3.002519   -1.920012    0.427246
     19          1           0       -3.595250   -0.290251   -1.159000
     20          1           0       -2.575070    1.809815   -1.375033
     21          1           0       -1.373338    0.566596   -1.778850
     22          1           0       -1.734814    1.966020    0.916783
     23          1           0       -0.391476    2.217634   -0.209184
 ---------------------------------------------------------------------

 SCF Done:  E(UB3LYP) =  -802.912101455     A.U. after   33 cycles
 SCF Done:  E(UB3LYP) =  -802.912101455     a.u. after    1 cycles

 The electronic state is 2-A.
 Alpha  occ. eigenvalues --  -88.75491 -19.02068 -14.19141 -10.17927 -10.09263
 Alpha  occ. eigenvalues --  -10.09070 -10.08520 -10.08362 -10.07363 -10.07218
 Alpha  occ. eigenvalues --   -7.84141  -5.80476  -5.80087  -5.79648  -0.95627
 Alpha  occ. eigenvalues --   -0.80694  -0.71299  -0.68578  -0.65355  -0.58836
 Alpha  occ. eigenvalues --   -0.53653  -0.52389  -0.47476  -0.41543  -0.40543
 Alpha  occ. eigenvalues --   -0.38005  -0.36056  -0.34738  -0.34098  -0.33312
 Alpha  occ. eigenvalues --   -0.31744  -0.31618  -0.28920  -0.28646  -0.27600
 Alpha  occ. eigenvalues --   -0.27173  -0.25188  -0.24603  -0.22013  -0.21818
 Alpha  occ. eigenvalues --   -0.15837  -0.15295  -0.12277   0.04707
 Alpha virt. eigenvalues --    0.06276   0.07323   0.07657   0.07824   0.09421
 Alpha virt. eigenvalues --    0.09956   0.10163   0.10428   0.11072   0.12186
 Alpha virt. eigenvalues --    0.12514   0.12797   0.13193   0.14215   0.14615

  Beta  occ. eigenvalues --  -88.75482 -19.02057 -14.19117 -10.17925 -10.09263
  Beta  occ. eigenvalues --  -10.09004 -10.08500 -10.08345 -10.07348 -10.07202
  Beta  occ. eigenvalues --   -7.84132  -5.80458  -5.80074  -5.79644  -0.95605
  Beta  occ. eigenvalues --   -0.80657  -0.71269  -0.68525  -0.65320  -0.58768
  Beta  occ. eigenvalues --   -0.53583  -0.52337  -0.47423  -0.41483  -0.40502
  Beta  occ. eigenvalues --   -0.37974  -0.36028  -0.34703  -0.34069  -0.33266
  Beta  occ. eigenvalues --   -0.31700  -0.31574  -0.28869  -0.28602  -0.27576
  Beta  occ. eigenvalues --   -0.27134  -0.25152  -0.24518  -0.21980  -0.21770
  Beta  occ. eigenvalues --   -0.15812  -0.15263  -0.12226
  Beta virt. eigenvalues --    0.06911   0.07385   0.07521   0.08289   0.08482
  Beta virt. eigenvalues --    0.10031   0.10350   0.10707   0.11072   0.11354
  Beta virt. eigenvalues --    0.12543   0.12937   0.13276   0.13623   0.14352

 Mulliken charges and spin densities:
               1          2
     1  C    0.954102  -1.463794
     2  S   -0.113452   0.039875
     3  C   -0.493976   0.140254
     4  O   -0.234135   0.041379
     5  C    0.663508   0.278542
     6  C    0.021802  -0.570654
     7  C    0.259219  -0.670021
     8  N   -0.328724   0.166858
     9  C    0.387008  -0.763156
    10  C    0.296319  -0.884182
    11  H   -0.723248   0.883712
    12  H   -0.275681   0.461189
    13  H   -0.241416   0.440936
    14  H   -0.126314   0.349551
    15  H   -0.017924   0.169987
    16  H   -0.054318   0.211374
    17  H   -0.019772   0.189317
    18  H   -0.314524   0.480586
    19  H   -0.239961   0.489315
    20  H   -0.397096   0.567240
    21  H    0.010109   0.141355
    22  H    0.003797   0.150837
    23  H   -0.015324   0.149501
 Sum of Mulliken charges =  -1.00000   1.00000

 Dipole moment (field-independent basis, Debye):
    X=             -1.0834    Y=              0.6598    Z=              2.3786  Tot=              2.6957
 Quadrupole moment (field-independent basis, Debye-Ang):
   XX=           -153.0350   YY=           -101.6601   ZZ=           -100.3532
   XY=              2.0933   XZ=              1.9737   YZ=              1.5488

 Summary of Natural Population Analysis:

                                       Natural Population
                Natural  -----------------------------------------------
    Atom  No    Charge         Core      Valence    Rydberg      Total
 -----------------------------------------------------------------------
      C    1   -0.34898      0.99962     2.34197    0.00740     3.34898
      S    2    0.09772      4.99954     2.88446    0.01828     7.90228
      C    3    0.21352      0.99964     1.75993    0.02691     2.78648
      O    4   -0.29255      0.99987     3.28324    0.00944     4.29255
      C    5   -0.15261      0.99952     2.14215    0.01094     3.15261
      C    6   -0.18939      0.99961     2.17978    0.01000     3.18939
      C    7   -0.09140      0.99961     2.08016    0.01163     3.09140
      N    8   -0.34425      0.99974     2.83148    0.01303     3.84425
      C    9   -0.09196      0.99962     2.08041    0.01193     3.09196
      C   10   -0.18801      0.99961     2.17893    0.00948     3.18801
      H   11    0.11019      0.00000     0.38642    0.00339     0.38981
      H   12    0.10887      0.00000     0.38914    0.00199     0.39113
      H   13    0.11111      0.00000     0.38701    0.00188     0.38889
      H   14    0.10657      0.00000     0.39169    0.00175     0.39343
      H   15    0.10228      0.00000     0.39651    0.00121     0.39772
      H   16    0.10096      0.00000     0.39761    0.00143     0.39904
      H   17    0.08954      0.00000     0.40865    0.00181     0.41046
      H   18    0.09423      0.00000     0.40430    0.00148     0.40577
      H   19    0.17676      0.00000     0.31957    0.00367     0.32324
      H   20    0.09614      0.00000     0.40223    0.00163     0.40386
      H   21    0.08638      0.00000     0.41177    0.00186     0.41362
      H   22    0.10160      0.00000     0.39692    0.00148     0.39840
      H   23    0.10330      0.00000     0.39538    0.00132     0.39670
 =======================================================================
   * Total *    0.00000     13.99638    28.84970    0.15392    43.00000

 Normal termination of Gaussian 16 at Tue Dec  8 10:53:54 2020.
