 Gaussian 16, Revision A.03,

 -----------------------------------------------------------
 # opt freq B3LYP/6-31G(d) empiricaldispersion=gd3bj scf=xqc
 -----------------------------------------------------------

 -------------------------------
 CID_143168955_JID_7038_neutraal
 -------------------------------
 Symbolic Z-matrix:
 Charge =  0 Multiplicity = 1

 SCF Done:  E(RB3LYP) =  -709.464974872     A.U. after   15 cycles
 SCF Done:  E(RB3LYP) =  -709.470266350     A.U. after   12 cycles
 SCF Done:  E(RB3LYP) =  -709.470884094     A.U. after   11 cycles
 SCF Done:  E(RB3LYP) =  -709.471019650     A.U. after   11 cycles
 SCF Done:  E(RB3LYP) =  -709.471067211     A.U. after   11 cycles
 SCF Done:  E(RB3LYP) =  -709.471125768     A.U. after   10 cycles
 SCF Done:  E(RB3LYP) =  -709.471198593     A.U. after   11 cycles
 SCF Done:  E(RB3LYP) =  -709.471218005     A.U. after   10 cycles
 SCF Done:  E(RB3LYP) =  -709.471231119     A.U. after   10 cycles
 SCF Done:  E(RB3LYP) =  -709.471231547     A.U. after    7 cycles
 SCF Done:  E(RB3LYP) =  -709.471231747     A.U. after    7 cycles
 Optimization completed.
    -- Stationary point found.
 Normal termination of Gaussian 16 at Fri Dec 11 11:44:58 2020.

 --------------------------------------------------------------------
 #N Geom=AllCheck Guess=TCheck SCRF=Check GenChk RB3LYP/6-31G(d) Freq
 --------------------------------------------------------------------

 Structure from the checkpoint file:  "JID_7038.chk"
 -------------------------------
 CID_143168955_JID_7038_neutraal
 -------------------------------
 Charge =  0 Multiplicity = 1

 SCF Done:  E(RB3LYP) =  -709.471231747     A.U. after    1 cycles

  Exact polarizability: 264.261  -9.942 187.801  -5.078  -2.433  68.692
 Approx polarizability: 380.825 -13.754 342.180  -8.839  -5.370 110.855

                      1                      2                      3
                      A                      A                      A
 Frequencies --     54.8011                81.5580                93.1046
 Red. masses --      3.8466                 4.2158                 2.4148
 Frc consts  --      0.0068                 0.0165                 0.0123
 IR Inten    --      0.4418                 0.1074                 0.6422

                      4                      5                      6
                      A                      A                      A
 Frequencies --    136.7026               150.9842               175.2850
 Red. masses --      4.4927                 3.2592                 1.9245
 Frc consts  --      0.0495                 0.0438                 0.0348
 IR Inten    --      0.6078                 0.0428                 0.4545

                      7                      8                      9
                      A                      A                      A
 Frequencies --    193.2790               217.5709               236.2223
 Red. masses --      2.5309                 2.7500                 2.2474
 Frc consts  --      0.0557                 0.0767                 0.0739
 IR Inten    --      0.1550                 0.7873                 1.0369

                     10                     11                     12
                      A                      A                      A
 Frequencies --    283.6744               296.4378               323.4317
 Red. masses --      2.3460                 3.8914                 4.2743
 Frc consts  --      0.1112                 0.2015                 0.2634
 IR Inten    --      5.4466                 1.5419                 0.2153

                     13                     14                     15
                      A                      A                      A
 Frequencies --    348.2368               374.3354               419.2262
 Red. masses --      4.8471                 3.7324                 4.6120
 Frc consts  --      0.3463                 0.3081                 0.4776
 IR Inten    --      2.4100                 0.7694                 2.3598

                     16                     17                     18
                      A                      A                      A
 Frequencies --    435.9914               480.4727               511.0010
 Red. masses --      3.2279                 2.7231                 6.4846
 Frc consts  --      0.3615                 0.3704                 0.9977
 IR Inten    --      4.1638                 4.5380                 3.7705

                     19                     20                     21
                      A                      A                      A
 Frequencies --    521.0326               540.7815               610.6419
 Red. masses --      5.5281                 3.2246                 1.4578
 Frc consts  --      0.8842                 0.5556                 0.3203
 IR Inten    --      4.6243                 0.8264                46.4727

                     22                     23                     24
                      A                      A                      A
 Frequencies --    626.4670               650.8511               660.0830
 Red. masses --      4.4273                 4.5887                 2.8189
 Frc consts  --      1.0237                 1.1453                 0.7236
 IR Inten    --     20.6698                 1.6786                 3.2216

                     25                     26                     27
                      A                      A                      A
 Frequencies --    689.5876               715.7029               743.1440
 Red. masses --      3.3063                 2.9071                 5.2121
 Frc consts  --      0.9263                 0.8774                 1.6959
 IR Inten    --      4.5975                50.7869                 2.4878

                     28                     29                     30
                      A                      A                      A
 Frequencies --    761.3628               777.4825               802.3182
 Red. masses --      3.0033                 1.8476                 3.1714
 Frc consts  --      1.0257                 0.6580                 1.2028
 IR Inten    --     18.6027                30.1295                 0.0043

                     31                     32                     33
                      A                      A                      A
 Frequencies --    832.5477               850.1919               880.1949
 Red. masses --      4.9395                 4.3028                 1.4702
 Frc consts  --      2.0172                 1.8325                 0.6711
 IR Inten    --      4.5148                 5.6139                 0.1581

                     34                     35                     36
                      A                      A                      A
 Frequencies --    907.1606               940.7465               952.8888
 Red. masses --      1.7869                 1.3615                 2.0803
 Frc consts  --      0.8664                 0.7099                 1.1129
 IR Inten    --      2.0595                34.4768                 0.9349

                     37                     38                     39
                      A                      A                      A
 Frequencies --    969.5585               995.0170              1028.8581
 Red. masses --      1.3428                 1.2802                 1.9694
 Frc consts  --      0.7437                 0.7468                 1.2283
 IR Inten    --      0.9319                 0.1099                11.6557

                     40                     41                     42
                      A                      A                      A
 Frequencies --   1031.4690              1055.8693              1057.8746
 Red. masses --      1.1921                 1.4352                 2.2541
 Frc consts  --      0.7473                 0.9427                 1.4862
 IR Inten    --     10.2371                 3.9059                 2.0218

                     43                     44                     45
                      A                      A                      A
 Frequencies --   1066.3590              1110.5235              1144.7542
 Red. masses --      2.2999                 2.9135                 2.6502
 Frc consts  --      1.5409                 2.1170                 2.0462
 IR Inten    --      8.2295                 3.7893                11.3379

                     46                     47                     48
                      A                      A                      A
 Frequencies --   1161.4472              1175.7811              1191.6448
 Red. masses --      1.2120                 1.7585                 1.1461
 Frc consts  --      0.9633                 1.4323                 0.9588
 IR Inten    --      2.9077                12.0794                 3.8833

                     49                     50                     51
                      A                      A                      A
 Frequencies --   1199.6280              1230.1240              1278.3482
 Red. masses --      2.5212                 1.9732                 3.6294
 Frc consts  --      2.1377                 1.7592                 3.4945
 IR Inten    --      2.7066                 1.8323                 3.6437

                     52                     53                     54
                      A                      A                      A
 Frequencies --   1297.9713              1317.1013              1339.4015
 Red. masses --      2.5014                 1.9248                 1.9611
 Frc consts  --      2.4829                 1.9673                 2.0729
 IR Inten    --      5.6642                17.4300                 4.7775

                     55                     56                     57
                      A                      A                      A
 Frequencies --   1351.3645              1371.3965              1419.0327
 Red. masses --      1.6391                 8.4237                 2.7279
 Frc consts  --      1.7636                 9.3342                 3.2364
 IR Inten    --      3.7039                29.4839                 0.1935

                     58                     59                     60
                      A                      A                      A
 Frequencies --   1440.4561              1466.5895              1482.7928
 Red. masses --      1.2718                 1.1387                 1.4867
 Frc consts  --      1.5548                 1.4431                 1.9258
 IR Inten    --      1.2999                 3.1818                 2.0082

                     61                     62                     63
                      A                      A                      A
 Frequencies --   1488.3776              1508.7466              1513.9371
 Red. masses --      2.1257                 1.1522                 2.0461
 Frc consts  --      2.7744                 1.5453                 2.7631
 IR Inten    --     11.9927                11.0527                25.8824

                     64                     65                     66
                      A                      A                      A
 Frequencies --   1519.1502              1566.1574              1596.4926
 Red. masses --      1.1082                 4.2369                 5.3952
 Frc consts  --      1.5069                 6.1230                 8.1020
 IR Inten    --      2.5385                88.6791                60.9775

                     67                     68                     69
                      A                      A                      A
 Frequencies --   1635.4450              1667.6599              1682.8923
 Red. masses --      7.1190                 5.9046                 8.3001
 Frc consts  --     11.2186                 9.6751                13.8499
 IR Inten    --     26.0184                58.0676                73.1100

                     70                     71                     72
                      A                      A                      A
 Frequencies --   1712.7160              1773.7600              3024.1627
 Red. masses --      4.3953                 8.9575                 1.0521
 Frc consts  --      7.5965                16.6046                 5.6692
 IR Inten    --      1.2435               526.6867                 7.8608

                     73                     74                     75
                      A                      A                      A
 Frequencies --   3028.8811              3051.3957              3080.1768
 Red. masses --      1.0520                 1.1000                 1.0916
 Frc consts  --      5.6865                 6.0347                 6.1019
 IR Inten    --     45.8393                 9.1919                24.6310

                     76                     77                     78
                      A                      A                      A
 Frequencies --   3124.3310              3130.8319              3177.2515
 Red. masses --      1.1009                 1.0859                 1.0612
 Frc consts  --      6.3319                 6.2715                 6.3118
 IR Inten    --      9.4395                18.1134                 6.7704

                     79                     80                     81
                      A                      A                      A
 Frequencies --   3182.6032              3196.8827              3207.9110
 Red. masses --      1.0857                 1.0907                 1.0940
 Frc consts  --      6.4793                 6.5674                 6.6332
 IR Inten    --      5.1977                16.6042                23.9150

                     82                     83                     84
                      A                      A                      A
 Frequencies --   3226.2808              3258.3654              3602.6401
 Red. masses --      1.0938                 1.1169                 1.0768
 Frc consts  --      6.7079                 6.9864                 8.2344
 IR Inten    --     10.5365                12.4850                46.6625

 - Thermochemistry -
 -------------------
 Temperature   298.150 Kelvin.  Pressure   1.00000 Atm.
 Atom     1 has atomic number  6 and mass  12.00000

 Molecular mass:   223.09971 amu.
 Principal axes and moments of inertia in atomic units:
                           1         2         3
     Eigenvalues --  1904.028695511.915597359.95540
           X            1.00000  -0.00187  -0.00098
           Y            0.00187   1.00000  -0.00060
           Z            0.00098   0.00059   1.00000
 This molecule is an asymmetric top.
 Rotational symmetry number  1.
 Warning -- assumption of classical behavior for rotation
           may cause significant error
 Rotational temperatures (Kelvin)      0.04549     0.01571     0.01177
 Rotational constants (GHZ):           0.94785     0.32743     0.24521
 Zero-point vibrational energy     636508.5 (Joules/Mol)
                                  152.12918 (Kcal/Mol)
 Warning -- explicit consideration of  21 degrees of freedom as
           vibrations may cause significant error
 Vibrational temperatures:     78.85   117.34   133.96   196.68   217.23
          (Kelvin)            252.20   278.09   313.04   339.87   408.14
                              426.51   465.35   501.04   538.59   603.17
                              627.29   691.29   735.22   749.65   778.06
                              878.58   901.35   936.43   949.71   992.16
                             1029.74  1069.22  1095.43  1118.62  1154.36
                             1197.85  1223.24  1266.40  1305.20  1353.52
                             1370.99  1394.98  1431.61  1480.30  1484.05
                             1519.16  1522.05  1534.25  1597.80  1647.05
                             1671.06  1691.69  1714.51  1726.00  1769.87
                             1839.26  1867.49  1895.01  1927.10  1944.31
                             1973.13  2041.67  2072.49  2110.10  2133.41
                             2141.44  2170.75  2178.22  2185.72  2253.35
                             2297.00  2353.04  2399.39  2421.31  2464.22
                             2552.05  4351.10  4357.88  4390.28  4431.69
                             4495.22  4504.57  4571.36  4579.06  4599.60
                             4615.47  4641.90  4688.06  5183.40

 Zero-point correction=                           0.242433 (Hartree/Particle)
 Thermal correction to Energy=                    0.256470
 Thermal correction to Enthalpy=                  0.257415
 Thermal correction to Gibbs Free Energy=         0.201965
 Sum of electronic and zero-point Energies=           -709.228798
 Sum of electronic and thermal Energies=              -709.214761
 Sum of electronic and thermal Enthalpies=            -709.213817
 Sum of electronic and thermal Free Energies=         -709.269267

                     E (Thermal)             CV                S
                      KCal/Mol        Cal/Mol-Kelvin    Cal/Mol-Kelvin
 Total                  160.938             55.919            116.705
 Electronic               0.000              0.000              0.000
 Translational            0.889              2.981             42.110
 Rotational               0.889              2.981             32.713
 Vibrational            159.160             49.958             41.882
 Vibration     1          0.596              1.976              4.636
 Vibration     2          0.600              1.962              3.853
 Vibration     3          0.602              1.954              3.594
 Vibration     4          0.614              1.917              2.850
 Vibration     5          0.618              1.902              2.660
 Vibration     6          0.627              1.873              2.378
 Vibration     7          0.635              1.849              2.196
 Vibration     8          0.646              1.814              1.979
 Vibration     9          0.655              1.785              1.831
 Vibration    10          0.682              1.704              1.511
 Vibration    11          0.690              1.680              1.437
 Vibration    12          0.708              1.629              1.293
 Vibration    13          0.726              1.579              1.174
 Vibration    14          0.745              1.525              1.062
 Vibration    15          0.782              1.428              0.895
 Vibration    16          0.796              1.392              0.839
 Vibration    17          0.837              1.293              0.709
 Vibration    18          0.866              1.226              0.631
 Vibration    19          0.876              1.203              0.608
 Vibration    20          0.896              1.160              0.564
 Vibration    21          0.970              1.009              0.432

 Optimization completed.
    -- Stationary point found.
 Normal termination of Gaussian 16 at Fri Dec 11 11:55:19 2020.

 ----------------------------------------------------------------------
 # B3LYP/6-311++G(d,p) empiricaldispersion=gd3bj scf=xqc pop=npa geom=c
 heck
 ----------------------------------------------------------------------

 ---------------------------------------
 CID_143168955_JID_7038_Energie_neutraal
 ---------------------------------------
 Structure from the checkpoint file:  "JID_7038.chk"
 Charge =  0 Multiplicity = 1

 SCF Done:  E(RB3LYP) =  -709.655908645     A.U. after   16 cycles
 Normal termination of Gaussian 16 at Fri Dec 11 12:00:24 2020.

 ----------------------------------------------------------------------
 # B3LYP/6-311++G(d,p) empiricaldispersion=gd3bj scf=xqc pop=npa geom=c
 heck
 ----------------------------------------------------------------------

 -------------------------------------
 CID_143168955_JID_7038_Energie_kation
 -------------------------------------
 Structure from the checkpoint file:  "JID_7038.chk"
 Charge =  1 Multiplicity = 2

 SCF Done:  E(UB3LYP) =  -709.397939251     A.U. after   21 cycles
 Normal termination of Gaussian 16 at Fri Dec 11 12:10:48 2020.
 Gaussian 16:  ES64L-G16RevA.03 25-Dec-2016

 ----------------------------------------------------------------------
 # B3LYP/6-311++G(d,p) empiricaldispersion=gd3bj scf=xqc pop=npa geom=c
 heck
 ----------------------------------------------------------------------

 ------------------------------------
 CID_143168955_JID_7038_Energie_anion
 ------------------------------------
 Structure from the checkpoint file:  "JID_7038.chk"
 Charge = -1 Multiplicity = 2

                         Standard orientation:
 ---------------------------------------------------------------------
 Center     Atomic      Atomic             Coordinates (Angstroms)
 Number     Number       Type             X           Y           Z
 ---------------------------------------------------------------------
      1          6           0       -3.685397   -1.937341   -0.121862
      2          6           0       -2.403601   -1.174212   -0.064168
      3          6           0       -2.225790    0.178761   -0.082602
      4          6           0       -0.779181    0.435417   -0.063714
      5          6           0       -0.070153   -0.732297   -0.026120
      6          6           0       -1.055933   -1.867506   -0.022834
      7          6           0        1.358125   -0.707726    0.008556
      8          6           0        2.163452   -1.866280    0.050050
      9          6           0        3.544490   -1.763563    0.078904
     10          6           0        4.171262   -0.505451    0.068042
     11          6           0        3.399892    0.645699    0.028661
     12          6           0        2.000383    0.563821   -0.001921
     13          6           0        1.230855    1.823401   -0.035639
     14          8           0        1.716854    2.950471   -0.034067
     15          7           0       -0.158127    1.658177   -0.066357
     16          6           0       -3.223350    1.244288   -0.161927
     17          6           0       -4.435938    1.238160    0.406644
     18          1           0       -4.016717   -2.251495    0.878419
     19          1           0       -3.571186   -2.850825   -0.717527
     20          1           0       -4.488783   -1.333592   -0.555760
     21          1           0       -0.966938   -2.505597    0.869189
     22          1           0       -0.940657   -2.536952   -0.888068
     23          1           0        1.687186   -2.842736    0.058623
     24          1           0        4.148853   -2.666245    0.110340
     25          1           0        5.254689   -0.437582    0.090647
     26          1           0        3.849644    1.632943    0.020784
     27          1           0       -0.690871    2.519218   -0.056064
     28          1           0       -2.932356    2.121532   -0.742847
     29          1           0       -5.121902    2.069175    0.273665
     30          1           0       -4.773604    0.420136    1.035213
 ---------------------------------------------------------------------

 SCF Done:  E(UB3LYP) =  -709.666961194     A.U. after   27 cycles

 The electronic state is 2-A.
 Alpha  occ. eigenvalues --  -18.95993 -14.23141 -10.14712 -10.07426 -10.06212
 Alpha  occ. eigenvalues --  -10.06158 -10.05373 -10.05155 -10.04925 -10.04805
 Alpha  occ. eigenvalues --  -10.04730 -10.04472 -10.04419 -10.03179 -10.03174
 Alpha  occ. eigenvalues --  -10.02517 -10.02213  -0.91390  -0.82376  -0.73976
 Alpha  occ. eigenvalues --   -0.72243  -0.66239  -0.64020  -0.63390  -0.61347
 Alpha  occ. eigenvalues --   -0.56715  -0.54657  -0.52851  -0.49525  -0.46521
 Alpha  occ. eigenvalues --   -0.45556  -0.42735  -0.40512  -0.39021  -0.37052
 Alpha  occ. eigenvalues --   -0.34485  -0.33116  -0.32582  -0.31916  -0.31030
 Alpha  occ. eigenvalues --   -0.30618  -0.30591  -0.29447  -0.28360  -0.27737
 Alpha  occ. eigenvalues --   -0.26274  -0.25532  -0.24652  -0.24176  -0.22433
 Alpha  occ. eigenvalues --   -0.21962  -0.21657  -0.20381  -0.17213  -0.15439
 Alpha  occ. eigenvalues --   -0.13900  -0.13857  -0.11531  -0.06499   0.03982
 Alpha virt. eigenvalues --    0.07787   0.07935   0.08295   0.09028   0.09405
 Alpha virt. eigenvalues --    0.09883   0.10442   0.11017   0.11565   0.12349
 Alpha virt. eigenvalues --    0.12933   0.13372   0.13666   0.14236   0.15071

  Beta  occ. eigenvalues --  -18.95987 -14.23116 -10.14699 -10.07250 -10.06247
  Beta  occ. eigenvalues --  -10.06111 -10.05379 -10.05113 -10.04875 -10.04703
  Beta  occ. eigenvalues --  -10.04627 -10.04533 -10.04465 -10.03228 -10.03014
  Beta  occ. eigenvalues --  -10.02463 -10.01552  -0.91356  -0.82241  -0.73833
  Beta  occ. eigenvalues --   -0.71817  -0.66032  -0.63880  -0.63084  -0.60995
  Beta  occ. eigenvalues --   -0.56487  -0.54451  -0.52809  -0.49294  -0.46218
  Beta  occ. eigenvalues --   -0.45341  -0.42572  -0.40396  -0.38641  -0.36841
  Beta  occ. eigenvalues --   -0.34375  -0.32820  -0.32222  -0.31800  -0.30928
  Beta  occ. eigenvalues --   -0.30524  -0.30143  -0.29364  -0.28224  -0.27456
  Beta  occ. eigenvalues --   -0.26094  -0.25437  -0.24286  -0.23939  -0.22257
  Beta  occ. eigenvalues --   -0.21707  -0.21365  -0.20175  -0.16487  -0.14960
  Beta  occ. eigenvalues --   -0.13879  -0.13539  -0.10379  -0.05091
  Beta virt. eigenvalues --    0.07828   0.07891   0.08235   0.08993   0.09311
  Beta virt. eigenvalues --    0.09844   0.10425   0.10670   0.11095   0.11576
  Beta virt. eigenvalues --    0.12312   0.12982   0.13326   0.13674   0.14241

 Mulliken charges and spin densities:
               1          2
     1  C   -0.322652  -0.045394
     2  C   -0.179394   0.390712
     3  C    0.523095  -0.008845
     4  C   -1.807575   0.080748
     5  C    0.695137   0.015432
     6  C   -0.678158  -0.081379
     7  C    1.704335  -0.002331
     8  C   -0.278413   0.095336
     9  C   -0.287150  -0.021184
    10  C   -0.504086   0.081164
    11  C   -0.531872   0.024277
    12  C   -0.184625   0.006767
    13  C    0.424354   0.007782
    14  O   -0.395512   0.005093
    15  N   -0.054011   0.000062
    16  C   -0.111466   0.068686
    17  C   -0.659107   0.150859
    18  H    0.070413   0.104195
    19  H    0.111749   0.004257
    20  H    0.129214   0.006966
    21  H    0.095913   0.072290
    22  H    0.102026   0.053247
    23  H    0.097708  -0.008015
    24  H    0.136159   0.002246
    25  H    0.111105  -0.006463
    26  H    0.175930  -0.003521
    27  H    0.304518   0.003493
    28  H    0.116465   0.002511
    29  H    0.078120   0.003129
    30  H    0.117781  -0.002122
 Sum of Mulliken charges =  -1.00000   1.00000

 Dipole moment (field-independent basis, Debye):
    X=              0.5846    Y=             -2.4837    Z=             -0.3491  Tot=              2.5753
 Quadrupole moment (field-independent basis, Debye-Ang):
   XX=           -150.0143   YY=           -125.1427   ZZ=           -111.4083
   XY=             -7.5837   XZ=              1.0440   YZ=             -0.6618

 Summary of Natural Population Analysis:

                                       Natural Population
                Natural  -----------------------------------------------
    Atom  No    Charge         Core      Valence    Rydberg      Total
 -----------------------------------------------------------------------
      C    1   -0.30624      0.99964     2.30213    0.00448     3.30624
      C    2    0.16099      0.99949     1.83180    0.00772     2.83901
      C    3   -0.09211      0.99940     2.08324    0.00947     3.09211
      C    4    0.15115      0.99934     1.83830    0.01121     2.84885
      C    5   -0.05346      0.99946     2.04553    0.00846     3.05346
      C    6   -0.20944      0.99960     2.20267    0.00717     3.20944
      C    7    0.00098      0.99940     1.99082    0.00880     2.99902
      C    8   -0.08206      0.99945     2.07411    0.00851     3.08206
      C    9   -0.10689      0.99960     2.09764    0.00966     3.10689
      C   10   -0.11099      0.99957     2.10160    0.00981     3.11099
      C   11   -0.07620      0.99956     2.06654    0.01010     3.07620
      C   12   -0.07611      0.99938     2.06847    0.00827     3.07611
      C   13    0.32753      0.99962     1.65159    0.02126     2.67247
      O   14   -0.34399      0.99988     3.33764    0.00647     4.34399
      N   15   -0.28184      0.99963     2.77528    0.00693     3.78184
      C   16   -0.09046      0.99957     2.08133    0.00957     3.09046
      C   17   -0.17525      0.99960     2.16785    0.00780     3.17525
      H   18    0.10502      0.00000     0.39371    0.00127     0.39498
      H   19    0.09617      0.00000     0.40282    0.00101     0.40383
      H   20    0.10649      0.00000     0.39255    0.00097     0.39351
      H   21    0.11077      0.00000     0.38790    0.00133     0.38923
      H   22    0.10929      0.00000     0.38939    0.00132     0.39071
      H   23    0.09616      0.00000     0.40232    0.00152     0.40384
      H   24    0.09186      0.00000     0.40708    0.00106     0.40814
      H   25    0.09145      0.00000     0.40750    0.00105     0.40855
      H   26    0.10678      0.00000     0.39201    0.00121     0.39322
      H   27    0.19617      0.00000     0.30091    0.00292     0.30383
      H   28    0.08451      0.00000     0.41340    0.00209     0.41549
      H   29    0.08334      0.00000     0.41550    0.00116     0.41666
      H   30    0.08640      0.00000     0.41193    0.00167     0.41360
 =======================================================================
   * Total *    0.00000     16.99218    41.83355    0.17426    59.00000

 Normal termination of Gaussian 16 at Fri Dec 11 12:20:47 2020.
