 Gaussian 16, Revision A.03,

 -----------------------------------------------------------
 # opt freq B3LYP/6-31G(d) empiricaldispersion=gd3bj scf=xqc
 -----------------------------------------------------------

 ------------------------------
 CID_61934467_JID_5524_neutraal
 ------------------------------
 Symbolic Z-matrix:
 Charge =  0 Multiplicity = 1

 SCF Done:  E(RB3LYP) =  -1391.71788348     A.U. after   15 cycles
 SCF Done:  E(RB3LYP) =  -1391.72092975     A.U. after   12 cycles
 SCF Done:  E(RB3LYP) =  -1391.71336959     A.U. after   14 cycles
 SCF Done:  E(RB3LYP) =  -1391.72095040     A.U. after   13 cycles
 SCF Done:  E(RB3LYP) =  -1391.72211653     A.U. after   13 cycles
 SCF Done:  E(RB3LYP) =  -1391.72264959     A.U. after   12 cycles
 SCF Done:  E(RB3LYP) =  -1391.72258476     A.U. after   12 cycles
 SCF Done:  E(RB3LYP) =  -1391.72294246     A.U. after   11 cycles
 SCF Done:  E(RB3LYP) =  -1391.72298130     A.U. after   11 cycles
 SCF Done:  E(RB3LYP) =  -1391.72293431     A.U. after   12 cycles
 SCF Done:  E(RB3LYP) =  -1391.72314616     A.U. after    9 cycles
 SCF Done:  E(RB3LYP) =  -1391.72314679     A.U. after   10 cycles
 SCF Done:  E(RB3LYP) =  -1391.72314734     A.U. after   10 cycles
 SCF Done:  E(RB3LYP) =  -1391.72314741     A.U. after    9 cycles
 SCF Done:  E(RB3LYP) =  -1391.72314745     A.U. after    8 cycles
 Optimization completed.
    -- Stationary point found.
 Normal termination of Gaussian 16 at Thu Dec 10 16:52:28 2020.

 --------------------------------------------------------------------
 #N Geom=AllCheck Guess=TCheck SCRF=Check GenChk RB3LYP/6-31G(d) Freq
 --------------------------------------------------------------------

 Structure from the checkpoint file:  "JID_5524.chk"
 ------------------------------
 CID_61934467_JID_5524_neutraal
 ------------------------------
 Charge =  0 Multiplicity = 1

 SCF Done:  E(RB3LYP) =  -1391.72314745     A.U. after    1 cycles

  Exact polarizability: 169.504 -16.979 129.182  -0.942  -8.905 131.903
 Approx polarizability: 250.724 -35.808 193.323  -0.521 -23.744 234.412

                      1                      2                      3
                      A                      A                      A
 Frequencies --      8.5066                31.2371                43.1185
 Red. masses --      7.6930                 7.2998                 3.3750
 Frc consts  --      0.0003                 0.0042                 0.0037
 IR Inten    --      1.8092                 1.4787                 0.2140

                      4                      5                      6
                      A                      A                      A
 Frequencies --     61.3776                68.1394               100.2742
 Red. masses --      5.0552                 4.7624                 6.7973
 Frc consts  --      0.0112                 0.0130                 0.0403
 IR Inten    --      0.1021                 0.0572                 0.1630

                      7                      8                      9
                      A                      A                      A
 Frequencies --    103.0956               140.5714               197.7935
 Red. masses --      4.6214                 4.3403                 3.3035
 Frc consts  --      0.0289                 0.0505                 0.0761
 IR Inten    --      0.3743                 0.1292                 1.5504

                     10                     11                     12
                      A                      A                      A
 Frequencies --    239.2471               246.6166               258.2110
 Red. masses --      1.3564                 4.0079                 3.2180
 Frc consts  --      0.0457                 0.1436                 0.1264
 IR Inten    --      0.8554                 0.5226                 0.3809

                     13                     14                     15
                      A                      A                      A
 Frequencies --    266.9353               293.8728               333.0017
 Red. masses --      4.1190                 1.2994                 2.1959
 Frc consts  --      0.1729                 0.0661                 0.1435
 IR Inten    --      1.9060                 0.2905                 0.9267

                     16                     17                     18
                      A                      A                      A
 Frequencies --    352.5272               430.1041               434.4744
 Red. masses --      2.8343                 7.2741                 2.6823
 Frc consts  --      0.2075                 0.7928                 0.2983
 IR Inten    --      2.3580                 0.6747                 1.0439

                     19                     20                     21
                      A                      A                      A
 Frequencies --    450.0807               473.3675               494.6570
 Red. masses --      2.5908                 2.5961                 4.7079
 Frc consts  --      0.3092                 0.3427                 0.6787
 IR Inten    --      9.9645                12.4357                 7.1250

                     22                     23                     24
                      A                      A                      A
 Frequencies --    522.1112               578.3300               590.8272
 Red. masses --      3.2981                 3.1815                 3.0059
 Frc consts  --      0.5297                 0.6270                 0.6182
 IR Inten    --      2.4970                 0.3798                51.8462

                     25                     26                     27
                      A                      A                      A
 Frequencies --    627.2498               653.1075               672.6948
 Red. masses --      2.4347                 8.1362                 2.6501
 Frc consts  --      0.5644                 2.0448                 0.7066
 IR Inten    --     58.6449                 0.7116                57.2707

                     28                     29                     30
                      A                      A                      A
 Frequencies --    692.0759               710.5015               741.4429
 Red. masses --      1.7317                 1.1906                 7.0814
 Frc consts  --      0.4887                 0.3541                 2.2936
 IR Inten    --     70.3434                50.3885                 0.6845

                     31                     32                     33
                      A                      A                      A
 Frequencies --    759.7980               811.6535               846.3347
 Red. masses --      3.0276                 2.5646                 1.3136
 Frc consts  --      1.0298                 0.9954                 0.5544
 IR Inten    --     56.5013                23.3332                 5.2718

                     34                     35                     36
                      A                      A                      A
 Frequencies --    858.6443               868.3902               916.0056
 Red. masses --      4.1156                 2.3025                 1.3242
 Frc consts  --      1.7878                 1.0230                 0.6546
 IR Inten    --     13.7997                11.2340                 0.4414

                     37                     38                     39
                      A                      A                      A
 Frequencies --    932.5252               938.5809               957.1945
 Red. masses --      2.0054                 1.5105                 1.3961
 Frc consts  --      1.0275                 0.7840                 0.7536
 IR Inten    --      3.5185                 2.1246                 0.3615

                     40                     41                     42
                      A                      A                      A
 Frequencies --    986.6779               993.0344              1000.1916
 Red. masses --      2.3484                 3.1379                 2.7717
 Frc consts  --      1.3470                 1.8231                 1.6336
 IR Inten    --      3.6454                13.2568                23.4501

                     43                     44                     45
                      A                      A                      A
 Frequencies --   1084.7675              1122.5058              1144.5233
 Red. masses --      1.8397                 1.1426                 1.9286
 Frc consts  --      1.2755                 0.8482                 1.4885
 IR Inten    --      1.8271                 2.1699                 5.1455

                     46                     47                     48
                      A                      A                      A
 Frequencies --   1166.0904              1186.5296              1208.3496
 Red. masses --      1.8632                 1.8756                 1.7640
 Frc consts  --      1.4927                 1.5558                 1.5175
 IR Inten    --     35.7726                76.7882                71.1934

                     49                     50                     51
                      A                      A                      A
 Frequencies --   1222.3129              1235.5511              1252.7964
 Red. masses --      2.1640                 1.6749                 1.4745
 Frc consts  --      1.9049                 1.5064                 1.3635
 IR Inten    --    111.2194                31.3357                17.3064

                     52                     53                     54
                      A                      A                      A
 Frequencies --   1276.0952              1324.9333              1333.8847
 Red. masses --      1.4564                 1.3286                 1.3358
 Frc consts  --      1.3973                 1.3742                 1.4003
 IR Inten    --      4.5468                28.5314                25.4537

                     55                     56                     57
                      A                      A                      A
 Frequencies --   1369.4426              1384.9729              1399.5350
 Red. masses --      1.3998                 2.3153                 1.6308
 Frc consts  --      1.5467                 2.6166                 1.8820
 IR Inten    --     10.3104                 0.3288                13.9347

                     58                     59                     60
                      A                      A                      A
 Frequencies --   1416.3653              1426.7647              1444.7588
 Red. masses --      1.6626                 1.3264                 1.2518
 Frc consts  --      1.9651                 1.5909                 1.5395
 IR Inten    --     21.7509                 1.7764                 8.9754

                     61                     62                     63
                      A                      A                      A
 Frequencies --   1463.9354              1472.7695              1513.2694
 Red. masses --      4.8349                 1.1377                 1.0973
 Frc consts  --      6.1049                 1.4539                 1.4806
 IR Inten    --     16.5774                 9.5275                 9.3772

                     64                     65                     66
                      A                      A                      A
 Frequencies --   1518.5413              1521.5884              1542.3293
 Red. masses --      1.0569                 1.0887                 1.0569
 Frc consts  --      1.4359                 1.4851                 1.4813
 IR Inten    --      0.1844                13.9010                 8.6444

                     67                     68                     69
                      A                      A                      A
 Frequencies --   1544.0560              1572.8672              1827.0612
 Red. masses --      1.1452                 4.6973                 9.8799
 Frc consts  --      1.6086                 6.8467                19.4317
 IR Inten    --     16.6271                 0.9320               231.5393

                     70                     71                     72
                      A                      A                      A
 Frequencies --   3015.4515              3025.7608              3045.7944
 Red. masses --      1.0840                 1.0819                 1.0373
 Frc consts  --      5.8076                 5.8356                 5.6698
 IR Inten    --     24.6418                23.6636                21.3428

                     73                     74                     75
                      A                      A                      A
 Frequencies --   3051.0379              3108.3750              3113.6030
 Red. masses --      1.0377                 1.0970                 1.0908
 Frc consts  --      5.6913                 6.2450                 6.2305
 IR Inten    --     15.5997                10.7486                48.7463

                     76                     77                     78
                      A                      A                      A
 Frequencies --   3116.8125              3134.0360              3140.2191
 Red. masses --      1.0713                 1.1018                 1.1029
 Frc consts  --      6.1316                 6.3762                 6.4075
 IR Inten    --     24.7244                25.1567                22.4585

                     79                     80                     81
                      A                      A                      A
 Frequencies --   3185.0687              3220.8904              3234.9816
 Red. masses --      1.1049                 1.0885                 1.0958
 Frc consts  --      6.6043                 6.6535                 6.7563
 IR Inten    --      3.3960                 5.2539                 3.1810

                     82                     83                     84
                      A                      A                      A
 Frequencies --   3268.9563              3556.9798              3675.9203
 Red. masses --      1.0970                 1.0733                 1.0637
 Frc consts  --      6.9071                 8.0010                 8.4684
 IR Inten    --      0.7482                13.4262                48.3879

 - Thermochemistry -
 -------------------
 Temperature   298.150 Kelvin.  Pressure   1.00000 Atm.
 Atom     1 has atomic number  6 and mass  12.00000

 Molecular mass:   245.05442 amu.
 Principal axes and moments of inertia in atomic units:
                           1         2         3
     Eigenvalues --  2755.857284810.109805987.55474
           X            0.99996  -0.00532  -0.00779
           Y            0.00532   0.99999  -0.00104
           Z            0.00779   0.00100   0.99997
 This molecule is an asymmetric top.
 Rotational symmetry number  1.
 Warning -- assumption of classical behavior for rotation
           may cause significant error
 Rotational temperatures (Kelvin)      0.03143     0.01801     0.01447
 Rotational constants (GHZ):           0.65487     0.37520     0.30142
 Zero-point vibrational energy     637340.8 (Joules/Mol)
                                  152.32811 (Kcal/Mol)
 Warning -- explicit consideration of  24 degrees of freedom as
           vibrations may cause significant error
 Vibrational temperatures:     12.24    44.94    62.04    88.31    98.04
          (Kelvin)            144.27   148.33   202.25   284.58   344.22
                              354.83   371.51   384.06   422.82   479.12
                              507.21   618.82   625.11   647.57   681.07
                              711.70   751.20   832.09   850.07   902.47
                              939.68   967.86   995.74  1022.25  1066.77
                             1093.18  1167.79  1217.69  1235.40  1249.42
                             1317.93  1341.70  1350.41  1377.19  1419.61
                             1428.76  1439.05  1560.74  1615.04  1646.71
                             1677.74  1707.15  1738.55  1758.64  1777.68
                             1802.49  1836.02  1906.28  1919.16  1970.32
                             1992.67  2013.62  2037.83  2052.80  2078.69
                             2106.28  2118.99  2177.26  2184.84  2189.23
                             2219.07  2221.55  2263.01  2628.73  4338.56
                             4353.39  4382.22  4389.76  4472.26  4479.78
                             4484.40  4509.18  4518.07  4582.60  4634.14
                             4654.42  4703.30  5117.70  5288.83

 Zero-point correction=                           0.242750 (Hartree/Particle)
 Thermal correction to Energy=                    0.259129
 Thermal correction to Enthalpy=                  0.260073
 Thermal correction to Gibbs Free Energy=         0.195800
 Sum of electronic and zero-point Energies=          -1391.480397
 Sum of electronic and thermal Energies=             -1391.464019
 Sum of electronic and thermal Enthalpies=           -1391.463075
 Sum of electronic and thermal Free Energies=        -1391.527348

                     E (Thermal)             CV                S
                      KCal/Mol        Cal/Mol-Kelvin    Cal/Mol-Kelvin
 Total                  162.606             60.272            135.275
 Electronic               0.000              0.000              0.000
 Translational            0.889              2.981             42.390
 Rotational               0.889              2.981             32.740
 Vibrational            160.828             54.311             60.145
 Vibration     1          0.593              1.987              8.332
 Vibration     2          0.594              1.983              5.749
 Vibration     3          0.595              1.980              5.110
 Vibration     4          0.597              1.973              4.412
 Vibration     5          0.598              1.969              4.206
 Vibration     6          0.604              1.949              3.449
 Vibration     7          0.605              1.947              3.395
 Vibration     8          0.615              1.913              2.796
 Vibration     9          0.637              1.843              2.154
 Vibration    10          0.657              1.780              1.808
 Vibration    11          0.661              1.768              1.755
 Vibration    12          0.667              1.749              1.674
 Vibration    13          0.672              1.734              1.616
 Vibration    14          0.689              1.685              1.452
 Vibration    15          0.715              1.610              1.245
 Vibration    16          0.729              1.570              1.155
 Vibration    17          0.791              1.405              0.858
 Vibration    18          0.795              1.395              0.844
 Vibration    19          0.809              1.361              0.796
 Vibration    20          0.830              1.309              0.728
 Vibration    21          0.850              1.262              0.672
 Vibration    22          0.877              1.201              0.605
 Vibration    23          0.935              1.078              0.488
 Vibration    24          0.948              1.051              0.466

 Optimization completed.
    -- Stationary point found.
 Normal termination of Gaussian 16 at Thu Dec 10 17:03:31 2020.

 ----------------------------------------------------------------------
 # B3LYP/6-311++G(d,p) empiricaldispersion=gd3bj scf=xqc pop=npa geom=c
 heck
 ----------------------------------------------------------------------

 --------------------------------------
 CID_61934467_JID_5524_Energie_neutraal
 --------------------------------------
 Structure from the checkpoint file:  "JID_5524.chk"
 Charge =  0 Multiplicity = 1

 SCF Done:  E(RB3LYP) =  -1391.95721088     A.U. after   15 cycles
 Normal termination of Gaussian 16 at Thu Dec 10 17:13:42 2020.

 ----------------------------------------------------------------------
 # B3LYP/6-311++G(d,p) empiricaldispersion=gd3bj scf=xqc pop=npa geom=c
 heck
 ----------------------------------------------------------------------

 ------------------------------------
 CID_61934467_JID_5524_Energie_kation
 ------------------------------------
 Structure from the checkpoint file:  "JID_5524.chk"
 Charge =  1 Multiplicity = 2

 SCF Done:  E(UB3LYP) =  -1391.67090546     A.U. after   25 cycles
 Normal termination of Gaussian 16 at Thu Dec 10 17:26:54 2020.
 Gaussian 16:  ES64L-G16RevA.03 25-Dec-2016

 ----------------------------------------------------------------------
 # B3LYP/6-311++G(d,p) empiricaldispersion=gd3bj scf=xqc pop=npa geom=c
 heck
 ----------------------------------------------------------------------

 -----------------------------------
 CID_61934467_JID_5524_Energie_anion
 -----------------------------------
 Structure from the checkpoint file:  "JID_5524.chk"
 Charge = -1 Multiplicity = 2

                         Standard orientation:
 ---------------------------------------------------------------------
 Center     Atomic      Atomic             Coordinates (Angstroms)
 Number     Number       Type             X           Y           Z
 ---------------------------------------------------------------------
      1          6           0       -0.010906    3.302122   -0.586632
      2          6           0        0.535687    2.367439    0.495907
      3          6           0       -0.542667    2.088694    1.559281
      4          7           0        1.102751    1.198731   -0.176507
      5          6           0        1.849902    0.231555    0.584156
      6          6           0        1.070148   -0.899344    1.297397
      7         16           0        0.151569   -2.022860    0.151685
      8          6           0       -1.420066   -1.225887    0.034510
      9          6           0       -2.404690   -1.149773    0.989192
     10          6           0       -3.548600   -0.413025    0.561054
     11          6           0       -3.432980    0.050631   -0.722531
     12         16           0       -1.916651   -0.399291   -1.429243
     13          6           0        2.954794   -0.443235   -0.242819
     14          8           0        3.651208   -1.337781    0.191609
     15          8           0        3.085496    0.039510   -1.491846
     16          1           0       -0.857493    2.831203   -1.102775
     17          1           0        0.762228    3.521944   -1.328256
     18          1           0       -0.367006    4.241731   -0.151278
     19          1           0        1.377870    2.871710    0.992469
     20          1           0       -1.382407    1.531223    1.130624
     21          1           0       -0.145160    1.513101    2.401583
     22          1           0       -0.930853    3.030982    1.964465
     23          1           0        0.435577    0.759597   -0.802052
     24          1           0        2.387898    0.778391    1.373350
     25          1           0        1.776858   -1.548427    1.818993
     26          1           0        0.356017   -0.498162    2.015012
     27          1           0       -2.304366   -1.608029    1.966506
     28          1           0       -4.425281   -0.248041    1.177503
     29          1           0       -4.160902    0.604746   -1.299858
     30          1           0        3.801724   -0.487549   -1.894999
 ---------------------------------------------------------------------

 SCF Done:  E(UB3LYP) =  -1391.94900158     A.U. after   33 cycles
 SCF Done:  E(UB3LYP) =  -1391.94900158     a.u. after    1 cycles

 The electronic state is 2-A.
 Alpha  occ. eigenvalues --  -88.75070 -88.73522 -19.07256 -19.01255 -14.18565
 Alpha  occ. eigenvalues --  -10.20180 -10.11551 -10.09766 -10.08874 -10.08525
 Alpha  occ. eigenvalues --  -10.07095 -10.05838 -10.05510 -10.05357 -10.04759
 Alpha  occ. eigenvalues --   -7.83718  -7.82028  -5.80007  -5.79645  -5.79332
 Alpha  occ. eigenvalues --   -5.78428  -5.78045  -5.77430  -1.01294  -0.92044
 Alpha  occ. eigenvalues --   -0.81033  -0.76214  -0.69816  -0.66268  -0.62098
 Alpha  occ. eigenvalues --   -0.61502  -0.58158  -0.57964  -0.53772  -0.48540
 Alpha  occ. eigenvalues --   -0.48461  -0.44260  -0.41732  -0.41237  -0.39193
 Alpha  occ. eigenvalues --   -0.38349  -0.37489  -0.34996  -0.34593  -0.32636
 Alpha  occ. eigenvalues --   -0.31945  -0.30579  -0.30275  -0.29032  -0.28243
 Alpha  occ. eigenvalues --   -0.28154  -0.27769  -0.27251  -0.26291  -0.25366
 Alpha  occ. eigenvalues --   -0.24093  -0.23054  -0.22625  -0.22225  -0.21113
 Alpha  occ. eigenvalues --   -0.18676  -0.14170  -0.13669  -0.12164  -0.10556
 Alpha  occ. eigenvalues --    0.04779
 Alpha virt. eigenvalues --    0.06611   0.07030   0.07564   0.08119   0.08994
 Alpha virt. eigenvalues --    0.09727   0.09778   0.10117   0.11180   0.11471
 Alpha virt. eigenvalues --    0.12194   0.12623   0.12963   0.13461   0.13814

  Beta  occ. eigenvalues --  -88.75028 -88.73523 -19.07236 -19.01239 -14.18566
  Beta  occ. eigenvalues --  -10.20151 -10.11537 -10.09759 -10.08638 -10.08415
  Beta  occ. eigenvalues --  -10.06850 -10.05852 -10.05502 -10.05282 -10.04745
  Beta  occ. eigenvalues --   -7.83680  -7.82027  -5.79991  -5.79630  -5.79187
  Beta  occ. eigenvalues --   -5.78428  -5.78051  -5.77426  -1.01248  -0.92010
  Beta  occ. eigenvalues --   -0.81015  -0.75935  -0.69705  -0.66104  -0.61929
  Beta  occ. eigenvalues --   -0.61256  -0.58088  -0.57805  -0.53647  -0.48451
  Beta  occ. eigenvalues --   -0.48383  -0.43987  -0.41600  -0.41048  -0.39134
  Beta  occ. eigenvalues --   -0.38255  -0.37392  -0.34947  -0.34534  -0.32554
  Beta  occ. eigenvalues --   -0.31895  -0.30466  -0.30195  -0.28954  -0.28167
  Beta  occ. eigenvalues --   -0.28047  -0.27644  -0.26788  -0.26254  -0.25101
  Beta  occ. eigenvalues --   -0.24059  -0.22899  -0.22487  -0.22098  -0.20845
  Beta  occ. eigenvalues --   -0.18636  -0.13541  -0.13300  -0.11701  -0.10014
  Beta virt. eigenvalues --    0.06898   0.07384   0.07987   0.08257   0.08952
  Beta virt. eigenvalues --    0.09300   0.09863   0.10085   0.10264   0.11360
  Beta virt. eigenvalues --    0.11549   0.12220   0.12720   0.13140   0.13538

 Mulliken charges and spin densities:
               1          2
     1  C   -0.144701  -0.502849
     2  C   -0.139433   0.203597
     3  C   -0.101631  -0.452260
     4  N    0.268627  -0.069379
     5  C   -0.759315   0.385934
     6  C    0.639428  -0.841646
     7  S    0.164323  -0.141610
     8  C   -0.052149   0.192276
     9  C   -0.593313   0.151042
    10  C    0.031043  -0.315279
    11  C   -0.454181   0.101798
    12  S    0.289736   0.124149
    13  C   -0.049967  -0.162218
    14  O   -0.256763   0.019494
    15  O   -0.096988   0.000636
    16  H    0.042858   0.079825
    17  H    0.103601   0.052889
    18  H   -0.042627   0.161018
    19  H   -0.214824   0.361765
    20  H    0.335070  -0.111314
    21  H   -0.069192   0.194003
    22  H   -0.143986   0.275207
    23  H    0.255235  -0.081096
    24  H   -0.350491   0.523824
    25  H    0.048850   0.247634
    26  H    0.372031  -0.238807
    27  H   -0.120992   0.269289
    28  H   -0.032555   0.163443
    29  H    0.014449   0.200941
    30  H    0.057859   0.207695
 Sum of Mulliken charges =  -1.00000   1.00000

 Dipole moment (field-independent basis, Debye):
    X=             -0.5995    Y=              0.5641    Z=             -1.6287  Tot=              1.8250
 Quadrupole moment (field-independent basis, Debye-Ang):
   XX=           -156.1176   YY=           -146.7521   ZZ=           -130.1635
   XY=             -0.0301   XZ=             -4.5003   YZ=             -1.0508

 Summary of Natural Population Analysis:

                                       Natural Population
                Natural  -----------------------------------------------
    Atom  No    Charge         Core      Valence    Rydberg      Total
 -----------------------------------------------------------------------
      C    1   -0.28701      0.99964     2.28069    0.00668     3.28701
      C    2   -0.00640      0.99962     1.99496    0.01182     3.00640
      C    3   -0.29756      0.99964     2.29129    0.00663     3.29756
      N    4   -0.35223      0.99972     2.83948    0.01304     3.85223
      C    5   -0.05733      0.99953     2.04295    0.01485     3.05733
      C    6   -0.24267      0.99957     2.23101    0.01210     3.24267
      S    7    0.11417      4.99947     2.86733    0.01903     7.88583
      C    8   -0.16947      0.99943     2.15584    0.01419     3.16947
      C    9   -0.12167      0.99943     2.11107    0.01117     3.12167
      C   10   -0.13924      0.99953     2.12972    0.00999     3.13924
      C   11   -0.15683      0.99955     2.14606    0.01123     3.15683
      S   12    0.20950      4.99935     2.76935    0.02180     7.79050
      C   13    0.41292      0.99970     1.56035    0.02703     2.58708
      O   14   -0.31729      0.99987     3.31139    0.00603     4.31729
      O   15   -0.33227      0.99987     3.32594    0.00646     4.33227
      H   16    0.10023      0.00000     0.39856    0.00121     0.39977
      H   17    0.10162      0.00000     0.39746    0.00092     0.39838
      H   18    0.09635      0.00000     0.40294    0.00072     0.40365
      H   19    0.08502      0.00000     0.41318    0.00180     0.41498
      H   20    0.10768      0.00000     0.39039    0.00193     0.39232
      H   21    0.09556      0.00000     0.40326    0.00118     0.40444
      H   22    0.09555      0.00000     0.40349    0.00095     0.40445
      H   23    0.18384      0.00000     0.31230    0.00387     0.31616
      H   24    0.11149      0.00000     0.38662    0.00189     0.38851
      H   25    0.11329      0.00000     0.38543    0.00128     0.38671
      H   26    0.10786      0.00000     0.39068    0.00145     0.39214
      H   27    0.10456      0.00000     0.39431    0.00113     0.39544
      H   28    0.10166      0.00000     0.39742    0.00092     0.39834
      H   29    0.10254      0.00000     0.39646    0.00099     0.39746
      H   30    0.23614      0.00000     0.25965    0.00421     0.26386
 =======================================================================
   * Total *    0.00000     22.99392    41.78958    0.21650    65.00000

 Normal termination of Gaussian 16 at Thu Dec 10 17:42:23 2020.
