 Gaussian 16, Revision A.03,

 -----------------------------------------------------------
 # opt freq B3LYP/6-31G(d) empiricaldispersion=gd3bj scf=xqc
 -----------------------------------------------------------

 ------------------------------
 CID_63376311_JID_9541_neutraal
 ------------------------------
 Symbolic Z-matrix:
 Charge =  0 Multiplicity = 1

 SCF Done:  E(RB3LYP) =  -932.937540922     A.U. after   16 cycles
 SCF Done:  E(RB3LYP) =  -932.945315002     A.U. after   13 cycles
 SCF Done:  E(RB3LYP) =  -932.945967142     A.U. after   12 cycles
 SCF Done:  E(RB3LYP) =  -932.945981024     A.U. after   12 cycles
 SCF Done:  E(RB3LYP) =  -932.945967658     A.U. after   12 cycles
 SCF Done:  E(RB3LYP) =  -932.946088601     A.U. after   11 cycles
 SCF Done:  E(RB3LYP) =  -932.946093977     A.U. after    9 cycles
 SCF Done:  E(RB3LYP) =  -932.946097223     A.U. after    9 cycles
 SCF Done:  E(RB3LYP) =  -932.946097798     A.U. after    8 cycles
 Optimization completed.
    -- Stationary point found.
 Normal termination of Gaussian 16 at Sun Dec 13 16:06:57 2020.

 --------------------------------------------------------------------
 #N Geom=AllCheck Guess=TCheck SCRF=Check GenChk RB3LYP/6-31G(d) Freq
 --------------------------------------------------------------------

 Structure from the checkpoint file:  "JID_9541.chk"
 ------------------------------
 CID_63376311_JID_9541_neutraal
 ------------------------------
 Charge =  0 Multiplicity = 1

 SCF Done:  E(RB3LYP) =  -932.946097798     A.U. after    1 cycles

  Exact polarizability: 253.267   5.911 170.464   0.789   2.093  72.178
 Approx polarizability: 340.144  13.554 332.296  10.288   7.976 116.340

                      1                      2                      3
                      A                      A                      A
 Frequencies --     45.6728                58.5288                73.4333
 Red. masses --      6.0180                 7.2944                 5.9896
 Frc consts  --      0.0074                 0.0147                 0.0190
 IR Inten    --      1.0467                 1.5465                 1.8917

                      4                      5                      6
                      A                      A                      A
 Frequencies --    108.3426               124.1661               162.8790
 Red. masses --      5.4595                 6.3498                 4.6944
 Frc consts  --      0.0378                 0.0577                 0.0734
 IR Inten    --      3.1329                 1.1044                 0.9753

                      7                      8                      9
                      A                      A                      A
 Frequencies --    179.7751               203.8798               230.6791
 Red. masses --      4.1327                 5.5145                 4.9928
 Frc consts  --      0.0787                 0.1351                 0.1565
 IR Inten    --      1.5583                 2.6360                 1.1549

                     10                     11                     12
                      A                      A                      A
 Frequencies --    270.7349               282.5430               324.2389
 Red. masses --      6.5113                 6.1818                 7.0042
 Frc consts  --      0.2812                 0.2908                 0.4339
 IR Inten    --      1.8552                 3.1258                 1.8813

                     13                     14                     15
                      A                      A                      A
 Frequencies --    351.9564               363.8426               386.6910
 Red. masses --      2.4067                 5.7614                 6.6561
 Frc consts  --      0.1757                 0.4494                 0.5864
 IR Inten    --      3.9310                 1.5133                 2.2484

                     16                     17                     18
                      A                      A                      A
 Frequencies --    425.0051               428.2320               477.9953
 Red. masses --      8.2896                 4.4050                 3.2653
 Frc consts  --      0.8822                 0.4759                 0.4396
 IR Inten    --      0.1544                 0.7209                 1.0425

                     19                     20                     21
                      A                      A                      A
 Frequencies --    500.8661               525.5222               530.5199
 Red. masses --      2.3562                 3.4422                 1.3018
 Frc consts  --      0.3483                 0.5601                 0.2159
 IR Inten    --     10.9440                27.1064               125.6614

                     22                     23                     24
                      A                      A                      A
 Frequencies --    547.9741               567.8889               587.4484
 Red. masses --      4.3017                 3.2728                 6.1522
 Frc consts  --      0.7610                 0.6219                 1.2509
 IR Inten    --      5.0360                10.1725                 9.2364

                     25                     26                     27
                      A                      A                      A
 Frequencies --    621.0781               632.2445               646.6708
 Red. masses --      5.2561                 1.6012                 4.5291
 Frc consts  --      1.1946                 0.3771                 1.1159
 IR Inten    --     37.3668                48.3830                 9.4681

                     28                     29                     30
                      A                      A                      A
 Frequencies --    690.8583               703.8262               746.0827
 Red. masses --      4.9411                 5.1982                 5.0452
 Frc consts  --      1.3895                 1.5172                 1.6546
 IR Inten    --      2.1868                36.0092                 3.7995

                     31                     32                     33
                      A                      A                      A
 Frequencies --    747.8838               761.9260               781.2220
 Red. masses --      3.7695                 3.8955                 9.3528
 Frc consts  --      1.2422                 1.3324                 3.3631
 IR Inten    --      4.3880                10.6651                32.5608

                     34                     35                     36
                      A                      A                      A
 Frequencies --    817.8967               852.1095               868.0508
 Red. masses --      4.0706                 1.4748                 3.0689
 Frc consts  --      1.6044                 0.6309                 1.3625
 IR Inten    --     13.5904                21.4381                16.2527

                     37                     38                     39
                      A                      A                      A
 Frequencies --    899.8749               927.0956               944.2933
 Red. masses --      1.4880                 1.4288                 1.4306
 Frc consts  --      0.7099                 0.7235                 0.7516
 IR Inten    --     25.1846                 1.5703                14.6748

                     40                     41                     42
                      A                      A                      A
 Frequencies --    951.9346               973.3887               987.6639
 Red. masses --      3.0656                 2.5290                 6.2180
 Frc consts  --      1.6367                 1.4118                 3.5737
 IR Inten    --      0.1781                20.9454                21.7059

                     43                     44                     45
                      A                      A                      A
 Frequencies --   1070.8827              1089.4964              1100.5276
 Red. masses --      2.4940                 3.1418                 3.5107
 Frc consts  --      1.6851                 2.1973                 2.5052
 IR Inten    --     12.9983               156.0792                 1.4168

                     46                     47                     48
                      A                      A                      A
 Frequencies --   1115.4860              1170.5902              1184.4158
 Red. masses --      2.4303                 2.1018                 2.0674
 Frc consts  --      1.7817                 1.6969                 1.7088
 IR Inten    --     35.0162                 6.8420               414.4009

                     49                     50                     51
                      A                      A                      A
 Frequencies --   1196.6404              1236.1684              1248.0170
 Red. masses --      3.3230                 2.1891                 1.3024
 Frc consts  --      2.8035                 1.9710                 1.1951
 IR Inten    --     33.4292                90.1163                11.5822

                     52                     53                     54
                      A                      A                      A
 Frequencies --   1260.5894              1283.5417              1310.8051
 Red. masses --      1.2613                 3.3235                 1.3396
 Frc consts  --      1.1809                 3.2260                 1.3561
 IR Inten    --      0.1244                53.5307                18.3931

                     55                     56                     57
                      A                      A                      A
 Frequencies --   1325.5751              1342.8577              1350.8101
 Red. masses --      1.9319                 1.6359                 2.4275
 Frc consts  --      2.0001                 1.7381                 2.6097
 IR Inten    --    115.4091                34.5242               347.0466

                     58                     59                     60
                      A                      A                      A
 Frequencies --   1385.4674              1404.0949              1415.4020
 Red. masses --      7.9747                 1.5239                 1.9067
 Frc consts  --      9.0190                 1.7701                 2.2506
 IR Inten    --     79.8145                 4.0854                50.8881

                     61                     62                     63
                      A                      A                      A
 Frequencies --   1423.9563              1440.3331              1457.8852
 Red. masses --      1.5334                 1.3956                 3.6238
 Frc consts  --      1.8319                 1.7059                 4.5379
 IR Inten    --      4.1317                52.8227                36.3919

                     64                     65                     66
                      A                      A                      A
 Frequencies --   1490.0342              1520.7460              1523.3718
 Red. masses --      1.1002                 1.2261                 1.3551
 Frc consts  --      1.4392                 1.6706                 1.8529
 IR Inten    --      8.5456                47.7165                71.6768

                     67                     68                     69
                      A                      A                      A
 Frequencies --   1544.1434              1563.5612              1626.4779
 Red. masses --      2.0863                 5.4072                 3.9788
 Frc consts  --      2.9309                 7.7884                 6.2015
 IR Inten    --    280.8539                10.6514                60.9600

                     70                     71                     72
                      A                      A                      A
 Frequencies --   1662.1633              1677.0509              1729.7415
 Red. masses --      7.6963                 7.0649                10.7598
 Frc consts  --     12.5280                11.7071                18.9679
 IR Inten    --     29.0954               141.7212               311.1414

                     73                     74                     75
                      A                      A                      A
 Frequencies --   1850.5008              3022.8422              3027.5510
 Red. masses --     10.3732                 1.0694                 1.0690
 Frc consts  --     20.9286                 5.7573                 5.7731
 IR Inten    --    285.9826                20.5070                58.7556

                     76                     77                     78
                      A                      A                      A
 Frequencies --   3047.3640              3102.3424              3120.7704
 Red. masses --      1.0642                 1.0982                 1.0965
 Frc consts  --      5.8228                 6.2274                 6.2921
 IR Inten    --     33.2639                28.8213                33.5267

                     79                     80                     81
                      A                      A                      A
 Frequencies --   3123.5139              3204.5453              3234.7572
 Red. masses --      1.0990                 1.0912                 1.0907
 Frc consts  --      6.3174                 6.6020                 6.7242
 IR Inten    --     49.6437                 3.8051                 4.0487

                     82                     83                     84
                      A                      A                      A
 Frequencies --   3257.5770              3635.3346              3704.6924
 Red. masses --      1.0918                 1.0776                 1.0645
 Frc consts  --      6.8264                 8.3904                 8.6082
 IR Inten    --      1.5710               100.5687               109.3752

 - Thermochemistry -
 -------------------
 Temperature   298.150 Kelvin.  Pressure   1.00000 Atm.
 Atom     1 has atomic number  6 and mass  12.00000

 Molecular mass:   261.06372 amu.
 Principal axes and moments of inertia in atomic units:
                           1         2         3
     Eigenvalues --  1987.511209145.01723**********
           X            0.99998   0.00062  -0.00584
           Y           -0.00063   1.00000  -0.00211
           Z            0.00584   0.00211   0.99998
 This molecule is an asymmetric top.
 Rotational symmetry number  1.
 Warning -- assumption of classical behavior for rotation
           may cause significant error
 Rotational temperatures (Kelvin)      0.04358     0.00947     0.00790
 Rotational constants (GHZ):           0.90804     0.19735     0.16466
 Zero-point vibrational energy     602891.2 (Joules/Mol)
                                  144.09446 (Kcal/Mol)
 Warning -- explicit consideration of  24 degrees of freedom as
           vibrations may cause significant error
 Vibrational temperatures:     65.71    84.21   105.65   155.88   178.65
          (Kelvin)            234.35   258.66   293.34   331.90   389.53
                              406.52   466.51   506.39   523.49   556.36
                              611.49   616.13   687.73   720.63   756.11
                              763.30   788.41   817.07   845.21   893.59
                              909.66   930.42   993.99  1012.65  1073.45
                             1076.04  1096.24  1124.00  1176.77  1226.00
                             1248.93  1294.72  1333.88  1358.63  1369.62
                             1400.49  1421.03  1540.76  1567.54  1583.41
                             1604.94  1684.22  1704.11  1721.70  1778.57
                             1795.62  1813.71  1846.73  1885.96  1907.21
                             1932.07  1943.51  1993.38  2020.18  2036.45
                             2048.76  2072.32  2097.57  2143.83  2188.01
                             2191.79  2221.68  2249.62  2340.14  2391.48
                             2412.90  2488.71  2662.46  4349.20  4355.97
                             4384.48  4463.58  4490.09  4494.04  4610.63
                             4654.09  4686.93  5230.44  5330.23

 Zero-point correction=                           0.229629 (Hartree/Particle)
 Thermal correction to Energy=                    0.244711
 Thermal correction to Enthalpy=                  0.245655
 Thermal correction to Gibbs Free Energy=         0.187103
 Sum of electronic and zero-point Energies=           -932.716469
 Sum of electronic and thermal Energies=              -932.701387
 Sum of electronic and thermal Enthalpies=            -932.700442
 Sum of electronic and thermal Free Energies=         -932.758995

                     E (Thermal)             CV                S
                      KCal/Mol        Cal/Mol-Kelvin    Cal/Mol-Kelvin
 Total                  153.559             59.795            123.234
 Electronic               0.000              0.000              0.000
 Translational            0.889              2.981             42.578
 Rotational               0.889              2.981             33.654
 Vibrational            151.781             53.833             47.001
 Vibration     1          0.595              1.979              4.996
 Vibration     2          0.596              1.974              4.506
 Vibration     3          0.599              1.967              4.059
 Vibration     4          0.606              1.943              3.298
 Vibration     5          0.610              1.929              3.034
 Vibration     6          0.623              1.888              2.516
 Vibration     7          0.629              1.867              2.331
 Vibration     8          0.640              1.834              2.098
 Vibration     9          0.652              1.794              1.874
 Vibration    10          0.674              1.727              1.592
 Vibration    11          0.682              1.706              1.518
 Vibration    12          0.709              1.627              1.289
 Vibration    13          0.729              1.571              1.157
 Vibration    14          0.737              1.547              1.106
 Vibration    15          0.755              1.499              1.013
 Vibration    16          0.787              1.416              0.875
 Vibration    17          0.790              1.409              0.864
 Vibration    18          0.834              1.299              0.715
 Vibration    19          0.856              1.248              0.656
 Vibration    20          0.880              1.194              0.597
 Vibration    21          0.885              1.182              0.586
 Vibration    22          0.903              1.144              0.548
 Vibration    23          0.924              1.101              0.508
 Vibration    24          0.945              1.059              0.472

 Optimization completed.
    -- Stationary point found.
 Normal termination of Gaussian 16 at Sun Dec 13 16:21:07 2020.

 ----------------------------------------------------------------------
 # B3LYP/6-311++G(d,p) empiricaldispersion=gd3bj scf=xqc pop=npa geom=c
 heck
 ----------------------------------------------------------------------

 --------------------------------------
 CID_63376311_JID_9541_Energie_neutraal
 --------------------------------------
 Structure from the checkpoint file:  "JID_9541.chk"
 Charge =  0 Multiplicity = 1

 SCF Done:  E(RB3LYP) =  -933.212769739     A.U. after   18 cycles
 Normal termination of Gaussian 16 at Sun Dec 13 16:28:09 2020.

 ----------------------------------------------------------------------
 # B3LYP/6-311++G(d,p) empiricaldispersion=gd3bj scf=xqc pop=npa geom=c
 heck
 ----------------------------------------------------------------------

 ------------------------------------
 CID_63376311_JID_9541_Energie_kation
 ------------------------------------
 Structure from the checkpoint file:  "JID_9541.chk"
 Charge =  1 Multiplicity = 2

 SCF Done:  E(UB3LYP) =  -932.925148367     A.U. after   28 cycles
 Normal termination of Gaussian 16 at Sun Dec 13 16:43:18 2020.
 Gaussian 16:  ES64L-G16RevA.03 25-Dec-2016

 ----------------------------------------------------------------------
 # B3LYP/6-311++G(d,p) empiricaldispersion=gd3bj scf=xqc pop=npa geom=c
 heck
 ----------------------------------------------------------------------

 -----------------------------------
 CID_63376311_JID_9541_Energie_anion
 -----------------------------------
 Structure from the checkpoint file:  "JID_9541.chk"
 Charge = -1 Multiplicity = 2

                         Standard orientation:
 ---------------------------------------------------------------------
 Center     Atomic      Atomic             Coordinates (Angstroms)
 Number     Number       Type             X           Y           Z
 ---------------------------------------------------------------------
      1          6           0       -4.869466   -0.523217    0.251769
      2          6           0       -4.261054    0.850555    0.500053
      3          8           0       -3.249958    1.185241   -0.454404
      4          6           0       -2.011205    0.621759   -0.280257
      5          6           0       -1.801152   -0.783859   -0.306598
      6          6           0       -0.513617   -1.293608   -0.225762
      7          6           0        0.586935   -0.428679   -0.130180
      8          6           0        0.389887    0.967595   -0.093620
      9          6           0       -0.918947    1.463991   -0.166381
     10          6           0        1.534170    1.900047    0.023375
     11          8           0        1.391200    3.124187    0.065397
     12          6           0        2.839418    1.250598    0.086619
     13          6           0        2.960674   -0.105174    0.043495
     14          7           0        1.871975   -0.931472   -0.059867
     15          6           0        4.299200   -0.751280    0.108147
     16          8           0        5.354009   -0.168711    0.201436
     17          8           0        4.204661   -2.108891    0.048955
     18          8           0       -2.816284   -1.684246   -0.480404
     19          6           0       -3.886727   -1.664323    0.473871
     20          1           0       -5.251699   -0.569056   -0.774288
     21          1           0       -5.721500   -0.661137    0.931869
     22          1           0       -5.019680    1.629967    0.390481
     23          1           0       -3.844086    0.915419    1.515828
     24          1           0       -0.382399   -2.371037   -0.253686
     25          1           0       -1.063858    2.538473   -0.152296
     26          1           0        3.728450    1.862313    0.169668
     27          1           0        2.027038   -1.928888   -0.094379
     28          1           0        5.116724   -2.449995    0.094843
     29          1           0       -3.465796   -1.623815    1.489000
     30          1           0       -4.384731   -2.629010    0.346997
 ---------------------------------------------------------------------

 SCF Done:  E(UB3LYP) =  -933.245628438     A.U. after   25 cycles

 The electronic state is 2-A.
 Alpha  occ. eigenvalues --  -19.04770 -19.04453 -19.03976 -18.96289 -18.91877
 Alpha  occ. eigenvalues --  -14.22364 -10.14897 -10.14440 -10.13931 -10.11740
 Alpha  occ. eigenvalues --  -10.10532 -10.10131 -10.09661 -10.08047 -10.07178
 Alpha  occ. eigenvalues --  -10.05333 -10.04701 -10.04366 -10.01376  -0.97805
 Alpha  occ. eigenvalues --   -0.97184  -0.94892  -0.88323  -0.85924  -0.84284
 Alpha  occ. eigenvalues --   -0.73952  -0.70246  -0.65837  -0.63720  -0.62762
 Alpha  occ. eigenvalues --   -0.59222  -0.55637  -0.51931  -0.49939  -0.49109
 Alpha  occ. eigenvalues --   -0.46966  -0.44764  -0.42854  -0.42110  -0.40274
 Alpha  occ. eigenvalues --   -0.38451  -0.37383  -0.35263  -0.34836  -0.34322
 Alpha  occ. eigenvalues --   -0.33586  -0.33021  -0.32479  -0.32189  -0.31544
 Alpha  occ. eigenvalues --   -0.30450  -0.29032  -0.28447  -0.27553  -0.25736
 Alpha  occ. eigenvalues --   -0.25410  -0.24067  -0.23350  -0.22944  -0.21323
 Alpha  occ. eigenvalues --   -0.20314  -0.20035  -0.18150  -0.14945  -0.13384
 Alpha  occ. eigenvalues --   -0.12183  -0.08880  -0.08197   0.02484
 Alpha virt. eigenvalues --    0.05635   0.07593   0.08006   0.08236   0.09396
 Alpha virt. eigenvalues --    0.09506   0.10725   0.11041   0.11584   0.12348
 Alpha virt. eigenvalues --    0.12513   0.13278   0.13901   0.14497   0.15330

  Beta  occ. eigenvalues --  -19.04770 -19.04378 -19.03976 -18.95930 -18.91555
  Beta  occ. eigenvalues --  -14.22250 -10.14627 -10.14435 -10.13927 -10.11690
  Beta  occ. eigenvalues --  -10.10491 -10.10167 -10.09657 -10.07924 -10.06906
  Beta  occ. eigenvalues --  -10.05211 -10.04747 -10.04249 -10.01284  -0.97477
  Beta  occ. eigenvalues --   -0.97153  -0.94877  -0.87786  -0.85425  -0.83963
  Beta  occ. eigenvalues --   -0.73821  -0.70182  -0.65540  -0.63408  -0.62603
  Beta  occ. eigenvalues --   -0.59046  -0.55155  -0.51787  -0.49782  -0.48967
  Beta  occ. eigenvalues --   -0.46612  -0.44700  -0.42705  -0.41995  -0.40209
  Beta  occ. eigenvalues --   -0.38229  -0.37355  -0.35000  -0.34619  -0.34170
  Beta  occ. eigenvalues --   -0.33460  -0.32407  -0.32173  -0.31665  -0.31429
  Beta  occ. eigenvalues --   -0.30296  -0.28485  -0.28173  -0.27379  -0.25593
  Beta  occ. eigenvalues --   -0.25243  -0.23888  -0.23146  -0.21760  -0.20798
  Beta  occ. eigenvalues --   -0.19982  -0.18957  -0.17821  -0.14578  -0.12388
  Beta  occ. eigenvalues --   -0.11505  -0.08568  -0.06888
  Beta virt. eigenvalues --    0.05543   0.07556   0.07899   0.08051   0.08324
  Beta virt. eigenvalues --    0.09429   0.10551   0.10709   0.10993   0.11799
  Beta virt. eigenvalues --    0.12445   0.12747   0.13266   0.13886   0.14512

 Mulliken charges and spin densities:
               1          2
     1  C   -0.160769  -0.087342
     2  C   -0.258472   0.023317
     3  O   -0.131924  -0.000608
     4  C   -0.446322   0.013411
     5  C   -0.287895   0.000392
     6  C   -0.689949   0.088864
     7  C   -1.278983  -0.043895
     8  C    2.587027   0.000625
     9  C   -0.018721   0.110132
    10  C   -1.030349   0.083673
    11  O   -0.428185   0.119406
    12  C    0.311269   0.111476
    13  C    0.071356   0.157204
    14  N   -0.049482   0.041411
    15  C   -0.043816   0.159029
    16  O   -0.422135   0.124461
    17  O   -0.260958   0.017011
    18  O   -0.138872   0.000618
    19  C   -0.251871   0.035029
    20  H    0.157042   0.007633
    21  H    0.080640   0.028634
    22  H    0.158179   0.015987
    23  H    0.118078  -0.002739
    24  H    0.142188  -0.008136
    25  H    0.210157  -0.009513
    26  H    0.205106  -0.004965
    27  H    0.293691  -0.000745
    28  H    0.292279  -0.001498
    29  H    0.125558  -0.002336
    30  H    0.146134   0.023464
 Sum of Mulliken charges =  -1.00000   1.00000

 Dipole moment (field-independent basis, Debye):
    X=             -9.4930    Y=             -7.6099    Z=              1.5317  Tot=             12.2627
 Quadrupole moment (field-independent basis, Debye-Ang):
   XX=           -160.6013   YY=           -136.8541   ZZ=           -117.0834
   XY=            -14.4089   XZ=             -8.9520   YZ=             -1.1996

 Summary of Natural Population Analysis:

                                       Natural Population
                Natural  -----------------------------------------------
    Atom  No    Charge         Core      Valence    Rydberg      Total
 -----------------------------------------------------------------------
      C    1   -0.21924      0.99963     2.21211    0.00751     3.21924
      C    2   -0.00849      0.99957     1.99638    0.01254     3.00849
      O    3   -0.28948      0.99986     3.27912    0.01050     4.28948
      C    4    0.11675      0.99933     1.87087    0.01305     2.88325
      C    5    0.14390      0.99935     1.84330    0.01346     2.85610
      C    6   -0.11544      0.99950     2.10783    0.00811     3.11544
      C    7    0.09055      0.99949     1.90062    0.00934     2.90945
      C    8   -0.07938      0.99946     2.07142    0.00850     3.07938
      C    9   -0.06866      0.99950     2.05985    0.00930     3.06866
      C   10    0.24604      0.99957     1.73401    0.02038     2.75396
      O   11   -0.29584      0.99989     3.28914    0.00682     4.29584
      C   12   -0.12436      0.99951     2.11556    0.00929     3.12436
      C   13    0.09663      0.99947     1.89250    0.01140     2.90337
      N   14   -0.26016      0.99963     2.75282    0.00770     3.76016
      C   15    0.41966      0.99968     1.55651    0.02415     2.58034
      O   16   -0.28281      0.99987     3.27504    0.00790     4.28281
      O   17   -0.36409      0.99988     3.35822    0.00599     4.36409
      O   18   -0.29056      0.99986     3.27988    0.01082     4.29056
      C   19   -0.00799      0.99957     1.99631    0.01212     3.00799
      H   20    0.10191      0.00000     0.39630    0.00179     0.39809
      H   21    0.09708      0.00000     0.40092    0.00200     0.40292
      H   22    0.08771      0.00000     0.41080    0.00149     0.41229
      H   23    0.08133      0.00000     0.41735    0.00132     0.41867
      H   24    0.09763      0.00000     0.40060    0.00176     0.40237
      H   25    0.11384      0.00000     0.38402    0.00214     0.38616
      H   26    0.11056      0.00000     0.38825    0.00119     0.38944
      H   27    0.19943      0.00000     0.29847    0.00211     0.30057
      H   28    0.23488      0.00000     0.26183    0.00329     0.26512
      H   29    0.08087      0.00000     0.41703    0.00209     0.41913
      H   30    0.08774      0.00000     0.41078    0.00148     0.41226
 =======================================================================
   * Total *   -0.00000     18.99259    48.77786    0.22955    68.00000

 Normal termination of Gaussian 16 at Sun Dec 13 16:57:14 2020.
