 Gaussian 16, Revision A.03,

 -----------------------------------------------------------
 # opt freq B3LYP/6-31G(d) empiricaldispersion=gd3bj scf=xqc
 -----------------------------------------------------------

 -------------------------------
 CID_105727430_JID_9052_neutraal
 -------------------------------
 Symbolic Z-matrix:
 Charge =  0 Multiplicity = 1

 SCF Done:  E(RB3LYP) =  -865.894128194     A.U. after   14 cycles
 SCF Done:  E(RB3LYP) =  -865.899086712     A.U. after   12 cycles
 SCF Done:  E(RB3LYP) =  -865.899339441     A.U. after   12 cycles
 SCF Done:  E(RB3LYP) =  -865.900202565     A.U. after   11 cycles
 SCF Done:  E(RB3LYP) =  -865.900638058     A.U. after   11 cycles
 SCF Done:  E(RB3LYP) =  -865.901075493     A.U. after   11 cycles
 SCF Done:  E(RB3LYP) =  -865.901379214     A.U. after   11 cycles
 SCF Done:  E(RB3LYP) =  -865.901657395     A.U. after   11 cycles
 SCF Done:  E(RB3LYP) =  -865.901828736     A.U. after   11 cycles
 SCF Done:  E(RB3LYP) =  -865.901906263     A.U. after   11 cycles
 SCF Done:  E(RB3LYP) =  -865.901983670     A.U. after    7 cycles
 SCF Done:  E(RB3LYP) =  -865.901983743     A.U. after    6 cycles
 SCF Done:  E(RB3LYP) =  -865.901983825     A.U. after    7 cycles
 SCF Done:  E(RB3LYP) =  -865.901983845     A.U. after    7 cycles
 SCF Done:  E(RB3LYP) =  -865.901983865     A.U. after    6 cycles
 Optimization completed.
    -- Stationary point found.
 Normal termination of Gaussian 16 at Mon Dec 14 13:32:17 2020.

 --------------------------------------------------------------------
 #N Geom=AllCheck Guess=TCheck SCRF=Check GenChk RB3LYP/6-31G(d) Freq
 --------------------------------------------------------------------

 Structure from the checkpoint file:  "JID_9052.chk"
 -------------------------------
 CID_105727430_JID_9052_neutraal
 -------------------------------
 Charge =  0 Multiplicity = 1

 SCF Done:  E(RB3LYP) =  -865.901983865     A.U. after    1 cycles

  Exact polarizability: 220.714 -15.898 148.369   9.538  12.570 150.083
 Approx polarizability: 288.841 -26.814 209.552  10.965  33.670 249.489

                      1                      2                      3
                      A                      A                      A
 Frequencies --     26.4439                30.9091                51.2871
 Red. masses --      3.7226                 4.2552                 3.0777
 Frc consts  --      0.0015                 0.0024                 0.0048
 IR Inten    --      0.4605                 0.5376                 0.5152

                      4                      5                      6
                      A                      A                      A
 Frequencies --     65.8575                77.3325                92.4419
 Red. masses --      2.3509                 2.3299                 3.5244
 Frc consts  --      0.0060                 0.0082                 0.0177
 IR Inten    --      0.3429                 3.0775                 6.0833

                      7                      8                      9
                      A                      A                      A
 Frequencies --    110.9255               122.8077               135.4364
 Red. masses --      2.0700                 4.1148                 2.8411
 Frc consts  --      0.0150                 0.0366                 0.0307
 IR Inten    --      0.1277                 0.1530                 1.2371

                     10                     11                     12
                      A                      A                      A
 Frequencies --    144.8668               152.7619               174.0488
 Red. masses --      3.3833                 1.6716                 2.3544
 Frc consts  --      0.0418                 0.0230                 0.0420
 IR Inten    --      1.0652                 0.3995                 1.9739

                     13                     14                     15
                      A                      A                      A
 Frequencies --    194.6251               224.2577               238.2089
 Red. masses --      2.3629                 1.5443                 1.9812
 Frc consts  --      0.0527                 0.0458                 0.0662
 IR Inten    --      1.1379                 0.8587                 6.1178

                     16                     17                     18
                      A                      A                      A
 Frequencies --    245.2665               264.6246               268.4049
 Red. masses --      3.3305                 1.2100                 1.7379
 Frc consts  --      0.1180                 0.0499                 0.0738
 IR Inten    --      1.3063                27.9010                 1.5475

                     19                     20                     21
                      A                      A                      A
 Frequencies --    293.1460               322.4009               349.9439
 Red. masses --      2.3486                 2.6108                 4.1493
 Frc consts  --      0.1189                 0.1599                 0.2994
 IR Inten    --      5.7819                 6.2297                 5.4875

                     22                     23                     24
                      A                      A                      A
 Frequencies --    352.4584               386.5766               426.9303
 Red. masses --      3.7091                 3.1456                 4.2730
 Frc consts  --      0.2715                 0.2770                 0.4589
 IR Inten    --      3.3915                 9.3453                 6.2316

                     25                     26                     27
                      A                      A                      A
 Frequencies --    475.5746               488.5513               520.3205
 Red. masses --      4.0214                 2.9299                 3.9601
 Frc consts  --      0.5359                 0.4120                 0.6317
 IR Inten    --      3.4013                 2.2557                 0.4517

                     28                     29                     30
                      A                      A                      A
 Frequencies --    523.9680               592.6034               613.5655
 Red. masses --      3.5126                 5.2784                 4.5843
 Frc consts  --      0.5682                 1.0921                 1.0168
 IR Inten    --      3.0421                 4.4685                 1.6995

                     31                     32                     33
                      A                      A                      A
 Frequencies --    672.4459               699.4550               718.9993
 Red. masses --      4.0393                 3.4627                 3.5984
 Frc consts  --      1.0761                 0.9981                 1.0960
 IR Inten    --     13.1382                 1.8744                 1.8680

                     34                     35                     36
                      A                      A                      A
 Frequencies --    743.2387               772.2908               778.7472
 Red. masses --      4.2979                 4.7589                 2.0509
 Frc consts  --      1.3988                 1.6723                 0.7328
 IR Inten    --      2.9123                19.7190                24.8624

                     37                     38                     39
                      A                      A                      A
 Frequencies --    794.4455               822.2450               832.8071
 Red. masses --      2.0118                 1.6049                 1.5085
 Frc consts  --      0.7481                 0.6393                 0.6164
 IR Inten    --     16.1444                15.2695                 2.0233

                     40                     41                     42
                      A                      A                      A
 Frequencies --    880.7185               903.7506               911.4870
 Red. masses --      2.7693                 1.5333                 2.2209
 Frc consts  --      1.2656                 0.7379                 1.0871
 IR Inten    --      5.7486                13.5028                30.1640

                     43                     44                     45
                      A                      A                      A
 Frequencies --    922.1291               931.5398               945.4122
 Red. masses --      1.3691                 2.1193                 2.2621
 Frc consts  --      0.6859                 1.0835                 1.1912
 IR Inten    --      7.3404                46.8968                28.5109

                     46                     47                     48
                      A                      A                      A
 Frequencies --    958.1355               979.3865              1013.1668
 Red. masses --      1.8560                 2.5497                 2.7547
 Frc consts  --      1.0039                 1.4410                 1.6660
 IR Inten    --     42.5939                84.4515                23.6546

                     49                     50                     51
                      A                      A                      A
 Frequencies --   1039.3486              1061.1384              1064.7065
 Red. masses --      1.8168                 4.4211                 3.4669
 Frc consts  --      1.1563                 2.9331                 2.3155
 IR Inten    --      4.0631                51.6263                74.2871

                     52                     53                     54
                      A                      A                      A
 Frequencies --   1079.3485              1089.9656              1092.7590
 Red. masses --      6.3497                 1.9836                 1.8533
 Frc consts  --      4.3584                 1.3884                 1.3039
 IR Inten    --     40.8004                12.6317                90.2656

                     55                     56                     57
                      A                      A                      A
 Frequencies --   1124.8149              1159.5763              1164.5015
 Red. masses --      2.1966                 2.0698                 1.9634
 Frc consts  --      1.6374                 1.6397                 1.5687
 IR Inten    --      5.5748                20.7020                95.2170

                     58                     59                     60
                      A                      A                      A
 Frequencies --   1184.8835              1185.6996              1187.0699
 Red. masses --      1.9970                 1.2657                 1.2698
 Frc consts  --      1.6518                 1.0484                 1.0542
 IR Inten    --      5.3051                 4.8800                 1.1506

                     61                     62                     63
                      A                      A                      A
 Frequencies --   1194.7014              1209.6481              1219.5937
 Red. masses --      1.6352                 1.4995                 1.4640
 Frc consts  --      1.3751                 1.2927                 1.2830
 IR Inten    --      1.3076                 9.5728                 4.5044

                     64                     65                     66
                      A                      A                      A
 Frequencies --   1223.1285              1227.6140              1247.9648
 Red. masses --      1.3483                 1.3065                 1.3800
 Frc consts  --      1.1884                 1.1600                 1.2663
 IR Inten    --      2.4403                 5.3786                 4.5435

                     67                     68                     69
                      A                      A                      A
 Frequencies --   1268.9724              1282.5118              1305.3956
 Red. masses --      2.4793                 1.3178                 1.8894
 Frc consts  --      2.3523                 1.2771                 1.8970
 IR Inten    --     96.1297                 2.7240                 1.5722

                     70                     71                     72
                      A                      A                      A
 Frequencies --   1316.0385              1317.2615              1323.1741
 Red. masses --      2.3043                 1.3878                 1.9872
 Frc consts  --      2.3514                 1.4188                 2.0498
 IR Inten    --    125.7120                53.0231               179.6523

                     73                     74                     75
                      A                      A                      A
 Frequencies --   1338.6961              1356.6606              1367.6071
 Red. masses --      1.3172                 1.4166                 1.5564
 Frc consts  --      1.3908                 1.5362                 1.7152
 IR Inten    --      7.5686                 5.7988                24.6406

                     76                     77                     78
                      A                      A                      A
 Frequencies --   1377.6939              1408.0149              1409.5478
 Red. masses --      2.0283                 1.4622                 1.3390
 Frc consts  --      2.2682                 1.7080                 1.5674
 IR Inten    --      1.2848                 0.5112                 9.5633

                     79                     80                     81
                      A                      A                      A
 Frequencies --   1429.6977              1436.5987              1446.4359
 Red. masses --      1.3548                 1.2572                 1.5437
 Frc consts  --      1.6316                 1.5287                 1.9029
 IR Inten    --      2.1292                 2.1898                 2.9916

                     82                     83                     84
                      A                      A                      A
 Frequencies --   1468.2435              1495.9185              1503.6444
 Red. masses --      1.9271                 1.2316                 1.0844
 Frc consts  --      2.4477                 1.6238                 1.4445
 IR Inten    --     29.7972                14.6121                 5.2432

                     85                     86                     87
                      A                      A                      A
 Frequencies --   1508.1694              1514.8371              1520.8780
 Red. masses --      1.3978                 1.0597                 1.0479
 Frc consts  --      1.8733                 1.4327                 1.4281
 IR Inten    --      5.9828                 7.8876                 5.6476

                     88                     89                     90
                      A                      A                      A
 Frequencies --   1523.8159              1527.0086              1535.5764
 Red. masses --      1.0877                 1.0439                 1.0754
 Frc consts  --      1.4880                 1.4342                 1.4940
 IR Inten    --      9.6600                 4.3410                53.0994

                     91                     92                     93
                      A                      A                      A
 Frequencies --   1539.6109              1541.4164              1560.4131
 Red. masses --      1.0593                 1.0512                 1.0986
 Frc consts  --      1.4794                 1.4715                 1.5760
 IR Inten    --      3.9770                 4.7158                 1.4551

                     94                     95                     96
                      A                      A                      A
 Frequencies --   1563.4905              1634.6588              1668.0425
 Red. masses --      2.6667                 6.5305                 6.0882
 Frc consts  --      3.8407                10.2813                 9.9805
 IR Inten    --    157.4681                10.3246                15.7593

                     97                     98                     99
                      A                      A                      A
 Frequencies --   1697.4036              2932.8780              3025.9784
 Red. masses --      1.0870                 1.0826                 1.0349
 Frc consts  --      1.8452                 5.4867                 5.5834
 IR Inten    --     21.0023                70.4375                68.8871

                    100                    101                    102
                      A                      A                      A
 Frequencies --   3027.2254              3034.9593              3046.6615
 Red. masses --      1.0662                 1.0392                 1.0384
 Frc consts  --      5.7567                 5.6396                 5.6791
 IR Inten    --     88.8145                56.5221                39.7603

                    103                    104                    105
                      A                      A                      A
 Frequencies --   3054.5413              3065.9082              3066.8935
 Red. masses --      1.0814                 1.0675                 1.0785
 Frc consts  --      5.9445                 5.9119                 5.9767
 IR Inten    --      5.4306                 7.3273                49.3829

                    106                    107                    108
                      A                      A                      A
 Frequencies --   3073.2627              3082.7507              3084.9777
 Red. masses --      1.0893                 1.0862                 1.1065
 Frc consts  --      6.0615                 6.0821                 6.2047
 IR Inten    --     14.4855                77.2183                41.3350

                    109                    110                    111
                      A                      A                      A
 Frequencies --   3101.9366              3114.6195              3120.9895
 Red. masses --      1.0992                 1.0958                 1.0987
 Frc consts  --      6.2316                 6.2633                 6.3052
 IR Inten    --     15.6569                39.8665                34.9208

                    112                    113                    114
                      A                      A                      A
 Frequencies --   3138.6206              3155.3244              3155.8878
 Red. masses --      1.1016                 1.1053                 1.0968
 Frc consts  --      6.3936                 6.4836                 6.4358
 IR Inten    --     27.5039                27.8657                 5.6845

                    115                    116                    117
                      A                      A                      A
 Frequencies --   3160.4993              3184.9844              3192.9923
 Red. masses --      1.0998                 1.0880                 1.0902
 Frc consts  --      6.4725                 6.5025                 6.5486
 IR Inten    --     26.5989                14.0376                 5.7775

                    118                    119                    120
                      A                      A                      A
 Frequencies --   3224.6293              3442.7671              3527.9994
 Red. masses --      1.0911                 1.0504                 1.0909
 Frc consts  --      6.6844                 7.3351                 8.0002
 IR Inten    --     12.5460                 2.1978                 0.2825

 - Thermochemistry -
 -------------------
 Temperature   298.150 Kelvin.  Pressure   1.00000 Atm.
 Atom     1 has atomic number  6 and mass  12.00000

 Molecular mass:   265.16779 amu.
 Principal axes and moments of inertia in atomic units:
                           1         2         3
     Eigenvalues --  2827.532588708.320989494.37765
           X            0.99997  -0.00455   0.00558
           Y            0.00453   0.99999   0.00267
           Z           -0.00559  -0.00265   0.99998
 This molecule is an asymmetric top.
 Rotational symmetry number  1.
 Warning -- assumption of classical behavior for rotation
           may cause significant error
 Rotational temperatures (Kelvin)      0.03063     0.00995     0.00912
 Rotational constants (GHZ):           0.63827     0.20724     0.19009
 Zero-point vibrational energy     964238.8 (Joules/Mol)
                                  230.45859 (Kcal/Mol)
 Warning -- explicit consideration of  30 degrees of freedom as
           vibrations may cause significant error
 Vibrational temperatures:     38.05    44.47    73.79    94.75   111.26
          (Kelvin)            133.00   159.60   176.69   194.86   208.43
                              219.79   250.42   280.02   322.66   342.73
                              352.88   380.74   386.17   421.77   463.86
                              503.49   507.11   556.20   614.26   684.25
                              702.92   748.63   753.87   852.62   882.78
                              967.50  1006.36  1034.48  1069.35  1111.15
                             1120.44  1143.03  1183.03  1198.22  1267.16
                             1300.30  1311.43  1326.74  1340.28  1360.24
                             1378.54  1409.12  1457.72  1495.39  1526.74
                             1531.88  1552.94  1568.22  1572.24  1618.36
                             1668.37  1675.46  1704.78  1705.96  1707.93
                             1718.91  1740.41  1754.72  1759.81  1766.26
                             1795.54  1825.77  1845.25  1878.17  1893.49
                             1895.25  1903.75  1926.09  1951.93  1967.68
                             1982.19  2025.82  2028.02  2057.02  2066.95
                             2081.10  2112.47  2152.29  2163.41  2169.92
                             2179.51  2188.20  2192.43  2197.02  2209.35
                             2215.16  2217.75  2245.09  2249.51  2351.91
                             2399.94  2442.19  4219.76  4353.71  4355.50
                             4366.63  4383.47  4394.80  4411.16  4412.58
                             4421.74  4435.39  4438.59  4462.99  4481.24
                             4490.41  4515.77  4539.81  4540.62  4547.25
                             4582.48  4594.00  4639.52  4953.37  5076.00

 Zero-point correction=                           0.367259 (Hartree/Particle)
 Thermal correction to Energy=                    0.387190
 Thermal correction to Enthalpy=                  0.388134
 Thermal correction to Gibbs Free Energy=         0.317828
 Sum of electronic and zero-point Energies=           -865.534725
 Sum of electronic and thermal Energies=              -865.514794
 Sum of electronic and thermal Enthalpies=            -865.513850
 Sum of electronic and thermal Free Energies=         -865.584156

                     E (Thermal)             CV                S
                      KCal/Mol        Cal/Mol-Kelvin    Cal/Mol-Kelvin
 Total                  242.965             74.156            147.970
 Electronic               0.000              0.000              0.000
 Translational            0.889              2.981             42.625
 Rotational               0.889              2.981             33.813
 Vibrational            241.188             68.195             71.532
 Vibration     1          0.593              1.985              6.080
 Vibration     2          0.594              1.984              5.770
 Vibration     3          0.596              1.977              4.767
 Vibration     4          0.597              1.971              4.273
 Vibration     5          0.599              1.964              3.957
 Vibration     6          0.602              1.955              3.608
 Vibration     7          0.607              1.940              3.253
 Vibration     8          0.610              1.930              3.056
 Vibration     9          0.613              1.918              2.867
 Vibration    10          0.616              1.908              2.739
 Vibration    11          0.619              1.900              2.638
 Vibration    12          0.627              1.874              2.391
 Vibration    13          0.635              1.847              2.183
 Vibration    14          0.649              1.804              1.924
 Vibration    15          0.656              1.782              1.816
 Vibration    16          0.660              1.771              1.764
 Vibration    17          0.671              1.738              1.631
 Vibration    18          0.673              1.731              1.606
 Vibration    19          0.688              1.687              1.456
 Vibration    20          0.707              1.631              1.298
 Vibration    21          0.727              1.575              1.166
 Vibration    22          0.729              1.570              1.155
 Vibration    23          0.755              1.499              1.013
 Vibration    24          0.789              1.412              0.869
 Vibration    25          0.832              1.304              0.722
 Vibration    26          0.844              1.275              0.687
 Vibration    27          0.875              1.205              0.609
 Vibration    28          0.879              1.197              0.601
 Vibration    29          0.950              1.048              0.463
 Vibration    30          0.973              1.003              0.427

                           ! Non-Optimized Parameters !
 Normal termination of Gaussian 16 at Mon Dec 14 13:55:04 2020.

 ----------------------------------------------------------------------
 # B3LYP/6-311++G(d,p) empiricaldispersion=gd3bj scf=xqc pop=npa geom=c
 heck
 ----------------------------------------------------------------------

 ---------------------------------------
 CID_105727430_JID_9052_Energie_neutraal
 ---------------------------------------
 Structure from the checkpoint file:  "JID_9052.chk"
 Charge =  0 Multiplicity = 1

 SCF Done:  E(RB3LYP) =  -866.148928637     A.U. after   15 cycles
 Normal termination of Gaussian 16 at Mon Dec 14 14:05:37 2020.

 ----------------------------------------------------------------------
 # B3LYP/6-311++G(d,p) empiricaldispersion=gd3bj scf=xqc pop=npa geom=c
 heck
 ----------------------------------------------------------------------

 -------------------------------------
 CID_105727430_JID_9052_Energie_kation
 -------------------------------------
 Structure from the checkpoint file:  "JID_9052.chk"
 Charge =  1 Multiplicity = 2

 SCF Done:  E(UB3LYP) =  -865.869336975     A.U. after   26 cycles
 Normal termination of Gaussian 16 at Mon Dec 14 14:32:12 2020.
 Gaussian 16:  ES64L-G16RevA.03 25-Dec-2016

 ----------------------------------------------------------------------
 # B3LYP/6-311++G(d,p) empiricaldispersion=gd3bj scf=xqc pop=npa geom=c
 heck
 ----------------------------------------------------------------------

 ------------------------------------
 CID_105727430_JID_9052_Energie_anion
 ------------------------------------
 Structure from the checkpoint file:  "JID_9052.chk"
 Charge = -1 Multiplicity = 2

                         Standard orientation:
 ---------------------------------------------------------------------
 Center     Atomic      Atomic             Coordinates (Angstroms)
 Number     Number       Type             X           Y           Z
 ---------------------------------------------------------------------
      1          6           0        1.863361    3.087307   -1.169691
      2          6           0        1.443385    1.659657   -0.809064
      3          6           0        2.633704    0.711347   -0.770918
      4          6           0        2.427402   -0.797113   -0.508068
      5          6           0        3.874694   -1.192940   -0.148462
      6          6           0        4.420931    0.062599    0.564262
      7          8           0        3.507036    1.128374    0.283723
      8          6           0        1.435886   -1.119170    0.631917
      9          6           0       -0.019926   -0.851511    0.275917
     10          6           0       -0.842434   -0.153834    1.170055
     11          6           0       -2.189649    0.066481    0.910240
     12          6           0       -2.761765   -0.427340   -0.281375
     13          6           0       -1.951937   -1.124407   -1.180862
     14          6           0       -0.599143   -1.332942   -0.899427
     15          8           0       -4.094249   -0.184094   -0.457414
     16          6           0       -4.705404   -0.680954   -1.635732
     17          8           0       -2.948090    0.720437    1.849347
     18          6           0       -3.410918    2.014543    1.458149
     19          7           0        1.641772   -2.512574    1.088220
     20          1           0        2.582747    3.471116   -0.440516
     21          1           0        0.998314    3.759490   -1.189130
     22          1           0        2.337296    3.122109   -2.158677
     23          1           0        0.947444    1.655810    0.165780
     24          1           0        0.713243    1.280733   -1.533940
     25          1           0        3.165644    0.795970   -1.737660
     26          1           0        2.104747   -1.304151   -1.425116
     27          1           0        3.905514   -2.084586    0.478649
     28          1           0        4.441179   -1.389495   -1.065113
     29          1           0        4.464672   -0.059927    1.652407
     30          1           0        5.427125    0.327809    0.211167
     31          1           0        1.696979   -0.478675    1.482666
     32          1           0       -0.438573    0.243737    2.097367
     33          1           0       -2.367226   -1.513409   -2.103259
     34          1           0        0.000262   -1.881909   -1.620580
     35          1           0       -4.257253   -0.243764   -2.537870
     36          1           0       -4.634645   -1.774949   -1.693197
     37          1           0       -5.754972   -0.388944   -1.574415
     38          1           0       -2.564754    2.669305    1.210447
     39          1           0       -4.090467    1.953812    0.602803
     40          1           0       -3.942114    2.419866    2.322068
     41          1           0        0.992224   -2.696348    1.852972
     42          1           0        1.353501   -3.143655    0.338714
 ---------------------------------------------------------------------

 SCF Done:  E(UB3LYP) =  -866.138292331     A.U. after   33 cycles
 SCF Done:  E(UB3LYP) =  -866.138292330     a.u. after    1 cycles

 The electronic state is 2-A.
 Alpha  occ. eigenvalues --  -19.06317 -19.05083 -19.03041 -14.20996 -10.14238
 Alpha  occ. eigenvalues --  -10.13564 -10.12817 -10.12692 -10.12688 -10.12563
 Alpha  occ. eigenvalues --  -10.11682 -10.08750 -10.08516 -10.08240 -10.08225
 Alpha  occ. eigenvalues --  -10.08033 -10.07632 -10.07224 -10.06795  -0.98434
 Alpha  occ. eigenvalues --   -0.96074  -0.94905  -0.81033  -0.76020  -0.70631
 Alpha  occ. eigenvalues --   -0.69103  -0.67160  -0.66392  -0.63105  -0.61851
 Alpha  occ. eigenvalues --   -0.59473  -0.56760  -0.53772  -0.52116  -0.50084
 Alpha  occ. eigenvalues --   -0.48819  -0.46774  -0.44693  -0.42568  -0.41498
 Alpha  occ. eigenvalues --   -0.40899  -0.39810  -0.38280  -0.38132  -0.38043
 Alpha  occ. eigenvalues --   -0.36686  -0.36518  -0.35247  -0.34690  -0.33807
 Alpha  occ. eigenvalues --   -0.33385  -0.32466  -0.31898  -0.31198  -0.30030
 Alpha  occ. eigenvalues --   -0.29526  -0.28925  -0.27913  -0.26546  -0.26199
 Alpha  occ. eigenvalues --   -0.25761  -0.25576  -0.24434  -0.24169  -0.23538
 Alpha  occ. eigenvalues --   -0.22600  -0.22107  -0.19457  -0.16975  -0.16618
 Alpha  occ. eigenvalues --   -0.15701  -0.12454   0.03970
 Alpha virt. eigenvalues --    0.05796   0.06371   0.06968   0.07269   0.07518
 Alpha virt. eigenvalues --    0.07849   0.08661   0.08696   0.09143   0.09343
 Alpha virt. eigenvalues --    0.09776   0.09901   0.10457   0.10890   0.11163

  Beta  occ. eigenvalues --  -19.06306 -19.05081 -19.03038 -14.20983 -10.14227
  Beta  occ. eigenvalues --  -10.13562 -10.12810 -10.12684 -10.12677 -10.12507
  Beta  occ. eigenvalues --  -10.11680 -10.08739 -10.08516 -10.08225 -10.08223
  Beta  occ. eigenvalues --  -10.08005 -10.07621 -10.07218 -10.06786  -0.98412
  Beta  occ. eigenvalues --   -0.96062  -0.94896  -0.81011  -0.75998  -0.70611
  Beta  occ. eigenvalues --   -0.69085  -0.67128  -0.66364  -0.63079  -0.61806
  Beta  occ. eigenvalues --   -0.59442  -0.56721  -0.53747  -0.52080  -0.50052
  Beta  occ. eigenvalues --   -0.48794  -0.46749  -0.44653  -0.42539  -0.41474
  Beta  occ. eigenvalues --   -0.40869  -0.39789  -0.38248  -0.38115  -0.38023
  Beta  occ. eigenvalues --   -0.36661  -0.36497  -0.35212  -0.34665  -0.33776
  Beta  occ. eigenvalues --   -0.33352  -0.32450  -0.31879  -0.31174  -0.29996
  Beta  occ. eigenvalues --   -0.29503  -0.28893  -0.27890  -0.26518  -0.26178
  Beta  occ. eigenvalues --   -0.25737  -0.25555  -0.24403  -0.24152  -0.23505
  Beta  occ. eigenvalues --   -0.22587  -0.22078  -0.19442  -0.16960  -0.16599
  Beta  occ. eigenvalues --   -0.15677  -0.12412
  Beta virt. eigenvalues --    0.05959   0.06470   0.07006   0.07149   0.07566
  Beta virt. eigenvalues --    0.07767   0.08034   0.08739   0.09100   0.09392
  Beta virt. eigenvalues --    0.09772   0.10028   0.10223   0.10517   0.11184

 Mulliken charges and spin densities:
               1          2
     1  C    0.059559  -0.609535
     2  C   -0.145678   0.155363
     3  C   -1.199467   0.197753
     4  C    0.680994  -0.073338
     5  C   -0.100346  -0.187087
     6  C   -0.187529  -0.102674
     7  O   -0.057517  -0.002432
     8  C    0.216125  -0.637637
     9  C    2.494375  -1.593261
    10  C   -0.614145   0.386968
    11  C   -1.180540   0.752162
    12  C   -0.480029   0.116047
    13  C   -0.564587   0.314803
    14  C    0.657988  -1.086039
    15  O   -0.237808   0.059894
    16  C    1.224567  -1.576409
    17  O   -0.154280   0.006635
    18  C    0.047517  -0.338385
    19  N   -0.371322   0.032215
    20  H    0.129463   0.033094
    21  H   -0.006093   0.151654
    22  H    0.021333   0.104293
    23  H    0.340625  -0.123987
    24  H    0.080204   0.078452
    25  H   -0.027335   0.189344
    26  H    0.053590   0.176753
    27  H    0.172421   0.023456
    28  H   -0.199057   0.371179
    29  H    0.091316   0.042314
    30  H    0.069255   0.076157
    31  H    0.252489   0.018126
    32  H    0.093741   0.082676
    33  H   -0.439805   0.674381
    34  H   -0.875042   1.022408
    35  H   -0.354727   0.525715
    36  H   -0.279209   0.436062
    37  H   -0.598409   0.780519
    38  H    0.004001   0.115726
    39  H    0.012876   0.157833
    40  H    0.046060   0.093645
    41  H    0.170896   0.056948
    42  H    0.153533   0.098210
 Sum of Mulliken charges =  -1.00000   1.00000

 Dipole moment (field-independent basis, Debye):
    X=              5.4621    Y=              2.2628    Z=              6.0651  Tot=              8.4700
 Quadrupole moment (field-independent basis, Debye-Ang):
   XX=           -213.5206   YY=           -159.2259   ZZ=           -163.7154
   XY=             -5.5825   XZ=            -11.6616   YZ=             -6.8989

 Summary of Natural Population Analysis:

                                       Natural Population
                Natural  -----------------------------------------------
    Atom  No    Charge         Core      Valence    Rydberg      Total
 -----------------------------------------------------------------------
      C    1   -0.28251      0.99967     2.27887    0.00397     3.28251
      C    2   -0.20245      0.99960     2.19403    0.00882     3.20245
      C    3    0.07321      0.99954     1.91149    0.01576     2.92679
      C    4   -0.11737      0.99956     2.10523    0.01259     3.11737
      C    5   -0.20910      0.99962     2.20084    0.00864     3.20910
      C    6   -0.00920      0.99960     1.99967    0.00993     3.00920
      O    7   -0.31011      0.99989     3.30256    0.00766     4.31011
      C    8   -0.02191      0.99954     2.00811    0.01427     3.02191
      C    9   -0.03133      0.99949     2.02016    0.01168     3.03133
      C   10   -0.11443      0.99947     2.10662    0.00834     3.11443
      C   11    0.13603      0.99934     1.84963    0.01501     2.86397
      C   12    0.14346      0.99934     1.84369    0.01351     2.85654
      C   13   -0.13209      0.99953     2.12293    0.00962     3.13209
      C   14   -0.09817      0.99950     2.08764    0.01102     3.09817
      O   15   -0.27320      0.99986     3.26272    0.01062     4.27320
      C   16   -0.10036      0.99960     2.09162    0.00915     3.10036
      O   17   -0.28659      0.99986     3.27713    0.00960     4.28659
      C   18   -0.09689      0.99959     2.08953    0.00777     3.09689
      N   19   -0.41799      0.99978     2.90939    0.00882     3.91799
      H   20    0.10107      0.00000     0.39779    0.00114     0.39893
      H   21    0.09746      0.00000     0.40177    0.00078     0.40254
      H   22    0.09442      0.00000     0.40470    0.00088     0.40558
      H   23    0.10059      0.00000     0.39723    0.00218     0.39941
      H   24    0.10474      0.00000     0.39355    0.00171     0.39526
      H   25    0.07794      0.00000     0.42070    0.00136     0.42206
      H   26    0.10591      0.00000     0.39174    0.00235     0.39409
      H   27    0.11729      0.00000     0.38143    0.00128     0.38271
      H   28    0.09903      0.00000     0.39981    0.00116     0.40097
      H   29    0.08302      0.00000     0.41580    0.00118     0.41698
      H   30    0.07982      0.00000     0.41887    0.00131     0.42018
      H   31    0.09598      0.00000     0.40192    0.00210     0.40402
      H   32    0.10337      0.00000     0.39515    0.00149     0.39663
      H   33    0.11081      0.00000     0.38692    0.00226     0.38919
      H   34    0.10283      0.00000     0.39503    0.00215     0.39717
      H   35    0.08718      0.00000     0.41052    0.00231     0.41282
      H   36    0.08710      0.00000     0.41078    0.00211     0.41290
      H   37    0.09516      0.00000     0.40331    0.00154     0.40484
      H   38    0.08008      0.00000     0.41844    0.00148     0.41992
      H   39    0.09176      0.00000     0.40620    0.00204     0.40824
      H   40    0.08640      0.00000     0.41250    0.00110     0.41360
      H   41    0.17544      0.00000     0.32313    0.00142     0.32456
      H   42    0.17361      0.00000     0.32471    0.00168     0.32639
 =======================================================================
   * Total *   -0.00000     18.99236    52.77386    0.23377    72.00000

 Normal termination of Gaussian 16 at Mon Dec 14 15:06:19 2020.
