 Gaussian 16, Revision A.03,

 -----------------------------------------------------------
 # opt freq B3LYP/6-31G(d) empiricaldispersion=gd3bj scf=xqc
 -----------------------------------------------------------

 -------------------------------
 CID_137766556_JID_8836_neutraal
 -------------------------------
 Symbolic Z-matrix:
 Charge =  0 Multiplicity = 1

 SCF Done:  E(RB3LYP) =  -837.787825343     A.U. after   15 cycles
 SCF Done:  E(RB3LYP) =  -837.792743379     A.U. after   13 cycles
 SCF Done:  E(RB3LYP) =  -837.791453451     A.U. after   14 cycles
 SCF Done:  E(RB3LYP) =  -837.793309960     A.U. after   14 cycles
 SCF Done:  E(RB3LYP) =  -837.794707184     A.U. after   13 cycles
 SCF Done:  E(RB3LYP) =  -837.794828712     A.U. after   13 cycles
 SCF Done:  E(RB3LYP) =  -837.795441825     A.U. after   13 cycles
 SCF Done:  E(RB3LYP) =  -837.795599201     A.U. after   11 cycles
 SCF Done:  E(RB3LYP) =  -837.795685053     A.U. after   11 cycles
 SCF Done:  E(RB3LYP) =  -837.795727969     A.U. after   11 cycles
 SCF Done:  E(RB3LYP) =  -837.795786338     A.U. after   11 cycles
 SCF Done:  E(RB3LYP) =  -837.795826653     A.U. after   11 cycles
 SCF Done:  E(RB3LYP) =  -837.795832569     A.U. after   10 cycles
 SCF Done:  E(RB3LYP) =  -837.795836923     A.U. after   10 cycles
 SCF Done:  E(RB3LYP) =  -837.795838227     A.U. after    8 cycles
 SCF Done:  E(RB3LYP) =  -837.795838408     A.U. after    8 cycles
 Optimization completed.
    -- Stationary point found.
 Normal termination of Gaussian 16 at Fri Dec 11 22:18:41 2020.

 --------------------------------------------------------------------
 #N Geom=AllCheck Guess=TCheck SCRF=Check GenChk RB3LYP/6-31G(d) Freq
 --------------------------------------------------------------------

 Structure from the checkpoint file:  "JID_8836.chk"
 -------------------------------
 CID_137766556_JID_8836_neutraal
 -------------------------------
 Charge =  0 Multiplicity = 1

 SCF Done:  E(RB3LYP) =  -837.795838408     A.U. after    1 cycles

  Exact polarizability: 189.698  -4.957 155.300  19.659   5.597  96.320
 Approx polarizability: 267.802  -4.648 248.977  50.976  14.002 162.965

                      1                      2                      3
                      A                      A                      A
 Frequencies --     32.7225                41.9300                51.9763
 Red. masses --      9.2553                 7.1621                 5.4269
 Frc consts  --      0.0058                 0.0074                 0.0086
 IR Inten    --      1.5755                 1.2314                 2.1888

                      4                      5                      6
                      A                      A                      A
 Frequencies --     62.3946               101.1907               110.9906
 Red. masses --      5.1697                 4.0131                 3.2246
 Frc consts  --      0.0119                 0.0242                 0.0234
 IR Inten    --      1.2035                 0.5517                 2.2244

                      7                      8                      9
                      A                      A                      A
 Frequencies --    127.2568               132.9592               143.9758
 Red. masses --      2.3142                 3.2269                 1.4739
 Frc consts  --      0.0221                 0.0336                 0.0180
 IR Inten    --      2.9485                 6.6834                 0.1809

                     10                     11                     12
                      A                      A                      A
 Frequencies --    149.6559               180.1803               189.0026
 Red. masses --      2.8455                 1.9726                 5.8087
 Frc consts  --      0.0375                 0.0377                 0.1223
 IR Inten    --      0.7956                 3.2170                 3.1019

                     13                     14                     15
                      A                      A                      A
 Frequencies --    199.6559               255.0725               258.3692
 Red. masses --      7.8911                 4.3259                 3.3674
 Frc consts  --      0.1853                 0.1658                 0.1324
 IR Inten    --     13.6027                10.2300                 2.5324

                     16                     17                     18
                      A                      A                      A
 Frequencies --    307.1301               312.4081               358.5796
 Red. masses --      3.9428                 4.2608                 3.9547
 Frc consts  --      0.2191                 0.2450                 0.2996
 IR Inten    --      8.0620                 0.7926                 3.8885

                     19                     20                     21
                      A                      A                      A
 Frequencies --    376.7950               382.6191               401.7101
 Red. masses --      6.8205                 5.5906                 6.3706
 Frc consts  --      0.5705                 0.4822                 0.6057
 IR Inten    --      0.8080                 0.7454                 9.0635

                     22                     23                     24
                      A                      A                      A
 Frequencies --    452.3580               513.9226               548.9039
 Red. masses --      7.1152                 6.0202                 4.4202
 Frc consts  --      0.8578                 0.9368                 0.7847
 IR Inten    --      0.8075                 4.4926                 3.0536

                     25                     26                     27
                      A                      A                      A
 Frequencies --    565.5613               576.4196               585.6587
 Red. masses --      3.9257                 4.8324                 9.4555
 Frc consts  --      0.7398                 0.9460                 1.9108
 IR Inten    --      0.4000                12.7030                 1.3992

                     28                     29                     30
                      A                      A                      A
 Frequencies --    611.7211               641.1793               747.5572
 Red. masses --      5.2124                 6.2439                 7.4553
 Frc consts  --      1.1492                 1.5124                 2.4547
 IR Inten    --      2.1124                 6.6970                10.1590

                     31                     32                     33
                      A                      A                      A
 Frequencies --    769.9413               794.2270               811.8046
 Red. masses --      2.2505                 3.3767                 3.0263
 Frc consts  --      0.7860                 1.2550                 1.1751
 IR Inten    --     28.6095                23.0104                 2.6572

                     34                     35                     36
                      A                      A                      A
 Frequencies --    832.6925               845.0405               929.0232
 Red. masses --      3.7447                 4.1080                 3.9843
 Frc consts  --      1.5298                 1.7284                 2.0261
 IR Inten    --      1.8508                 1.2340                 3.0066

                     37                     38                     39
                      A                      A                      A
 Frequencies --    944.9379               971.3459               982.6010
 Red. masses --      1.4632                 2.6314                 1.3026
 Frc consts  --      0.7698                 1.4628                 0.7410
 IR Inten    --      2.2842                 3.8912                 0.6713

                     40                     41                     42
                      A                      A                      A
 Frequencies --   1010.3805              1031.5176              1045.8482
 Red. masses --      5.2385                 5.3644                 8.0179
 Frc consts  --      3.1509                 3.3630                 5.1671
 IR Inten    --      4.5250                 5.8711                56.5961

                     43                     44                     45
                      A                      A                      A
 Frequencies --   1056.9822              1123.8821              1166.3082
 Red. masses --      3.1147                 1.9330                 2.4318
 Frc consts  --      2.0502                 1.4385                 1.9490
 IR Inten    --     14.9117                58.7027                98.1641

                     46                     47                     48
                      A                      A                      A
 Frequencies --   1178.8779              1185.4191              1199.2436
 Red. masses --      1.2328                 1.2765                 1.3282
 Frc consts  --      1.0094                 1.0569                 1.1255
 IR Inten    --      0.7724                 1.5741                 4.4785

                     49                     50                     51
                      A                      A                      A
 Frequencies --   1207.8248              1211.2523              1228.4411
 Red. masses --      1.3380                 1.3273                 1.7934
 Frc consts  --      1.1500                 1.1473                 1.5946
 IR Inten    --      5.1110                 2.1078                56.8492

                     52                     53                     54
                      A                      A                      A
 Frequencies --   1281.4642              1291.5687              1302.7506
 Red. masses --      1.7232                 2.2881                 1.6543
 Frc consts  --      1.6672                 2.2489                 1.6542
 IR Inten    --     16.4172                52.6445                15.5217

                     55                     56                     57
                      A                      A                      A
 Frequencies --   1330.0267              1345.4826              1369.5526
 Red. masses --      2.6865                 2.2209                 2.2223
 Frc consts  --      2.8000                 2.3689                 2.4559
 IR Inten    --    350.7783                44.2734                 8.4218

                     58                     59                     60
                      A                      A                      A
 Frequencies --   1384.8660              1474.8920              1490.6048
 Red. masses --      1.6659                 1.8041                 1.2236
 Frc consts  --      1.8824                 2.3122                 1.6018
 IR Inten    --     43.1894               102.3235                13.0159

                     61                     62                     63
                      A                      A                      A
 Frequencies --   1508.9194              1511.8024              1513.3273
 Red. masses --      1.1041                 1.0529                 1.2140
 Frc consts  --      1.4811                 1.4178                 1.6381
 IR Inten    --      8.5108                 2.8575                 7.1014

                     64                     65                     66
                      A                      A                      A
 Frequencies --   1515.1993              1524.1976              1529.0716
 Red. masses --      1.8208                 1.0827                 1.1132
 Frc consts  --      2.4629                 1.4820                 1.5335
 IR Inten    --     24.4336                 6.0784                 7.2887

                     67                     68                     69
                      A                      A                      A
 Frequencies --   1531.8530              1642.2201              1653.8905
 Red. masses --      1.5182                 6.8184                 5.7836
 Frc consts  --      2.0990                10.8342                 9.3210
 IR Inten    --     59.1961                12.1860                41.6114

                     70                     71                     72
                      A                      A                      A
 Frequencies --   1799.2412              2377.0866              2381.0759
 Red. masses --     11.6516                12.6561                12.6552
 Frc consts  --     22.2236                42.1348                42.2733
 IR Inten    --    253.9117                 2.5676                 2.4531

                     73                     74                     75
                      A                      A                      A
 Frequencies --   3055.3033              3074.3955              3077.5551
 Red. masses --      1.0820                 1.0307                 1.0295
 Frc consts  --      5.9509                 5.7398                 5.7452
 IR Inten    --      0.1159                31.2538                33.3296

                     76                     77                     78
                      A                      A                      A
 Frequencies --   3091.1518              3153.1302              3158.4439
 Red. masses --      1.0665                 1.1073                 1.1043
 Frc consts  --      6.0043                 6.4864                 6.4907
 IR Inten    --     12.0861                19.0671                21.3157

                     79                     80                     81
                      A                      A                      A
 Frequencies --   3167.6003              3173.7477              3174.7103
 Red. masses --      1.0990                 1.0892                 1.1083
 Frc consts  --      6.4971                 6.4642                 6.5812
 IR Inten    --      0.6698                12.3210                24.3278

                     82                     83                     84
                      A                      A                      A
 Frequencies --   3185.8328              3212.2206              3229.6863
 Red. masses --      1.1074                 1.0903                 1.0944
 Frc consts  --      6.6220                 6.6282                 6.7261
 IR Inten    --     13.8238                 8.0627                 5.8574

 - Thermochemistry -
 -------------------
 Temperature   298.150 Kelvin.  Pressure   1.00000 Atm.
 Atom     1 has atomic number  6 and mass  12.00000

 Molecular mass:   244.08479 amu.
 Principal axes and moments of inertia in atomic units:
                           1         2         3
     Eigenvalues --  2238.145546958.674928124.97127
           X            0.99975  -0.02238  -0.00122
           Y            0.02239   0.99969   0.01053
           Z            0.00099  -0.01055   0.99994
 This molecule is an asymmetric top.
 Rotational symmetry number  1.
 Warning -- assumption of classical behavior for rotation
           may cause significant error
 Rotational temperatures (Kelvin)      0.03870     0.01245     0.01066
 Rotational constants (GHZ):           0.80636     0.25935     0.22212
 Zero-point vibrational energy     606867.5 (Joules/Mol)
                                  145.04481 (Kcal/Mol)
 Warning -- explicit consideration of  28 degrees of freedom as
           vibrations may cause significant error
 Vibrational temperatures:     47.08    60.33    74.78    89.77   145.59
          (Kelvin)            159.69   183.09   191.30   207.15   215.32
                              259.24   271.93   287.26   366.99   371.74
                              441.89   449.49   515.92   542.12   550.50
                              577.97   650.84   739.42   789.75   813.72
                              829.34   842.63   880.13   922.51  1075.57
                             1107.77  1142.72  1168.01  1198.06  1215.82
                             1336.66  1359.55  1397.55  1413.74  1453.71
                             1484.12  1504.74  1520.76  1617.02  1678.06
                             1696.14  1705.55  1725.44  1737.79  1742.72
                             1767.45  1843.74  1858.28  1874.37  1913.61
                             1935.85  1970.48  1992.51  2122.04  2144.65
                             2171.00  2175.15  2177.34  2180.03  2192.98
                             2199.99  2203.99  2362.79  2379.58  2588.71
                             3420.10  3425.84  4395.90  4423.37  4427.92
                             4447.48  4536.65  4544.30  4557.47  4566.32
                             4567.70  4583.70  4621.67  4646.80

 Zero-point correction=                           0.231144 (Hartree/Particle)
 Thermal correction to Energy=                    0.248779
 Thermal correction to Enthalpy=                  0.249724
 Thermal correction to Gibbs Free Energy=         0.184439
 Sum of electronic and zero-point Energies=           -837.564695
 Sum of electronic and thermal Energies=              -837.547059
 Sum of electronic and thermal Enthalpies=            -837.546115
 Sum of electronic and thermal Free Energies=         -837.611399

                     E (Thermal)             CV                S
                      KCal/Mol        Cal/Mol-Kelvin    Cal/Mol-Kelvin
 Total                  156.111             63.175            137.402
 Electronic               0.000              0.000              0.000
 Translational            0.889              2.981             42.378
 Rotational               0.889              2.981             33.203
 Vibrational            154.334             57.214             61.821
 Vibration     1          0.594              1.983              5.657
 Vibration     2          0.595              1.980              5.166
 Vibration     3          0.596              1.977              4.741
 Vibration     4          0.597              1.972              4.380
 Vibration     5          0.604              1.948              3.431
 Vibration     6          0.607              1.940              3.252
 Vibration     7          0.611              1.926              2.987
 Vibration     8          0.613              1.920              2.903
 Vibration     9          0.616              1.909              2.750
 Vibration    10          0.618              1.903              2.677
 Vibration    11          0.629              1.867              2.327
 Vibration    12          0.633              1.855              2.238
 Vibration    13          0.638              1.840              2.136
 Vibration    14          0.665              1.754              1.695
 Vibration    15          0.667              1.749              1.673
 Vibration    16          0.697              1.660              1.378
 Vibration    17          0.701              1.650              1.350
 Vibration    18          0.733              1.558              1.128
 Vibration    19          0.747              1.520              1.052
 Vibration    20          0.752              1.507              1.029
 Vibration    21          0.767              1.466              0.956
 Vibration    22          0.811              1.356              0.789
 Vibration    23          0.869              1.219              0.624
 Vibration    24          0.904              1.142              0.546
 Vibration    25          0.921              1.106              0.513
 Vibration    26          0.933              1.082              0.492
 Vibration    27          0.943              1.062              0.475
 Vibration    28          0.971              1.007              0.430

 Optimization completed.
    -- Stationary point found.
 Normal termination of Gaussian 16 at Fri Dec 11 22:30:14 2020.

 ----------------------------------------------------------------------
 # B3LYP/6-311++G(d,p) empiricaldispersion=gd3bj scf=xqc pop=npa geom=c
 heck
 ----------------------------------------------------------------------

 ---------------------------------------
 CID_137766556_JID_8836_Energie_neutraal
 ---------------------------------------
 Structure from the checkpoint file:  "JID_8836.chk"
 Charge =  0 Multiplicity = 1

 SCF Done:  E(RB3LYP) =  -838.027245660     A.U. after   16 cycles
 Normal termination of Gaussian 16 at Fri Dec 11 22:35:28 2020.

 ----------------------------------------------------------------------
 # B3LYP/6-311++G(d,p) empiricaldispersion=gd3bj scf=xqc pop=npa geom=c
 heck
 ----------------------------------------------------------------------

 -------------------------------------
 CID_137766556_JID_8836_Energie_kation
 -------------------------------------
 Structure from the checkpoint file:  "JID_8836.chk"
 Charge =  1 Multiplicity = 2

 SCF Done:  E(UB3LYP) =  -837.706551420     A.U. after   26 cycles
 Normal termination of Gaussian 16 at Fri Dec 11 22:47:27 2020.
 Gaussian 16:  ES64L-G16RevA.03 25-Dec-2016

 ----------------------------------------------------------------------
 # B3LYP/6-311++G(d,p) empiricaldispersion=gd3bj scf=xqc pop=npa geom=c
 heck
 ----------------------------------------------------------------------

 ------------------------------------
 CID_137766556_JID_8836_Energie_anion
 ------------------------------------
 Structure from the checkpoint file:  "JID_8836.chk"
 Charge = -1 Multiplicity = 2

                         Standard orientation:
 ---------------------------------------------------------------------
 Center     Atomic      Atomic             Coordinates (Angstroms)
 Number     Number       Type             X           Y           Z
 ---------------------------------------------------------------------
      1          6           0        0.648483   -2.130455    0.308617
      2          8           0        0.148700   -1.140119   -0.600604
      3          6           0        0.319015    0.181027   -0.332730
      4          6           0       -0.815778    0.994984   -0.529788
      5          6           0       -0.743400    2.358254   -0.243230
      6          6           0        0.423510    2.929790    0.262740
      7          6           0        1.544954    2.130245    0.435493
      8          6           0        1.525443    0.766448    0.105564
      9          6           0        2.847531    0.080066    0.180910
     10          8           0        3.738038    0.400853    0.942369
     11          8           0        2.989205   -0.883235   -0.754776
     12          6           0        4.267341   -1.539843   -0.758979
     13          6           0       -2.111341    0.385474   -1.002018
     14          6           0       -3.089557    0.112391    0.187412
     15          6           0       -2.512933   -0.807939    1.179981
     16          7           0       -2.049680   -1.521854    1.967181
     17          6           0       -4.377578   -0.404030   -0.302085
     18          7           0       -5.383914   -0.789632   -0.729853
     19          1           0       -0.176886   -2.814180    0.514799
     20          1           0        0.968706   -1.673072    1.248958
     21          1           0        1.482914   -2.660506   -0.151546
     22          1           0       -1.623524    2.977229   -0.405494
     23          1           0        0.460645    3.987826    0.500416
     24          1           0        2.477398    2.545052    0.802531
     25          1           0        5.065386   -0.818927   -0.951951
     26          1           0        4.452922   -2.024777    0.203055
     27          1           0        4.211187   -2.277227   -1.559672
     28          1           0       -2.630476    1.068369   -1.681387
     29          1           0       -1.934510   -0.552444   -1.528293
     30          1           0       -3.280294    1.064591    0.700063
 ---------------------------------------------------------------------

 SCF Done:  E(UB3LYP) =  -838.038417808     A.U. after   29 cycles

 The electronic state is 2-A.
 Alpha  occ. eigenvalues --  -19.03167 -19.02128 -18.95565 -14.23094 -14.22365
 Alpha  occ. eigenvalues --  -10.16410 -10.14107 -10.13086 -10.12520 -10.11454
 Alpha  occ. eigenvalues --  -10.10098 -10.09932 -10.08953 -10.04268 -10.03246
 Alpha  occ. eigenvalues --  -10.02949 -10.02510 -10.02503  -0.97104  -0.93751
 Alpha  occ. eigenvalues --   -0.87527  -0.83305  -0.81864  -0.74505  -0.71438
 Alpha  occ. eigenvalues --   -0.64662  -0.63091  -0.60795  -0.57903  -0.55361
 Alpha  occ. eigenvalues --   -0.49498  -0.48277  -0.45875  -0.43717  -0.42839
 Alpha  occ. eigenvalues --   -0.40661  -0.37695  -0.37125  -0.35963  -0.35269
 Alpha  occ. eigenvalues --   -0.34754  -0.33235  -0.32875  -0.31216  -0.29922
 Alpha  occ. eigenvalues --   -0.29381  -0.29072  -0.28095  -0.27866  -0.27131
 Alpha  occ. eigenvalues --   -0.25998  -0.25716  -0.24836  -0.24527  -0.24172
 Alpha  occ. eigenvalues --   -0.23396  -0.22979  -0.22199  -0.20858  -0.18056
 Alpha  occ. eigenvalues --   -0.17439  -0.14282  -0.12127  -0.10173   0.04487
 Alpha virt. eigenvalues --    0.07403   0.07648   0.08599   0.09565   0.09824
 Alpha virt. eigenvalues --    0.10076   0.10371   0.11032   0.11139   0.11856
 Alpha virt. eigenvalues --    0.12320   0.12790   0.12897   0.13514   0.13604

  Beta  occ. eigenvalues --  -19.03084 -19.02111 -18.95313 -14.23046 -14.22342
  Beta  occ. eigenvalues --  -10.16402 -10.13883 -10.13059 -10.12509 -10.11452
  Beta  occ. eigenvalues --  -10.10051 -10.09918 -10.08937 -10.04218 -10.03330
  Beta  occ. eigenvalues --  -10.02750 -10.02256 -10.02114  -0.96835  -0.93695
  Beta  occ. eigenvalues --   -0.87127  -0.83226  -0.81815  -0.74366  -0.71091
  Beta  occ. eigenvalues --   -0.64264  -0.62793  -0.60668  -0.57656  -0.55120
  Beta  occ. eigenvalues --   -0.48971  -0.48076  -0.45760  -0.43474  -0.42688
  Beta  occ. eigenvalues --   -0.40505  -0.37460  -0.36909  -0.35714  -0.35117
  Beta  occ. eigenvalues --   -0.34607  -0.33140  -0.32621  -0.31117  -0.29729
  Beta  occ. eigenvalues --   -0.29224  -0.28985  -0.27944  -0.27598  -0.26392
  Beta  occ. eigenvalues --   -0.25813  -0.25594  -0.24630  -0.24469  -0.24001
  Beta  occ. eigenvalues --   -0.23252  -0.22639  -0.21953  -0.20275  -0.17435
  Beta  occ. eigenvalues --   -0.16863  -0.13856  -0.10410  -0.09383
  Beta virt. eigenvalues --    0.07454   0.07625   0.08633   0.09404   0.09503
  Beta virt. eigenvalues --    0.10046   0.10387   0.10896   0.11083   0.11296
  Beta virt. eigenvalues --    0.12081   0.12399   0.12811   0.13030   0.13513

 Mulliken charges and spin densities:
               1          2
     1  C   -0.290136   0.004289
     2  O   -0.102576   0.009822
     3  C   -1.312720  -0.066305
     4  C    0.853898  -0.044527
     5  C   -0.406901   0.357407
     6  C   -0.605165  -0.109303
     7  C   -0.162952   0.309901
     8  C    0.966917   0.136870
     9  C   -0.364862   0.110150
    10  O   -0.312045   0.084519
    11  O   -0.056134   0.014164
    12  C   -0.220829  -0.018607
    13  C   -0.559483   0.073584
    14  C    1.424275  -0.002658
    15  C   -0.504248  -0.033636
    16  N   -0.250444   0.015028
    17  C   -0.583498   0.002789
    18  N   -0.310468   0.024399
    19  H    0.159878  -0.001493
    20  H    0.160363   0.001771
    21  H    0.136827  -0.004636
    22  H    0.099756  -0.023368
    23  H    0.108429   0.007163
    24  H    0.154706  -0.010299
    25  H    0.149977   0.007799
    26  H    0.156718   0.013048
    27  H    0.118620   0.008411
    28  H    0.185422   0.001812
    29  H    0.242431   0.002295
    30  H    0.124246   0.129613
 Sum of Mulliken charges =  -1.00000   1.00000

 Dipole moment (field-independent basis, Debye):
    X=              0.6582    Y=             -1.4036    Z=             -1.9680  Tot=              2.5053
 Quadrupole moment (field-independent basis, Debye-Ang):
   XX=           -168.5065   YY=           -121.0611   ZZ=           -122.9268
   XY=            -17.7053   XZ=             -8.8234   YZ=              1.5467

 Summary of Natural Population Analysis:

                                       Natural Population
                Natural  -----------------------------------------------
    Atom  No    Charge         Core      Valence    Rydberg      Total
 -----------------------------------------------------------------------
      C    1   -0.09544      0.99959     2.08818    0.00767     3.09544
      O    2   -0.28847      0.99985     3.27898    0.00965     4.28847
      C    3    0.19168      0.99930     1.79554    0.01347     2.80832
      C    4   -0.06134      0.99947     2.04951    0.01237     3.06134
      C    5   -0.02130      0.99953     2.01175    0.01002     3.02130
      C    6   -0.13577      0.99957     2.12771    0.00850     3.13577
      C    7   -0.02618      0.99955     2.01879    0.00784     3.02618
      C    8   -0.07683      0.99941     2.06473    0.01268     3.07683
      C    9    0.42865      0.99964     1.54820    0.02351     2.57135
      O   10   -0.30270      0.99987     3.29718    0.00565     4.30270
      O   11   -0.27791      0.99986     3.26946    0.00859     4.27791
      C   12   -0.10673      0.99961     2.09856    0.00856     3.10673
      C   13   -0.17168      0.99958     2.16171    0.01039     3.17168
      C   14   -0.20500      0.99944     2.19651    0.00905     3.20500
      C   15    0.16586      0.99964     1.81433    0.02018     2.83414
      N   16   -0.16841      0.99979     2.65833    0.01029     3.66841
      C   17    0.16641      0.99964     1.81591    0.01804     2.83359
      N   18   -0.17263      0.99979     2.66198    0.01086     3.67263
      H   19    0.08654      0.00000     0.41248    0.00098     0.41346
      H   20    0.09223      0.00000     0.40687    0.00090     0.40777
      H   21    0.08435      0.00000     0.41448    0.00117     0.41565
      H   22    0.08480      0.00000     0.41405    0.00115     0.41520
      H   23    0.09130      0.00000     0.40720    0.00150     0.40870
      H   24    0.10095      0.00000     0.39805    0.00100     0.39905
      H   25    0.08850      0.00000     0.41033    0.00117     0.41150
      H   26    0.08705      0.00000     0.41182    0.00112     0.41295
      H   27    0.08319      0.00000     0.41600    0.00080     0.41681
      H   28    0.10351      0.00000     0.39567    0.00082     0.39649
      H   29    0.11440      0.00000     0.38459    0.00101     0.38560
      H   30    0.14099      0.00000     0.35665    0.00236     0.35901
 =======================================================================
   * Total *    0.00000     17.99313    45.78556    0.22131    64.00000

 Normal termination of Gaussian 16 at Fri Dec 11 23:01:12 2020.
