 Gaussian 16, Revision A.03,

 -----------------------------------------------------------
 # opt freq B3LYP/6-31G(d) empiricaldispersion=gd3bj scf=xqc
 -----------------------------------------------------------

 -------------------------------
 CID_154006234_JID_2658_neutraal
 -------------------------------
 Symbolic Z-matrix:
 Charge =  0 Multiplicity = 1

 SCF Done:  E(RB3LYP) =  -570.831533745     A.U. after   15 cycles
 SCF Done:  E(RB3LYP) =  -570.837479221     A.U. after   13 cycles
 SCF Done:  E(RB3LYP) =  -570.838270028     A.U. after   12 cycles
 SCF Done:  E(RB3LYP) =  -570.837590566     A.U. after   13 cycles
 SCF Done:  E(RB3LYP) =  -570.838522677     A.U. after   12 cycles
 SCF Done:  E(RB3LYP) =  -570.838546229     A.U. after   11 cycles
 SCF Done:  E(RB3LYP) =  -570.838556486     A.U. after    9 cycles
 SCF Done:  E(RB3LYP) =  -570.838559925     A.U. after    8 cycles
 SCF Done:  E(RB3LYP) =  -570.838561704     A.U. after    8 cycles
 SCF Done:  E(RB3LYP) =  -570.838563682     A.U. after    9 cycles
 SCF Done:  E(RB3LYP) =  -570.838576201     A.U. after    9 cycles
 SCF Done:  E(RB3LYP) =  -570.838579286     A.U. after   10 cycles
 SCF Done:  E(RB3LYP) =  -570.838581175     A.U. after   10 cycles
 SCF Done:  E(RB3LYP) =  -570.838582016     A.U. after    8 cycles
 SCF Done:  E(RB3LYP) =  -570.838582140     A.U. after    8 cycles
 SCF Done:  E(RB3LYP) =  -570.838582148     A.U. after    7 cycles
 Optimization completed.
    -- Stationary point found.
 Normal termination of Gaussian 16 at Wed Dec  9 17:54:05 2020.

 --------------------------------------------------------------------
 #N Geom=AllCheck Guess=TCheck SCRF=Check GenChk RB3LYP/6-31G(d) Freq
 --------------------------------------------------------------------

 Structure from the checkpoint file:  "JID_2658.chk"
 -------------------------------
 CID_154006234_JID_2658_neutraal
 -------------------------------
 Charge =  0 Multiplicity = 1

 SCF Done:  E(RB3LYP) =  -570.838582148     A.U. after    1 cycles

  Exact polarizability: 158.056   8.157 102.629  -0.001   0.001  49.760
 Approx polarizability: 210.428  10.526 168.978  -0.001   0.003  75.331

                      1                      2                      3
                      A                      A                      A
 Frequencies --     20.6335                51.2153                69.2661
 Red. masses --      2.7130                 3.4211                 4.2218
 Frc consts  --      0.0007                 0.0053                 0.0119
 IR Inten    --      2.9348                 1.0758                 0.0881

                      4                      5                      6
                      A                      A                      A
 Frequencies --    108.1620               117.6643               197.5777
 Red. masses --      4.5303                 1.5485                 1.1222
 Frc consts  --      0.0312                 0.0126                 0.0258
 IR Inten    --      0.3784                 1.2403                 0.4783

                      7                      8                      9
                      A                      A                      A
 Frequencies --    244.4133               256.6824               256.7690
 Red. masses --      3.5279                 2.0272                 5.0524
 Frc consts  --      0.1242                 0.0787                 0.1963
 IR Inten    --      0.5574                 0.4597                 0.1178

                     10                     11                     12
                      A                      A                      A
 Frequencies --    307.6493               365.4330               406.9116
 Red. masses --      5.9783                 5.9645                 4.0078
 Frc consts  --      0.3334                 0.4693                 0.3910
 IR Inten    --      0.1026                 8.0106                 1.4530

                     13                     14                     15
                      A                      A                      A
 Frequencies --    430.3643               470.6920               482.6276
 Red. masses --      3.7595                 1.3355                 4.0274
 Frc consts  --      0.4103                 0.1743                 0.5527
 IR Inten    --      2.8226               101.5152                 1.3514

                     16                     17                     18
                      A                      A                      A
 Frequencies --    616.1484               651.5963               681.4878
 Red. masses --      4.6276                 3.5424                 3.3793
 Frc consts  --      1.0351                 0.8861                 0.9247
 IR Inten    --      4.7216                 3.4350                 1.4079

                     19                     20                     21
                      A                      A                      A
 Frequencies --    743.3018               751.0963               771.7909
 Red. masses --      4.2580                 8.0945                 1.3544
 Frc consts  --      1.3861                 2.6905                 0.4753
 IR Inten    --      4.7491                 2.4136                17.6608

                     22                     23                     24
                      A                      A                      A
 Frequencies --    836.5436               854.0169               858.0281
 Red. masses --      1.2908                 1.3012                 6.4187
 Frc consts  --      0.5322                 0.5591                 2.7842
 IR Inten    --     23.7807                22.9101                 9.5983

                     25                     26                     27
                      A                      A                      A
 Frequencies --    933.2990               976.5913              1037.0738
 Red. masses --      5.2003                 1.8846                 3.3961
 Frc consts  --      2.6688                 1.0590                 2.1520
 IR Inten    --     11.2347                 2.7688                20.0628

                     28                     29                     30
                      A                      A                      A
 Frequencies --   1069.5364              1071.4240              1090.7723
 Red. masses --      1.4498                 1.6697                 1.5158
 Frc consts  --      0.9771                 1.1293                 1.0626
 IR Inten    --      0.1608                52.0338                 1.5519

                     31                     32                     33
                      A                      A                      A
 Frequencies --   1105.2392              1111.9641              1145.7810
 Red. masses --      1.9539                 1.9706                 2.4173
 Frc consts  --      1.4063                 1.4356                 1.8697
 IR Inten    --    101.0688                 7.1347                22.7993

                     34                     35                     36
                      A                      A                      A
 Frequencies --   1169.4534              1263.8974              1269.8806
 Red. masses --      4.5973                 2.7933                 2.3976
 Frc consts  --      3.7044                 2.6290                 2.2780
 IR Inten    --    377.2163               203.3561                49.7935

                     37                     38                     39
                      A                      A                      A
 Frequencies --   1277.7068              1398.9483              1407.7878
 Red. masses --      1.5602                 1.6950                 2.8668
 Frc consts  --      1.5007                 1.9545                 3.3475
 IR Inten    --     25.8088                54.6176                 1.0234

                     40                     41                     42
                      A                      A                      A
 Frequencies --   1441.5217              1448.9648              1457.3665
 Red. masses --      1.2268                 1.2557                 4.6184
 Frc consts  --      1.5020                 1.5533                 5.7793
 IR Inten    --     14.9815                13.1549                 8.4467

                     43                     44                     45
                      A                      A                      A
 Frequencies --   1504.5383              1508.0701              1509.1355
 Red. masses --      1.0754                 1.0460                 1.0436
 Frc consts  --      1.4342                 1.4016                 1.4004
 IR Inten    --      5.2570                 0.7177                12.5129

                     46                     47                     48
                      A                      A                      A
 Frequencies --   1523.0751              1526.5338              1611.1532
 Red. masses --      3.6609                 1.1124                 4.7676
 Frc consts  --      5.0036                 1.5273                 7.2916
 IR Inten    --     44.6294                14.1695               121.6069

                     49                     50                     51
                      A                      A                      A
 Frequencies --   1706.4109              1805.4785              3053.0016
 Red. masses --      7.0949                11.6282                 1.0360
 Frc consts  --     12.1720                22.3331                 5.6895
 IR Inten    --     29.6477               142.9094                21.1347

                     52                     53                     54
                      A                      A                      A
 Frequencies --   3061.6325              3107.8121              3117.3784
 Red. masses --      1.0355                 1.1010                 1.0989
 Frc consts  --      5.7191                 6.2653                 6.2919
 IR Inten    --     11.5440                18.5282                 5.2394

                     55                     56                     57
                      A                      A                      A
 Frequencies --   3133.6979              3137.1652              3162.1290
 Red. masses --      1.1024                 1.1027                 1.0909
 Frc consts  --      6.3782                 6.3943                 6.4267
 IR Inten    --     29.7339                14.8433                31.4930

                     58                     59                     60
                      A                      A                      A
 Frequencies --   3271.0925              3334.7061              3653.8527
 Red. masses --      1.0968                 1.0979                 1.0810
 Frc consts  --      6.9142                 7.1934                 8.5033
 IR Inten    --      2.5499                 1.7304                51.0330

 - Thermochemistry -
 -------------------
 Temperature   298.150 Kelvin.  Pressure   1.00000 Atm.
 Atom     1 has atomic number  6 and mass  12.00000

 Molecular mass:   166.07423 amu.
 Principal axes and moments of inertia in atomic units:
                           1         2         3
     Eigenvalues --   752.820163600.575854331.30235
           X            0.99996   0.00845  -0.00000
           Y           -0.00845   0.99996  -0.00000
           Z            0.00000   0.00000   1.00000
 This molecule is an asymmetric top.
 Rotational symmetry number  1.
 Warning -- assumption of classical behavior for rotation
           may cause significant error
 Rotational temperatures (Kelvin)      0.11505     0.02406     0.02000
 Rotational constants (GHZ):           2.39731     0.50124     0.41667
 Zero-point vibrational energy     460288.0 (Joules/Mol)
                                  110.01147 (Kcal/Mol)
 Warning -- explicit consideration of  16 degrees of freedom as
           vibrations may cause significant error
 Vibrational temperatures:     29.69    73.69    99.66   155.62   169.29
          (Kelvin)            284.27   351.66   369.31   369.43   442.64
                              525.78   585.46   619.20   677.22   694.39
                              886.50   937.50   980.51  1069.45  1080.66
                             1110.43  1203.60  1228.74  1234.51  1342.81
                             1405.10  1492.12  1538.82  1541.54  1569.38
                             1590.19  1599.87  1648.52  1682.58  1818.47
                             1827.07  1838.34  2012.77  2025.49  2074.03
                             2084.74  2096.83  2164.70  2169.78  2171.31
                             2191.37  2196.34  2318.09  2455.14  2597.68
                             4392.59  4405.01  4471.45  4485.21  4508.69
                             4513.68  4549.60  4706.37  4797.90  5257.08

 Zero-point correction=                           0.175314 (Hartree/Particle)
 Thermal correction to Energy=                    0.187197
 Thermal correction to Enthalpy=                  0.188141
 Thermal correction to Gibbs Free Energy=         0.135699
 Sum of electronic and zero-point Energies=           -570.663268
 Sum of electronic and thermal Energies=              -570.651385
 Sum of electronic and thermal Enthalpies=            -570.650441
 Sum of electronic and thermal Free Energies=         -570.702883

                     E (Thermal)             CV                S
                      KCal/Mol        Cal/Mol-Kelvin    Cal/Mol-Kelvin
 Total                  117.468             42.789            110.375
 Electronic               0.000              0.000              0.000
 Translational            0.889              2.981             41.230
 Rotational               0.889              2.981             30.841
 Vibrational            115.691             36.828             38.304
 Vibration     1          0.593              1.986              6.572
 Vibration     2          0.595              1.977              4.770
 Vibration     3          0.598              1.969              4.174
 Vibration     4          0.606              1.943              3.302
 Vibration     5          0.608              1.935              3.138
 Vibration     6          0.637              1.843              2.156
 Vibration     7          0.660              1.772              1.771
 Vibration     8          0.666              1.751              1.684
 Vibration     9          0.666              1.751              1.684
 Vibration    10          0.698              1.659              1.375
 Vibration    11          0.739              1.543              1.099
 Vibration    12          0.772              1.455              0.938
 Vibration    13          0.792              1.404              0.857
 Vibration    14          0.828              1.315              0.736
 Vibration    15          0.839              1.289              0.703
 Vibration    16          0.976              0.998              0.423

 Optimization completed.
    -- Stationary point found.
 Normal termination of Gaussian 16 at Wed Dec  9 17:58:48 2020.

 ----------------------------------------------------------------------
 # B3LYP/6-311++G(d,p) empiricaldispersion=gd3bj scf=xqc pop=npa geom=c
 heck
 ----------------------------------------------------------------------

 ---------------------------------------
 CID_154006234_JID_2658_Energie_neutraal
 ---------------------------------------
 Structure from the checkpoint file:  "JID_2658.chk"
 Charge =  0 Multiplicity = 1

 SCF Done:  E(RB3LYP) =  -571.001837314     A.U. after   14 cycles
 Normal termination of Gaussian 16 at Wed Dec  9 18:01:18 2020.

 ----------------------------------------------------------------------
 # B3LYP/6-311++G(d,p) empiricaldispersion=gd3bj scf=xqc pop=npa geom=c
 heck
 ----------------------------------------------------------------------

 -------------------------------------
 CID_154006234_JID_2658_Energie_kation
 -------------------------------------
 Structure from the checkpoint file:  "JID_2658.chk"
 Charge =  1 Multiplicity = 2

 SCF Done:  E(UB3LYP) =  -570.700220735     A.U. after   22 cycles
 Normal termination of Gaussian 16 at Wed Dec  9 18:05:34 2020.
 Gaussian 16:  ES64L-G16RevA.03 25-Dec-2016

 ----------------------------------------------------------------------
 # B3LYP/6-311++G(d,p) empiricaldispersion=gd3bj scf=xqc pop=npa geom=c
 heck
 ----------------------------------------------------------------------

 ------------------------------------
 CID_154006234_JID_2658_Energie_anion
 ------------------------------------
 Structure from the checkpoint file:  "JID_2658.chk"
 Charge = -1 Multiplicity = 2

                         Standard orientation:
 ---------------------------------------------------------------------
 Center     Atomic      Atomic             Coordinates (Angstroms)
 Number     Number       Type             X           Y           Z
 ---------------------------------------------------------------------
      1          6           0       -3.564210   -1.444769    0.000117
      2          6           0       -3.276287    0.028540    0.000068
      3          6           0       -2.076777    0.644858   -0.000022
      4          6           0       -1.953921    2.149355   -0.000072
      5          6           0       -0.839547   -0.165942   -0.000073
      6          8           0       -0.752213   -1.374626   -0.000182
      7          8           0        0.269180    0.653819    0.000032
      8          6           0        1.521758    0.105663    0.000022
      9          6           0        2.083339   -1.149613    0.000029
     10          7           0        3.460967   -1.030566   -0.000028
     11          6           0        3.720272    0.256254    0.000046
     12          7           0        2.568685    1.001285    0.000034
     13          1           0       -3.122578   -1.937806   -0.872349
     14          1           0       -4.642687   -1.624563    0.000615
     15          1           0       -3.121718   -1.937943    0.872061
     16          1           0       -4.146063    0.684650    0.000105
     17          1           0       -1.407000    2.506909    0.879635
     18          1           0       -1.407105    2.506862   -0.879867
     19          1           0       -2.944668    2.612714   -0.000026
     20          1           0        1.585462   -2.103362   -0.000000
     21          1           0        4.700969    0.711497    0.000034
     22          1           0        2.474326    2.006381    0.000261
 ---------------------------------------------------------------------

 SCF Done:  E(UB3LYP) =  -571.001007399     A.U. after   32 cycles

 The electronic state is 2-A.
 Alpha  occ. eigenvalues --  -19.02598 -18.91049 -14.24906 -14.17654 -10.13086
 Alpha  occ. eigenvalues --  -10.10404 -10.09483 -10.04808 -10.02218 -10.00471
 Alpha  occ. eigenvalues --   -9.99619  -9.98409  -0.96179  -0.89419  -0.84452
 Alpha  occ. eigenvalues --   -0.75299  -0.64790  -0.61823  -0.57560  -0.52420
 Alpha  occ. eigenvalues --   -0.50105  -0.49116  -0.46463  -0.40546  -0.37676
 Alpha  occ. eigenvalues --   -0.33855  -0.33854  -0.30844  -0.29870  -0.29111
 Alpha  occ. eigenvalues --   -0.28561  -0.28043  -0.26026  -0.24921  -0.24906
 Alpha  occ. eigenvalues --   -0.22626  -0.20648  -0.19138  -0.19076  -0.16384
 Alpha  occ. eigenvalues --   -0.15529  -0.09902  -0.09682  -0.08630   0.06614
 Alpha virt. eigenvalues --    0.07479   0.09398   0.10274   0.11141   0.12444
 Alpha virt. eigenvalues --    0.12618   0.12924   0.13469   0.14527   0.15058
 Alpha virt. eigenvalues --    0.15260   0.16465   0.16549   0.16999   0.18664

  Beta  occ. eigenvalues --  -19.02569 -18.90562 -14.24854 -14.17679 -10.13073
  Beta  occ. eigenvalues --  -10.10357 -10.09079 -10.04768 -10.02223 -10.00518
  Beta  occ. eigenvalues --   -9.99590  -9.97812  -0.95949  -0.89282  -0.83711
  Beta  occ. eigenvalues --   -0.75249  -0.64265  -0.61621  -0.57205  -0.52032
  Beta  occ. eigenvalues --   -0.50062  -0.48914  -0.46274  -0.39967  -0.37425
  Beta  occ. eigenvalues --   -0.33688  -0.33477  -0.30387  -0.29678  -0.28490
  Beta  occ. eigenvalues --   -0.28324  -0.27840  -0.25719  -0.24803  -0.24353
  Beta  occ. eigenvalues --   -0.22248  -0.20502  -0.18788  -0.17618  -0.15675
  Beta  occ. eigenvalues --   -0.15533  -0.09471  -0.08890  -0.06643
  Beta virt. eigenvalues --    0.07428   0.09333   0.10226   0.11058   0.12340
  Beta virt. eigenvalues --    0.12412   0.13054   0.13426   0.14132   0.14451
  Beta virt. eigenvalues --    0.14991   0.15272   0.16508   0.16953   0.16958

 Mulliken charges and spin densities:
               1          2
     1  C   -0.350686  -0.028895
     2  C   -1.020690   0.589492
     3  C    1.932547  -0.016341
     4  C   -0.493181   0.044166
     5  C   -1.813163   0.179430
     6  O   -0.343753   0.162477
     7  O   -0.166478  -0.013623
     8  C    0.540721  -0.001024
     9  C   -0.320265   0.029330
    10  N   -0.202455  -0.014009
    11  C    0.067483   0.042680
    12  N   -0.247829   0.016488
    13  H    0.143929   0.022400
    14  H    0.090229   0.001395
    15  H    0.144006   0.022365
    16  H    0.069121  -0.040514
    17  H    0.123894   0.006197
    18  H    0.123933   0.006163
    19  H    0.112012  -0.001807
    20  H    0.184201  -0.002555
    21  H    0.135370  -0.002851
    22  H    0.291055  -0.000963
 Sum of Mulliken charges =  -1.00000   1.00000

 Dipole moment (field-independent basis, Debye):
    X=              3.6385    Y=              4.7437    Z=              0.0004  Tot=              5.9784
 Quadrupole moment (field-independent basis, Debye-Ang):
   XX=           -113.7932   YY=            -83.2507   ZZ=            -79.8423
   XY=             11.8707   XZ=              0.0026   YZ=             -0.0009

 Summary of Natural Population Analysis:

                                       Natural Population
                Natural  -----------------------------------------------
    Atom  No    Charge         Core      Valence    Rydberg      Total
 -----------------------------------------------------------------------
      C    1   -0.30957      0.99966     2.30451    0.00540     3.30957
      C    2    0.05929      0.99952     1.92994    0.01126     2.94071
      C    3   -0.09178      0.99943     2.08239    0.00995     3.09178
      C    4   -0.28412      0.99965     2.27993    0.00454     3.28412
      C    5    0.43909      0.99961     1.53858    0.02272     2.56091
      O    6   -0.27921      0.99987     3.27249    0.00684     4.27921
      O    7   -0.28063      0.99984     3.27280    0.00800     4.28063
      C    8    0.22752      0.99942     1.75844    0.01462     2.77248
      C    9   -0.06678      0.99953     2.05205    0.01521     3.06678
      N   10   -0.26129      0.99973     2.74891    0.01265     3.76129
      C   11    0.08508      0.99970     1.89658    0.01864     2.91492
      N   12   -0.28098      0.99966     2.77402    0.00730     3.78098
      H   13    0.11003      0.00000     0.38874    0.00123     0.38997
      H   14    0.08275      0.00000     0.41603    0.00122     0.41725
      H   15    0.11004      0.00000     0.38873    0.00123     0.38996
      H   16    0.06934      0.00000     0.42904    0.00161     0.43066
      H   17    0.09196      0.00000     0.40664    0.00140     0.40804
      H   18    0.09196      0.00000     0.40664    0.00140     0.40804
      H   19    0.09075      0.00000     0.40814    0.00111     0.40925
      H   20    0.11335      0.00000     0.38566    0.00099     0.38665
      H   21    0.08310      0.00000     0.41571    0.00119     0.41690
      H   22    0.20009      0.00000     0.29810    0.00181     0.29991
 =======================================================================
   * Total *   -0.00000     11.99563    31.85406    0.15031    44.00000

 Normal termination of Gaussian 16 at Wed Dec  9 18:11:34 2020.
