 Gaussian 16, Revision A.03,

 -----------------------------------------------------------
 # opt freq B3LYP/6-31G(d) empiricaldispersion=gd3bj scf=xqc
 -----------------------------------------------------------

 ------------------------------
 CID_82591067_JID_4157_neutraal
 ------------------------------
 Symbolic Z-matrix:
 Charge =  0 Multiplicity = 1

 SCF Done:  E(RB3LYP) =  -664.333349289     A.U. after   16 cycles
 SCF Done:  E(RB3LYP) =  -664.336917790     A.U. after   13 cycles
 SCF Done:  E(RB3LYP) =  -664.337127625     A.U. after   13 cycles
 SCF Done:  E(RB3LYP) =  -664.337364178     A.U. after   12 cycles
 SCF Done:  E(RB3LYP) =  -664.337494977     A.U. after   11 cycles
 SCF Done:  E(RB3LYP) =  -664.337552498     A.U. after   12 cycles
 SCF Done:  E(RB3LYP) =  -664.337616462     A.U. after   12 cycles
 SCF Done:  E(RB3LYP) =  -664.337647824     A.U. after   12 cycles
 SCF Done:  E(RB3LYP) =  -664.337713751     A.U. after   10 cycles
 SCF Done:  E(RB3LYP) =  -664.337838139     A.U. after   12 cycles
 SCF Done:  E(RB3LYP) =  -664.337920019     A.U. after   10 cycles
 SCF Done:  E(RB3LYP) =  -664.337923058     A.U. after   12 cycles
 SCF Done:  E(RB3LYP) =  -664.337926829     A.U. after   10 cycles
 SCF Done:  E(RB3LYP) =  -664.337927467     A.U. after   10 cycles
 SCF Done:  E(RB3LYP) =  -664.337927614     A.U. after    8 cycles
 SCF Done:  E(RB3LYP) =  -664.337927620     A.U. after    7 cycles
 Optimization completed.
    -- Stationary point found.
 Normal termination of Gaussian 16 at Thu Dec 10 09:31:17 2020.

 --------------------------------------------------------------------
 #N Geom=AllCheck Guess=TCheck SCRF=Check GenChk RB3LYP/6-31G(d) Freq
 --------------------------------------------------------------------

 Structure from the checkpoint file:  "JID_4157.chk"
 ------------------------------
 CID_82591067_JID_4157_neutraal
 ------------------------------
 Charge =  0 Multiplicity = 1

 SCF Done:  E(RB3LYP) =  -664.337927620     A.U. after    1 cycles

  Exact polarizability: 138.208  -2.725 136.287   3.624   1.861  66.440
 Approx polarizability: 188.971 -12.131 228.847   7.581   5.706 106.257

                      1                      2                      3
                      A                      A                      A
 Frequencies --     37.4046                47.6192                60.8706
 Red. masses --      1.1838                 3.9401                 5.4747
 Frc consts  --      0.0010                 0.0053                 0.0120
 IR Inten    --      0.6659                 4.7727                 3.3525

                      4                      5                      6
                      A                      A                      A
 Frequencies --    111.1793               131.4743               151.9770
 Red. masses --      2.5884                 3.9610                 6.8672
 Frc consts  --      0.0189                 0.0403                 0.0935
 IR Inten    --      0.1638                 1.0418                 5.4884

                      7                      8                      9
                      A                      A                      A
 Frequencies --    210.7672               234.4100               262.6753
 Red. masses --      3.4053                 3.4985                 3.6140
 Frc consts  --      0.0891                 0.1133                 0.1469
 IR Inten    --      3.0546                 2.9170                 0.4730

                     10                     11                     12
                      A                      A                      A
 Frequencies --    309.5831               332.9695               350.0595
 Red. masses --      2.5597                 4.4741                 5.2562
 Frc consts  --      0.1445                 0.2923                 0.3795
 IR Inten    --      1.2797                14.5592                 2.6185

                     13                     14                     15
                      A                      A                      A
 Frequencies --    403.8276               440.1706               462.7268
 Red. masses --      1.3092                 3.2220                 4.9845
 Frc consts  --      0.1258                 0.3678                 0.6288
 IR Inten    --    257.2497                 3.3823                 9.3063

                     16                     17                     18
                      A                      A                      A
 Frequencies --    484.4815               554.8851               581.1529
 Red. masses --      3.1548                 1.3082                 3.2847
 Frc consts  --      0.4363                 0.2373                 0.6536
 IR Inten    --      9.5613                 6.6175                15.8744

                     19                     20                     21
                      A                      A                      A
 Frequencies --    605.9276               630.5749               646.4689
 Red. masses --      4.1786                 3.5604                 3.9864
 Frc consts  --      0.9039                 0.8341                 0.9816
 IR Inten    --      4.3702                 6.0238                 8.3233

                     22                     23                     24
                      A                      A                      A
 Frequencies --    662.8947               691.8277               747.1377
 Red. masses --      4.8169                 4.9113                 4.2389
 Frc consts  --      1.2471                 1.3850                 1.3941
 IR Inten    --      8.7701                21.4031                19.4042

                     25                     26                     27
                      A                      A                      A
 Frequencies --    797.7660               822.9027               878.9443
 Red. masses --      8.1037                 2.7548                 1.6161
 Frc consts  --      3.0387                 1.0991                 0.7356
 IR Inten    --      1.7496                16.4470                 4.2281

                     28                     29                     30
                      A                      A                      A
 Frequencies --    906.9044               961.5685              1039.5544
 Red. masses --      2.5023                 3.4524                 2.8825
 Frc consts  --      1.2126                 1.8808                 1.8353
 IR Inten    --      5.0511                26.3560                51.8121

                     31                     32                     33
                      A                      A                      A
 Frequencies --   1053.1510              1066.5272              1086.7116
 Red. masses --      2.6073                 2.1830                 2.1483
 Frc consts  --      1.7038                 1.4630                 1.4947
 IR Inten    --      6.5890                 7.6102                 5.8635

                     34                     35                     36
                      A                      A                      A
 Frequencies --   1116.1166              1155.8665              1171.6372
 Red. masses --      1.9794                 1.3085                 1.3412
 Frc consts  --      1.4528                 1.0300                 1.0847
 IR Inten    --      2.8725                 5.8223                 4.4530

                     37                     38                     39
                      A                      A                      A
 Frequencies --   1175.9081              1218.4204              1258.9535
 Red. masses --      2.2738                 1.6254                 2.5443
 Frc consts  --      1.8525                 1.4217                 2.3759
 IR Inten    --      4.8472                 6.5256                17.1944

                     40                     41                     42
                      A                      A                      A
 Frequencies --   1286.2822              1325.5750              1354.5211
 Red. masses --      1.2671                 5.1001                 1.7432
 Frc consts  --      1.2352                 5.2801                 1.8844
 IR Inten    --     12.4359                 8.6213                42.7006

                     43                     44                     45
                      A                      A                      A
 Frequencies --   1370.0598              1375.6303              1392.1037
 Red. masses --      2.7828                 1.6031                 1.4491
 Frc consts  --      3.0775                 1.7874                 1.6546
 IR Inten    --    167.9517                 1.7190                18.1704

                     46                     47                     48
                      A                      A                      A
 Frequencies --   1429.7988              1470.9688              1493.5086
 Red. masses --      5.3781                 1.4293                 1.0982
 Frc consts  --      6.4779                 1.8221                 1.4433
 IR Inten    --     30.8062                18.9282                10.8302

                     49                     50                     51
                      A                      A                      A
 Frequencies --   1506.2283              1510.1058              1515.9345
 Red. masses --      1.2968                 1.5941                 1.5090
 Frc consts  --      1.7334                 2.1418                 2.0431
 IR Inten    --     15.5037                13.1596                11.5409

                     52                     53                     54
                      A                      A                      A
 Frequencies --   1523.2993              1526.6194              1541.4471
 Red. masses --      1.5728                 1.1811                 2.2557
 Frc consts  --      2.1502                 1.6218                 3.1578
 IR Inten    --     13.8834                 2.6656               114.7828

                     55                     56                     57
                      A                      A                      A
 Frequencies --   1575.2263              1636.0998              1797.8495
 Red. masses --      5.5302                 1.2826                11.2812
 Frc consts  --      8.0850                 2.0228                21.4838
 IR Inten    --      6.0174               169.6614                64.0482

                     58                     59                     60
                      A                      A                      A
 Frequencies --   1819.1087              3021.1583              3026.9870
 Red. masses --     10.6680                 1.0682                 1.0700
 Frc consts  --     20.7993                 5.7444                 5.7765
 IR Inten    --    370.8360                19.5951                 9.5003

                     61                     62                     63
                      A                      A                      A
 Frequencies --   3054.2692              3066.5629              3075.6913
 Red. masses --      1.0641                 1.0388                 1.0899
 Frc consts  --      5.8487                 5.7553                 6.0746
 IR Inten    --     23.1072                35.5532                38.7750

                     64                     65                     66
                      A                      A                      A
 Frequencies --   3101.2541              3126.2883              3134.3351
 Red. masses --      1.1035                 1.0937                 1.1022
 Frc consts  --      6.2534                 6.2980                 6.3796
 IR Inten    --     36.5752                15.9072                15.0381

                     67                     68                     69
                      A                      A                      A
 Frequencies --   3188.3886              3579.7486              3707.1400
 Red. masses --      1.1023                 1.0448                 1.1044
 Frc consts  --      6.6023                 7.8880                 8.9421
 IR Inten    --      2.4512                29.1738                44.1741

 - Thermochemistry -
 -------------------
 Temperature   298.150 Kelvin.  Pressure   1.00000 Atm.
 Atom     1 has atomic number  6 and mass  12.00000

 Molecular mass:   193.08513 amu.
 Principal axes and moments of inertia in atomic units:
                           1         2         3
     Eigenvalues --  1925.952882717.859064520.12142
           X            0.99967   0.02549   0.00331
           Y           -0.02549   0.99967   0.00063
           Z           -0.00329  -0.00071   0.99999
 This molecule is an asymmetric top.
 Rotational symmetry number  1.
 Warning -- assumption of classical behavior for rotation
           may cause significant error
 Rotational temperatures (Kelvin)      0.04497     0.03187     0.01916
 Rotational constants (GHZ):           0.93706     0.66403     0.39927
 Zero-point vibrational energy     528726.6 (Joules/Mol)
                                  126.36869 (Kcal/Mol)
 Warning -- explicit consideration of  19 degrees of freedom as
           vibrations may cause significant error
 Vibrational temperatures:     53.82    68.51    87.58   159.96   189.16
          (Kelvin)            218.66   303.25   337.26   377.93   445.42
                              479.07   503.66   581.02   633.31   665.76
                              697.06   798.36   836.15   871.79   907.26
                              930.12   953.76   995.39  1074.96  1147.81
                             1183.97  1264.60  1304.83  1383.48  1495.69
                             1515.25  1534.49  1563.54  1605.84  1663.03
                             1685.72  1691.87  1753.04  1811.35  1850.67
                             1907.21  1948.85  1971.21  1979.23  2002.93
                             2057.16  2116.40  2148.83  2167.13  2172.71
                             2181.09  2191.69  2196.46  2217.80  2266.40
                             2353.98  2586.70  2617.29  4346.77  4355.16
                             4394.41  4412.10  4425.23  4462.01  4498.03
                             4509.61  4587.38  5150.46  5333.75

 Zero-point correction=                           0.201381 (Hartree/Particle)
 Thermal correction to Energy=                    0.214268
 Thermal correction to Enthalpy=                  0.215213
 Thermal correction to Gibbs Free Energy=         0.161009
 Sum of electronic and zero-point Energies=           -664.136546
 Sum of electronic and thermal Energies=              -664.123659
 Sum of electronic and thermal Enthalpies=            -664.122715
 Sum of electronic and thermal Free Energies=         -664.176919

                     E (Thermal)             CV                S
                      KCal/Mol        Cal/Mol-Kelvin    Cal/Mol-Kelvin
 Total                  134.455             47.787            114.081
 Electronic               0.000              0.000              0.000
 Translational            0.889              2.981             41.679
 Rotational               0.889              2.981             31.537
 Vibrational            132.678             41.825             40.865
 Vibration     1          0.594              1.982              5.392
 Vibration     2          0.595              1.978              4.914
 Vibration     3          0.597              1.973              4.429
 Vibration     4          0.607              1.940              3.248
 Vibration     5          0.612              1.922              2.924
 Vibration     6          0.619              1.900              2.647
 Vibration     7          0.643              1.824              2.037
 Vibration     8          0.654              1.788              1.845
 Vibration     9          0.670              1.741              1.644
 Vibration    10          0.699              1.655              1.365
 Vibration    11          0.715              1.610              1.246
 Vibration    12          0.727              1.575              1.166
 Vibration    13          0.769              1.462              0.949
 Vibration    14          0.800              1.383              0.826
 Vibration    15          0.820              1.333              0.758
 Vibration    16          0.841              1.284              0.698
 Vibration    17          0.910              1.129              0.534
 Vibration    18          0.938              1.072              0.483
 Vibration    19          0.965              1.019              0.440

 Optimization completed.
    -- Stationary point found.
 Normal termination of Gaussian 16 at Thu Dec 10 09:38:00 2020.

 ----------------------------------------------------------------------
 # B3LYP/6-311++G(d,p) empiricaldispersion=gd3bj scf=xqc pop=npa geom=c
 heck
 ----------------------------------------------------------------------

 --------------------------------------
 CID_82591067_JID_4157_Energie_neutraal
 --------------------------------------
 Structure from the checkpoint file:  "JID_4157.chk"
 Charge =  0 Multiplicity = 1

 SCF Done:  E(RB3LYP) =  -664.527467021     A.U. after   16 cycles
 Normal termination of Gaussian 16 at Thu Dec 10 09:40:34 2020.

 ----------------------------------------------------------------------
 # B3LYP/6-311++G(d,p) empiricaldispersion=gd3bj scf=xqc pop=npa geom=c
 heck
 ----------------------------------------------------------------------

 ------------------------------------
 CID_82591067_JID_4157_Energie_kation
 ------------------------------------
 Structure from the checkpoint file:  "JID_4157.chk"
 Charge =  1 Multiplicity = 2

 SCF Done:  E(UB3LYP) =  -664.218775811     A.U. after   28 cycles
 Normal termination of Gaussian 16 at Thu Dec 10 09:46:31 2020.
 Gaussian 16:  ES64L-G16RevA.03 25-Dec-2016

 ----------------------------------------------------------------------
 # B3LYP/6-311++G(d,p) empiricaldispersion=gd3bj scf=xqc pop=npa geom=c
 heck
 ----------------------------------------------------------------------

 -----------------------------------
 CID_82591067_JID_4157_Energie_anion
 -----------------------------------
 Structure from the checkpoint file:  "JID_4157.chk"
 Charge = -1 Multiplicity = 2

                         Standard orientation:
 ---------------------------------------------------------------------
 Center     Atomic      Atomic             Coordinates (Angstroms)
 Number     Number       Type             X           Y           Z
 ---------------------------------------------------------------------
      1          6           0       -0.619230    3.252293   -0.092513
      2          7           0       -0.220894    1.859143   -0.029064
      3          6           0       -1.010383    0.757697   -0.055949
      4          6           0       -0.162478   -0.348725   -0.037286
      5          6           0       -0.703994   -1.720153    0.014117
      6          8           0       -0.051339   -2.718269    0.253179
      7          6           0       -2.213365   -1.790878   -0.254375
      8          6           0       -2.994138   -0.638418    0.397560
      9          6           0       -2.503237    0.734095   -0.098382
     10          6           0        1.149752    0.208287   -0.005889
     11          7           0        1.099041    1.541092   -0.005754
     12          6           0        2.485477   -0.466995   -0.054219
     13          8           0        2.636793   -1.605626   -0.463548
     14          7           0        3.509991    0.321136    0.403428
     15          1           0        0.232830    3.851651    0.227102
     16          1           0       -1.464928    3.431365    0.576516
     17          1           0       -0.900678    3.535147   -1.112629
     18          1           0       -2.565857   -2.763420    0.098761
     19          1           0       -2.360465   -1.764455   -1.344875
     20          1           0       -4.065318   -0.742695    0.195068
     21          1           0       -2.866396   -0.688609    1.486154
     22          1           0       -2.846135    0.903178   -1.130209
     23          1           0       -2.932242    1.541141    0.507885
     24          1           0        3.350312    1.312781    0.515366
     25          1           0        4.447845    0.002277    0.205148
 ---------------------------------------------------------------------

 SCF Done:  E(UB3LYP) =  -664.526783020     A.U. after   31 cycles

 The electronic state is 2-A.
 Alpha  occ. eigenvalues --  -18.97060 -18.96696 -14.29257 -14.22642 -14.22060
 Alpha  occ. eigenvalues --  -10.15924 -10.12176 -10.11080 -10.11047 -10.08916
 Alpha  occ. eigenvalues --  -10.08436 -10.07545 -10.06321 -10.05990  -0.95185
 Alpha  occ. eigenvalues --   -0.92163  -0.90388  -0.79781  -0.74738  -0.73217
 Alpha  occ. eigenvalues --   -0.66467  -0.62228  -0.60685  -0.54160  -0.51668
 Alpha  occ. eigenvalues --   -0.49096  -0.45227  -0.43589  -0.41475  -0.39075
 Alpha  occ. eigenvalues --   -0.38649  -0.36841  -0.35396  -0.33153  -0.32330
 Alpha  occ. eigenvalues --   -0.32027  -0.31561  -0.30496  -0.30044  -0.29316
 Alpha  occ. eigenvalues --   -0.28701  -0.26388  -0.24827  -0.24130  -0.23010
 Alpha  occ. eigenvalues --   -0.20242  -0.16695  -0.15378  -0.14523  -0.14202
 Alpha  occ. eigenvalues --   -0.11656   0.03988
 Alpha virt. eigenvalues --    0.06009   0.07298   0.08081   0.08498   0.08986
 Alpha virt. eigenvalues --    0.09658   0.10643   0.10861   0.11131   0.12585
 Alpha virt. eigenvalues --    0.13453   0.14010   0.14473   0.15297   0.15522

  Beta  occ. eigenvalues --  -18.96975 -18.96485 -14.29289 -14.22530 -14.22049
  Beta  occ. eigenvalues --  -10.15875 -10.12041 -10.11052 -10.10984 -10.08824
  Beta  occ. eigenvalues --  -10.08398 -10.07519 -10.06332 -10.05988  -0.95113
  Beta  occ. eigenvalues --   -0.92021  -0.90006  -0.79715  -0.74632  -0.73135
  Beta  occ. eigenvalues --   -0.66394  -0.62043  -0.60543  -0.53986  -0.51544
  Beta  occ. eigenvalues --   -0.48955  -0.45151  -0.43504  -0.41356  -0.38955
  Beta  occ. eigenvalues --   -0.38554  -0.36755  -0.35323  -0.33041  -0.32221
  Beta  occ. eigenvalues --   -0.31799  -0.31433  -0.30320  -0.29837  -0.29154
  Beta  occ. eigenvalues --   -0.28442  -0.26084  -0.24713  -0.24061  -0.22417
  Beta  occ. eigenvalues --   -0.20090  -0.16419  -0.15058  -0.14333  -0.13766
  Beta  occ. eigenvalues --   -0.11476
  Beta virt. eigenvalues --    0.06871   0.07524   0.07889   0.08297   0.09216
  Beta virt. eigenvalues --    0.09550   0.10156   0.10886   0.11276   0.11617
  Beta virt. eigenvalues --    0.12812   0.13765   0.14507   0.14551   0.15567

 Mulliken charges and spin densities:
               1          2
     1  C    1.148918  -1.470438
     2  N   -0.026929   0.133832
     3  C   -0.511882  -0.199290
     4  C    1.122965  -0.347763
     5  C   -0.580155  -0.181327
     6  O   -0.301051   0.077146
     7  C   -0.265757   0.114000
     8  C   -0.377366   0.096700
     9  C    0.515983  -0.334656
    10  C    0.283001  -0.114670
    11  N   -0.318401   0.251842
    12  C   -0.035530  -0.003505
    13  O   -0.350683   0.029500
    14  N   -0.366975   0.000384
    15  H   -0.230694   0.397722
    16  H   -0.507449   0.675101
    17  H   -0.407476   0.588852
    18  H    0.188927  -0.023838
    19  H    0.044948   0.104239
    20  H   -0.337278   0.510233
    21  H    0.149801  -0.006746
    22  H   -0.009930   0.205558
    23  H   -0.344779   0.490806
    24  H    0.244922   0.007717
    25  H    0.272870  -0.001397
 Sum of Mulliken charges =  -1.00000   1.00000

 Dipole moment (field-independent basis, Debye):
    X=              2.6294    Y=             -0.2092    Z=              0.1851  Tot=              2.6442
 Quadrupole moment (field-independent basis, Debye-Ang):
   XX=           -119.9323   YY=           -142.8048   ZZ=           -100.8695
   XY=             22.0130   XZ=              1.3621   YZ=             -1.1837

 Summary of Natural Population Analysis:

                                       Natural Population
                Natural  -----------------------------------------------
    Atom  No    Charge         Core      Valence    Rydberg      Total
 -----------------------------------------------------------------------
      C    1   -0.17359      0.99964     2.16597    0.00798     3.17359
      N    2   -0.10954      0.99961     2.59631    0.01362     3.60954
      C    3    0.11623      0.99948     1.87236    0.01192     2.88377
      C    4   -0.12058      0.99941     2.10543    0.01574     3.12058
      C    5    0.28901      0.99961     1.69035    0.02103     2.71099
      O    6   -0.25875      0.99988     3.25289    0.00599     4.25875
      C    7   -0.23195      0.99961     2.22290    0.00944     3.23195
      C    8   -0.18311      0.99964     2.17463    0.00884     3.18311
      C    9   -0.20768      0.99960     2.19934    0.00874     3.20768
      C   10    0.10363      0.99951     1.88511    0.01175     2.89637
      N   11   -0.15671      0.99971     2.64263    0.01437     3.65671
      C   12    0.31467      0.99971     1.65904    0.02658     2.68533
      O   13   -0.29437      0.99988     3.28835    0.00614     4.29437
      N   14   -0.40717      0.99970     2.89996    0.00752     3.90717
      H   15    0.10862      0.00000     0.38975    0.00163     0.39138
      H   16    0.10431      0.00000     0.39300    0.00268     0.39569
      H   17    0.09926      0.00000     0.39904    0.00170     0.40074
      H   18    0.10572      0.00000     0.39314    0.00114     0.39428
      H   19    0.10310      0.00000     0.39557    0.00133     0.39690
      H   20    0.10018      0.00000     0.39861    0.00121     0.39982
      H   21    0.09580      0.00000     0.40301    0.00119     0.40420
      H   22    0.10637      0.00000     0.39228    0.00135     0.39363
      H   23    0.11147      0.00000     0.38599    0.00254     0.38853
      H   24    0.19767      0.00000     0.30003    0.00230     0.30233
      H   25    0.18768      0.00000     0.31077    0.00155     0.31232
 =======================================================================
   * Total *    0.00029     13.99499    36.81646    0.18826    50.99971

 Normal termination of Gaussian 16 at Thu Dec 10 09:52:57 2020.
