 Gaussian 16, Revision A.03,

 -----------------------------------------------------------
 # opt freq B3LYP/6-31G(d) empiricaldispersion=gd3bj scf=xqc
 -----------------------------------------------------------

 -------------------------------
 CID_141172620_JID_6189_neutraal
 -------------------------------
 Symbolic Z-matrix:
 Charge =  0 Multiplicity = 1

 SCF Done:  E(RB3LYP) =  -692.418315980     A.U. after   15 cycles
 SCF Done:  E(RB3LYP) =  -692.422006334     A.U. after   13 cycles
 SCF Done:  E(RB3LYP) =  -692.420253858     A.U. after   14 cycles
 SCF Done:  E(RB3LYP) =  -692.423494663     A.U. after   13 cycles
 SCF Done:  E(RB3LYP) =  -692.424046605     A.U. after   13 cycles
 SCF Done:  E(RB3LYP) =  -692.424804669     A.U. after   15 cycles
 SCF Done:  E(RB3LYP) =  -692.425322820     A.U. after   13 cycles
 SCF Done:  E(RB3LYP) =  -692.425451567     A.U. after   15 cycles
 SCF Done:  E(RB3LYP) =  -692.425712205     A.U. after   13 cycles
 SCF Done:  E(RB3LYP) =  -692.425783147     A.U. after   11 cycles
 SCF Done:  E(RB3LYP) =  -692.429042891     A.U. after   13 cycles
 SCF Done:  E(RB3LYP) =  -692.429078342     A.U. after   11 cycles
 SCF Done:  E(RB3LYP) =  -692.429095193     A.U. after   11 cycles
 SCF Done:  E(RB3LYP) =  -692.429099915     A.U. after   11 cycles
 SCF Done:  E(RB3LYP) =  -692.429101790     A.U. after   10 cycles
 SCF Done:  E(RB3LYP) =  -692.429101949     A.U. after    8 cycles
 Optimization completed.
    -- Stationary point found.
 Normal termination of Gaussian 16 at Thu Dec 10 21:39:54 2020.

 --------------------------------------------------------------------
 #N Geom=AllCheck Guess=TCheck SCRF=Check GenChk RB3LYP/6-31G(d) Freq
 --------------------------------------------------------------------

 Structure from the checkpoint file:  "JID_6189.chk"
 -------------------------------
 CID_141172620_JID_6189_neutraal
 -------------------------------
 Charge =  0 Multiplicity = 1

 SCF Done:  E(RB3LYP) =  -692.429101949     A.U. after    1 cycles

  Exact polarizability: 207.311   3.537 146.592 -29.134  -1.113  93.719
 Approx polarizability: 290.270   2.836 257.581 -61.456   8.605 160.003

                      1                      2                      3
                      A                      A                      A
 Frequencies --     17.2389                40.8795                54.6220
 Red. masses --      4.9389                 4.9990                 2.9069
 Frc consts  --      0.0009                 0.0049                 0.0051
 IR Inten    --      1.2635                 2.3413                 1.8496

                      4                      5                      6
                      A                      A                      A
 Frequencies --     97.7912               126.4902               152.6265
 Red. masses --      4.7242                 2.9964                 4.3439
 Frc consts  --      0.0266                 0.0282                 0.0596
 IR Inten    --      0.2116                 1.8668                 4.0946

                      7                      8                      9
                      A                      A                      A
 Frequencies --    164.2663               188.8048               246.3568
 Red. masses --      3.2021                 2.4404                 2.1165
 Frc consts  --      0.0509                 0.0513                 0.0757
 IR Inten    --      0.1961                 1.0461                 1.9926

                     10                     11                     12
                      A                      A                      A
 Frequencies --    259.6207               296.2203               318.1099
 Red. masses --      3.3747                 2.2825                 4.1521
 Frc consts  --      0.1340                 0.1180                 0.2476
 IR Inten    --      0.5085                 8.5968                 4.4596

                     13                     14                     15
                      A                      A                      A
 Frequencies --    389.1229               401.0245               428.7852
 Red. masses --      3.9183                 2.6257                 3.8032
 Frc consts  --      0.3496                 0.2488                 0.4120
 IR Inten    --      0.3668                 7.4649                 0.5329

                     16                     17                     18
                      A                      A                      A
 Frequencies --    474.6948               485.9228               496.1880
 Red. masses --      6.3359                 4.7921                 3.8093
 Frc consts  --      0.8412                 0.6667                 0.5526
 IR Inten    --      1.2542                 2.6764                 3.2164

                     19                     20                     21
                      A                      A                      A
 Frequencies --    541.0709               559.0444               583.8613
 Red. masses --      3.2191                 7.2902                 3.9289
 Frc consts  --      0.5553                 1.3424                 0.7891
 IR Inten    --      6.0145                 2.8246                 7.9838

                     22                     23                     24
                      A                      A                      A
 Frequencies --    653.4089               691.1434               714.3626
 Red. masses --      3.0336                 3.2441                 2.4034
 Frc consts  --      0.7631                 0.9130                 0.7226
 IR Inten    --      7.1587                 4.0591                 6.7699

                     25                     26                     27
                      A                      A                      A
 Frequencies --    717.8146               779.8219               790.9355
 Red. masses --      3.2053                 1.5303                 2.8734
 Frc consts  --      0.9731                 0.5483                 1.0591
 IR Inten    --      6.1808                23.7255                22.8245

                     28                     29                     30
                      A                      A                      A
 Frequencies --    810.5830               827.5954               870.7682
 Red. masses --      2.0605                 1.7273                 3.0262
 Frc consts  --      0.7977                 0.6970                 1.3519
 IR Inten    --     29.7419                26.1774                 3.1153

                     31                     32                     33
                      A                      A                      A
 Frequencies --    881.4416               899.5830               903.2267
 Red. masses --      3.7070                 2.0087                 1.9782
 Frc consts  --      1.6969                 0.9577                 0.9508
 IR Inten    --     28.7208                 1.4562                 6.4652

                     34                     35                     36
                      A                      A                      A
 Frequencies --    924.2781               974.2809               989.9271
 Red. masses --      1.9137                 1.3592                 1.2872
 Frc consts  --      0.9632                 0.7602                 0.7432
 IR Inten    --      0.7520                 1.6121                 4.2458

                     37                     38                     39
                      A                      A                      A
 Frequencies --    994.4334              1002.9322              1034.9130
 Red. masses --      2.9171                 1.3205                 4.8425
 Frc consts  --      1.6996                 0.7826                 3.0558
 IR Inten    --      5.1290                 0.4664               138.1490

                     40                     41                     42
                      A                      A                      A
 Frequencies --   1070.1972              1071.3830              1079.6337
 Red. masses --      1.9325                 1.7815                 2.0980
 Frc consts  --      1.3041                 1.2049                 1.4408
 IR Inten    --     18.1218                 0.4463                10.5504

                     43                     44                     45
                      A                      A                      A
 Frequencies --   1111.9878              1141.5316              1147.6139
 Red. masses --      1.8627                 1.9179                 1.7931
 Frc consts  --      1.3571                 1.4725                 1.3914
 IR Inten    --      5.4832                44.5114                 6.2946

                     46                     47                     48
                      A                      A                      A
 Frequencies --   1187.4203              1196.5328              1218.6096
 Red. masses --      1.2507                 1.1471                 1.3822
 Frc consts  --      1.0390                 0.9676                 1.2094
 IR Inten    --     53.2187                11.9902                27.9060

                     49                     50                     51
                      A                      A                      A
 Frequencies --   1252.4770              1265.7095              1272.0653
 Red. masses --      1.8650                 1.6315                 1.7295
 Frc consts  --      1.7238                 1.5399                 1.6489
 IR Inten    --      3.7758                51.2899                 7.8420

                     52                     53                     54
                      A                      A                      A
 Frequencies --   1316.3567              1320.9423              1336.7988
 Red. masses --      1.5008                 1.4123                 1.6917
 Frc consts  --      1.5323                 1.4520                 1.7811
 IR Inten    --     91.1523                 7.3794                 9.5674

                     55                     56                     57
                      A                      A                      A
 Frequencies --   1370.6746              1394.5800              1405.7446
 Red. masses --      7.0435                 1.3808                 1.6614
 Frc consts  --      7.7967                 1.5823                 1.9344
 IR Inten    --     14.7730                 0.5500                38.4993

                     58                     59                     60
                      A                      A                      A
 Frequencies --   1438.9190              1445.3575              1483.8617
 Red. masses --      1.2675                 1.6515                 1.0875
 Frc consts  --      1.5462                 2.0327                 1.4108
 IR Inten    --      7.4120                 9.3731                15.3251

                     61                     62                     63
                      A                      A                      A
 Frequencies --   1499.5987              1514.2346              1529.2478
 Red. masses --      2.3710                 1.0732                 1.0508
 Frc consts  --      3.1415                 1.4498                 1.4479
 IR Inten    --      8.7317                 3.1889                 6.4892

                     64                     65                     66
                      A                      A                      A
 Frequencies --   1531.6608              1544.4605              1623.1822
 Red. masses --      2.7540                 1.0524                 6.0815
 Frc consts  --      3.8066                 1.4790                 9.4406
 IR Inten    --     12.7029                 5.2269                 1.7595

                     67                     68                     69
                      A                      A                      A
 Frequencies --   1656.7994              1720.1892              1751.0106
 Red. masses --      5.8306                 6.9372                11.7350
 Frc consts  --      9.4297                12.0945                21.1987
 IR Inten    --     60.4927                24.9601               188.2771

                     70                     71                     72
                      A                      A                      A
 Frequencies --   1817.0882              3022.8226              3046.3582
 Red. masses --     10.5773                 1.0687                 1.0409
 Frc consts  --     20.5767                 5.7534                 5.6916
 IR Inten    --    110.5701                10.7493                33.7188

                     73                     74                     75
                      A                      A                      A
 Frequencies --   3052.3739              3058.5002              3074.8527
 Red. masses --      1.0636                 1.0824                 1.0901
 Frc consts  --      5.8386                 5.9654                 6.0727
 IR Inten    --     28.7093                 6.6659                 2.8921

                     76                     77                     78
                      A                      A                      A
 Frequencies --   3090.6575              3110.8005              3142.1741
 Red. masses --      1.0990                 1.1004                 1.1007
 Frc consts  --      6.1851                 6.2740                 6.4028
 IR Inten    --     13.0756                48.4900                27.8210

                     79                     80                     81
                      A                      A                      A
 Frequencies --   3180.3631              3186.4432              3198.6983
 Red. masses --      1.0855                 1.0865                 1.0908
 Frc consts  --      6.4692                 6.5000                 6.5755
 IR Inten    --      1.8373                 2.4902                 7.1127

                     82                     83                     84
                      A                      A                      A
 Frequencies --   3201.3820              3211.1732              3226.9854
 Red. masses --      1.0966                 1.0943                 1.0939
 Frc consts  --      6.6217                 6.6483                 6.7112
 IR Inten    --     31.3587                21.6393                 8.8510

 - Thermochemistry -
 -------------------
 Temperature   298.150 Kelvin.  Pressure   1.00000 Atm.
 Atom     1 has atomic number  6 and mass  12.00000

 Molecular mass:   214.09938 amu.
 Principal axes and moments of inertia in atomic units:
                           1         2         3
     Eigenvalues --  1481.621466004.902696646.32951
           X            0.99999  -0.00369  -0.00071
           Y            0.00367   0.99962  -0.02744
           Z            0.00082   0.02744   0.99962
 This molecule is an asymmetric top.
 Rotational symmetry number  1.
 Warning -- assumption of classical behavior for rotation
           may cause significant error
 Rotational temperatures (Kelvin)      0.05846     0.01442     0.01303
 Rotational constants (GHZ):           1.21809     0.30054     0.27154
 Zero-point vibrational energy     647799.7 (Joules/Mol)
                                  154.82783 (Kcal/Mol)
 Warning -- explicit consideration of  21 degrees of freedom as
           vibrations may cause significant error
 Vibrational temperatures:     24.80    58.82    78.59   140.70   181.99
          (Kelvin)            219.60   236.34   271.65   354.45   373.54
                              426.19   457.69   559.86   576.98   616.93
                              682.98   699.13   713.90   778.48   804.34
                              840.05   940.11   994.40  1027.81  1032.78
                             1121.99  1137.98  1166.25  1190.73  1252.84
                             1268.20  1294.30  1299.54  1329.83  1401.77
                             1424.28  1430.77  1443.00  1489.01  1539.78
                             1541.48  1553.35  1599.90  1642.41  1651.16
                             1708.43  1721.54  1753.31  1802.03  1821.07
                             1830.22  1893.94  1900.54  1923.36  1972.10
                             2006.49  2022.55  2070.28  2079.55  2134.95
                             2157.59  2178.65  2200.25  2203.72  2222.13
                             2335.40  2383.76  2474.97  2519.31  2614.38
                             4349.17  4383.03  4391.69  4400.50  4424.03
                             4446.77  4475.75  4520.89  4575.83  4584.58
                             4602.21  4606.07  4620.16  4642.91

 Zero-point correction=                           0.246734 (Hartree/Particle)
 Thermal correction to Energy=                    0.260939
 Thermal correction to Enthalpy=                  0.261883
 Thermal correction to Gibbs Free Energy=         0.203983
 Sum of electronic and zero-point Energies=           -692.182368
 Sum of electronic and thermal Energies=              -692.168163
 Sum of electronic and thermal Enthalpies=            -692.167219
 Sum of electronic and thermal Free Energies=         -692.225119

                     E (Thermal)             CV                S
                      KCal/Mol        Cal/Mol-Kelvin    Cal/Mol-Kelvin
 Total                  163.742             54.505            121.861
 Electronic               0.000              0.000              0.000
 Translational            0.889              2.981             41.987
 Rotational               0.889              2.981             32.447
 Vibrational            161.964             48.543             47.427
 Vibration     1          0.593              1.986              6.929
 Vibration     2          0.594              1.981              5.216
 Vibration     3          0.596              1.976              4.643
 Vibration     4          0.603              1.951              3.498
 Vibration     5          0.611              1.927              2.999
 Vibration     6          0.619              1.900              2.639
 Vibration     7          0.623              1.886              2.500
 Vibration     8          0.633              1.855              2.240
 Vibration     9          0.661              1.769              1.757
 Vibration    10          0.668              1.746              1.664
 Vibration    11          0.690              1.681              1.438
 Vibration    12          0.705              1.639              1.320
 Vibration    13          0.757              1.493              1.004
 Vibration    14          0.767              1.468              0.959
 Vibration    15          0.790              1.408              0.863
 Vibration    16          0.831              1.306              0.725
 Vibration    17          0.842              1.281              0.694
 Vibration    18          0.852              1.258              0.668
 Vibration    19          0.896              1.159              0.563
 Vibration    20          0.915              1.120              0.526
 Vibration    21          0.941              1.066              0.478

 Optimization completed.
    -- Stationary point found.
 Normal termination of Gaussian 16 at Thu Dec 10 21:49:02 2020.

 ----------------------------------------------------------------------
 # B3LYP/6-311++G(d,p) empiricaldispersion=gd3bj scf=xqc pop=npa geom=c
 heck
 ----------------------------------------------------------------------

 ---------------------------------------
 CID_141172620_JID_6189_Energie_neutraal
 ---------------------------------------
 Structure from the checkpoint file:  "JID_6189.chk"
 Charge =  0 Multiplicity = 1

 SCF Done:  E(RB3LYP) =  -692.615002328     A.U. after   16 cycles
 Normal termination of Gaussian 16 at Thu Dec 10 21:53:24 2020.

 ----------------------------------------------------------------------
 # B3LYP/6-311++G(d,p) empiricaldispersion=gd3bj scf=xqc pop=npa geom=c
 heck
 ----------------------------------------------------------------------

 -------------------------------------
 CID_141172620_JID_6189_Energie_kation
 -------------------------------------
 Structure from the checkpoint file:  "JID_6189.chk"
 Charge =  1 Multiplicity = 2

 SCF Done:  E(UB3LYP) =  -692.310959079     A.U. after   26 cycles
 Normal termination of Gaussian 16 at Thu Dec 10 22:03:25 2020.
 Gaussian 16:  ES64L-G16RevA.03 25-Dec-2016

 ----------------------------------------------------------------------
 # B3LYP/6-311++G(d,p) empiricaldispersion=gd3bj scf=xqc pop=npa geom=c
 heck
 ----------------------------------------------------------------------

 ------------------------------------
 CID_141172620_JID_6189_Energie_anion
 ------------------------------------
 Structure from the checkpoint file:  "JID_6189.chk"
 Charge = -1 Multiplicity = 2

                         Standard orientation:
 ---------------------------------------------------------------------
 Center     Atomic      Atomic             Coordinates (Angstroms)
 Number     Number       Type             X           Y           Z
 ---------------------------------------------------------------------
      1          6           0       -4.914277   -0.342071   -0.786412
      2          6           0       -3.982726    0.866574   -0.658332
      3          6           0       -2.890997    0.682792    0.397558
      4          6           0       -1.803106   -0.294721    0.007166
      5          8           0       -1.787131   -0.916572   -1.033154
      6          6           0       -0.633188   -0.437101    1.034347
      7          6           0       -0.002198   -1.790145    0.931803
      8          6           0        1.239467   -1.975449    0.467622
      9          6           0        2.090716   -0.863549    0.059617
     10          6           0        3.368407   -1.083239   -0.473504
     11          6           0        4.175143   -0.012934   -0.850319
     12          6           0        3.725368    1.303131   -0.694855
     13          6           0        2.464146    1.538884   -0.159337
     14          6           0        1.642223    0.468510    0.212496
     15          6           0        0.311013    0.752650    0.789551
     16          8           0       -0.062065    1.891567    1.042600
     17          1           0       -4.356015   -1.231614   -1.090847
     18          1           0       -5.694353   -0.159707   -1.533710
     19          1           0       -5.411769   -0.557832    0.167790
     20          1           0       -3.508992    1.070049   -1.625514
     21          1           0       -4.567165    1.757651   -0.398100
     22          1           0       -2.384481    1.626644    0.640449
     23          1           0       -3.319230    0.337212    1.351265
     24          1           0       -1.065422   -0.279003    2.030440
     25          1           0       -0.619929   -2.640592    1.206992
     26          1           0        1.650523   -2.977790    0.378566
     27          1           0        3.724964   -2.102922   -0.591975
     28          1           0        5.160902   -0.203125   -1.265498
     29          1           0        4.357874    2.134771   -0.990147
     30          1           0        2.086702    2.546321   -0.019679
 ---------------------------------------------------------------------

 SCF Done:  E(UB3LYP) =  -692.642233397     A.U. after   25 cycles

 The electronic state is 2-A.
 Alpha  occ. eigenvalues --  -18.98505 -18.92720 -10.12897 -10.07531 -10.06616
 Alpha  occ. eigenvalues --  -10.06239 -10.05654 -10.04632 -10.03453 -10.03384
 Alpha  occ. eigenvalues --  -10.03282 -10.03195 -10.03166 -10.02738 -10.02365
 Alpha  occ. eigenvalues --  -10.01668  -0.92047  -0.86897  -0.72092  -0.68937
 Alpha  occ. eigenvalues --   -0.67590  -0.62414  -0.60948  -0.59570  -0.56819
 Alpha  occ. eigenvalues --   -0.50763  -0.47963  -0.47346  -0.43116  -0.40888
 Alpha  occ. eigenvalues --   -0.37698  -0.36949  -0.35991  -0.35335  -0.34641
 Alpha  occ. eigenvalues --   -0.31878  -0.31436  -0.30625  -0.29505  -0.29005
 Alpha  occ. eigenvalues --   -0.27996  -0.27325  -0.26908  -0.24979  -0.24850
 Alpha  occ. eigenvalues --   -0.24245  -0.23773  -0.22766  -0.22626  -0.21470
 Alpha  occ. eigenvalues --   -0.20545  -0.19398  -0.16563  -0.12592  -0.11608
 Alpha  occ. eigenvalues --   -0.09234  -0.08599   0.03187
 Alpha virt. eigenvalues --    0.07326   0.08853   0.09118   0.09787   0.09889
 Alpha virt. eigenvalues --    0.10128   0.10747   0.11231   0.11866   0.12364
 Alpha virt. eigenvalues --    0.12599   0.13437   0.14070   0.14583   0.14986

  Beta  occ. eigenvalues --  -18.98472 -18.92227 -10.12772 -10.07211 -10.06615
  Beta  occ. eigenvalues --  -10.06239 -10.05648 -10.04692 -10.03557 -10.03397
  Beta  occ. eigenvalues --  -10.03202 -10.03113 -10.02994 -10.02460 -10.02243
  Beta  occ. eigenvalues --  -10.01559  -0.91958  -0.85995  -0.71764  -0.68895
  Beta  occ. eigenvalues --   -0.67323  -0.62191  -0.60604  -0.59330  -0.56605
  Beta  occ. eigenvalues --   -0.50546  -0.47531  -0.47077  -0.42804  -0.40663
  Beta  occ. eigenvalues --   -0.37530  -0.36753  -0.35733  -0.35088  -0.34574
  Beta  occ. eigenvalues --   -0.31706  -0.31263  -0.30483  -0.29301  -0.28860
  Beta  occ. eigenvalues --   -0.27823  -0.27123  -0.26622  -0.24800  -0.24573
  Beta  occ. eigenvalues --   -0.23808  -0.23271  -0.22651  -0.22509  -0.20576
  Beta  occ. eigenvalues --   -0.19298  -0.19145  -0.15758  -0.12376  -0.10465
  Beta  occ. eigenvalues --   -0.08642  -0.07676
  Beta virt. eigenvalues --    0.07284   0.08792   0.08951   0.09310   0.09791
  Beta virt. eigenvalues --    0.10032   0.10399   0.10747   0.11768   0.11869
  Beta virt. eigenvalues --    0.12372   0.12648   0.13389   0.14033   0.14558

 Mulliken charges and spin densities:
               1          2
     1  C   -0.608510  -0.002332
     2  C   -0.306808   0.006414
     3  C    0.005656   0.006750
     4  C   -0.503660  -0.017315
     5  O   -0.247942   0.004748
     6  C    0.861397  -0.000402
     7  C   -0.156735   0.133403
     8  C   -0.266270  -0.066619
     9  C    0.000307   0.155142
    10  C   -0.371953  -0.090477
    11  C   -0.373705   0.223288
    12  C   -0.386439  -0.031978
    13  C   -0.139753   0.138525
    14  C    0.558897   0.095862
    15  C   -0.533957   0.187252
    16  O   -0.384577   0.181241
    17  H    0.174414   0.000611
    18  H    0.115947   0.000931
    19  H    0.103007   0.000589
    20  H    0.156769   0.000557
    21  H    0.120507   0.001603
    22  H    0.247665  -0.009034
    23  H    0.107083   0.018924
    24  H    0.133195   0.089811
    25  H    0.143847  -0.008909
    26  H    0.102892  -0.000314
    27  H    0.083093   0.006084
    28  H    0.103343  -0.017447
    29  H    0.110497   0.000813
    30  H    0.151791  -0.007719
 Sum of Mulliken charges =  -1.00000   1.00000

 Dipole moment (field-independent basis, Debye):
    X=             -3.6069    Y=             -1.6811    Z=              0.2071  Tot=              3.9848
 Quadrupole moment (field-independent basis, Debye-Ang):
   XX=           -126.6963   YY=           -111.3391   ZZ=           -109.5864
   XY=             -3.2456   XZ=             -3.6193   YZ=             -6.1907

 Summary of Natural Population Analysis:

                                       Natural Population
                Natural  -----------------------------------------------
    Atom  No    Charge         Core      Valence    Rydberg      Total
 -----------------------------------------------------------------------
      C    1   -0.28743      0.99967     2.28353    0.00423     3.28743
      C    2   -0.19070      0.99965     2.18340    0.00764     3.19070
      C    3   -0.24670      0.99956     2.24021    0.00693     3.24670
      C    4    0.32624      0.99966     1.65197    0.02213     2.67376
      O    5   -0.29340      0.99987     3.28641    0.00712     4.29340
      C    6   -0.21011      0.99952     2.19632    0.01427     3.21011
      C    7   -0.03576      0.99955     2.02659    0.00962     3.03576
      C    8   -0.10800      0.99951     2.09985    0.00864     3.10800
      C    9    0.01756      0.99948     1.97471    0.00825     2.98244
      C   10   -0.13117      0.99954     2.12246    0.00916     3.13117
      C   11   -0.05115      0.99958     2.04221    0.00937     3.05115
      C   12   -0.12778      0.99957     2.11885    0.00936     3.12778
      C   13   -0.05186      0.99954     2.04337    0.00895     3.05186
      C   14   -0.04473      0.99944     2.03457    0.01072     3.04473
      C   15    0.32290      0.99959     1.65762    0.01988     2.67710
      O   16   -0.26402      0.99988     3.25793    0.00621     4.26402
      H   17    0.10696      0.00000     0.39201    0.00103     0.39304
      H   18    0.09138      0.00000     0.40775    0.00087     0.40862
      H   19    0.08884      0.00000     0.41019    0.00098     0.41116
      H   20    0.10122      0.00000     0.39750    0.00128     0.39878
      H   21    0.08916      0.00000     0.40968    0.00115     0.41084
      H   22    0.13246      0.00000     0.36628    0.00125     0.36754
      H   23    0.10098      0.00000     0.39795    0.00107     0.39902
      H   24    0.11669      0.00000     0.38186    0.00146     0.38331
      H   25    0.08585      0.00000     0.41259    0.00156     0.41415
      H   26    0.08991      0.00000     0.40842    0.00168     0.41009
      H   27    0.09339      0.00000     0.40575    0.00086     0.40661
      H   28    0.08537      0.00000     0.41308    0.00154     0.41463
      H   29    0.08983      0.00000     0.40912    0.00105     0.41017
      H   30    0.10408      0.00000     0.39469    0.00123     0.39592
 =======================================================================
   * Total *    0.00001     15.99362    40.82687    0.17950    56.99999

 Normal termination of Gaussian 16 at Thu Dec 10 22:13:12 2020.
