 Gaussian 16, Revision A.03,

 -----------------------------------------------------------
 # opt freq B3LYP/6-31G(d) empiricaldispersion=gd3bj scf=xqc
 -----------------------------------------------------------

 ------------------------------
 CID_69990759_JID_2492_neutraal
 ------------------------------
 Symbolic Z-matrix:
 Charge =  0 Multiplicity = 1

 SCF Done:  E(RB3LYP) =  -604.147507309     A.U. after   14 cycles
 SCF Done:  E(RB3LYP) =  -604.153508123     A.U. after   12 cycles
 SCF Done:  E(RB3LYP) =  -604.154590910     A.U. after   12 cycles
 SCF Done:  E(RB3LYP) =  -604.155031221     A.U. after   11 cycles
 SCF Done:  E(RB3LYP) =  -604.155244219     A.U. after   12 cycles
 SCF Done:  E(RB3LYP) =  -604.155385142     A.U. after   11 cycles
 SCF Done:  E(RB3LYP) =  -604.155438902     A.U. after   11 cycles
 SCF Done:  E(RB3LYP) =  -604.155457108     A.U. after   10 cycles
 SCF Done:  E(RB3LYP) =  -604.155461782     A.U. after   10 cycles
 SCF Done:  E(RB3LYP) =  -604.155463135     A.U. after    8 cycles
 SCF Done:  E(RB3LYP) =  -604.155464504     A.U. after    9 cycles
 SCF Done:  E(RB3LYP) =  -604.155465127     A.U. after    8 cycles
 SCF Done:  E(RB3LYP) =  -604.155465294     A.U. after    7 cycles
 SCF Done:  E(RB3LYP) =  -604.155465410     A.U. after    8 cycles
 Optimization completed.
    -- Stationary point found.
 Normal termination of Gaussian 16 at Wed Dec  9 17:32:43 2020.

 --------------------------------------------------------------------
 #N Geom=AllCheck Guess=TCheck SCRF=Check GenChk RB3LYP/6-31G(d) Freq
 --------------------------------------------------------------------

 Structure from the checkpoint file:  "JID_2492.chk"
 ------------------------------
 CID_69990759_JID_2492_neutraal
 ------------------------------
 Charge =  0 Multiplicity = 1

 SCF Done:  E(RB3LYP) =  -604.155465410     A.U. after    1 cycles

  Exact polarizability: 113.806  -4.259  95.507   4.883  -4.745  65.515
 Approx polarizability: 165.344 -10.621 157.075  12.157 -15.892  93.202

                      1                      2                      3
                      A                      A                      A
 Frequencies --     30.7956                80.2604               116.1732
 Red. masses --      4.3129                 3.1508                 2.0807
 Frc consts  --      0.0024                 0.0120                 0.0165
 IR Inten    --      0.6443                 0.6667                 5.4801

                      4                      5                      6
                      A                      A                      A
 Frequencies --    156.5701               181.7549               188.3936
 Red. masses --      1.8716                 2.1626                 2.8606
 Frc consts  --      0.0270                 0.0421                 0.0598
 IR Inten    --    176.0664                17.5238                58.2646

                      7                      8                      9
                      A                      A                      A
 Frequencies --    205.3151               230.9415               259.3659
 Red. masses --      1.8427                 1.1021                 3.1134
 Frc consts  --      0.0458                 0.0346                 0.1234
 IR Inten    --      8.9356                 0.9047                 7.1197

                     10                     11                     12
                      A                      A                      A
 Frequencies --    298.7554               350.4016               372.3381
 Red. masses --      4.1592                 6.2693                 3.5210
 Frc consts  --      0.2187                 0.4535                 0.2876
 IR Inten    --     10.0348                 0.6777                10.5240

                     13                     14                     15
                      A                      A                      A
 Frequencies --    400.6333               459.9275               511.5582
 Red. masses --      3.0759                 3.1907                 3.9522
 Frc consts  --      0.2909                 0.3977                 0.6094
 IR Inten    --      3.7776                 1.4829                 6.5878

                     16                     17                     18
                      A                      A                      A
 Frequencies --    543.3512               582.8372               586.9888
 Red. masses --      1.1603                 2.8980                 1.0728
 Frc consts  --      0.2018                 0.5800                 0.2178
 IR Inten    --     68.0704                 6.2936                 0.7134

                     19                     20                     21
                      A                      A                      A
 Frequencies --    608.5120               633.0454               750.2572
 Red. masses --      7.0418                 5.2257                 8.4667
 Frc consts  --      1.5363                 1.2339                 2.8079
 IR Inten    --      9.6750                 6.1341                 3.2436

                     22                     23                     24
                      A                      A                      A
 Frequencies --    776.4882               850.7987               879.6968
 Red. masses --      7.5425                 9.2828                 2.6335
 Frc consts  --      2.6794                 3.9590                 1.2007
 IR Inten    --     17.3720                28.1814                36.8039

                     25                     26                     27
                      A                      A                      A
 Frequencies --    952.1001               977.2170              1008.9924
 Red. masses --      3.3314                 2.7744                 1.4925
 Frc consts  --      1.7793                 1.5610                 0.8953
 IR Inten    --     28.6980                 9.2138                 0.5880

                     28                     29                     30
                      A                      A                      A
 Frequencies --   1017.6742              1065.3074              1098.6907
 Red. masses --      6.9437                 1.8984                 5.5280
 Frc consts  --      4.2370                 1.2694                 3.9316
 IR Inten    --     16.5152                 5.5069                79.9050

                     31                     32                     33
                      A                      A                      A
 Frequencies --   1149.7356              1160.4086              1187.7263
 Red. masses --      2.0860                 2.8008                 1.3030
 Frc consts  --      1.6246                 2.2221                 1.0830
 IR Inten    --     31.3741               122.8179                 3.2840

                     34                     35                     36
                      A                      A                      A
 Frequencies --   1219.0469              1252.9651              1264.4134
 Red. masses --      1.8755                 3.2121                 4.8352
 Frc consts  --      1.6421                 2.9711                 4.5546
 IR Inten    --     42.7348                72.4704                68.1417

                     37                     38                     39
                      A                      A                      A
 Frequencies --   1297.8385              1381.0864              1416.6780
 Red. masses --      3.1603                 2.4361                 1.2924
 Frc consts  --      3.1363                 2.7377                 1.5283
 IR Inten    --     43.1590                 9.5034               123.6649

                     40                     41                     42
                      A                      A                      A
 Frequencies --   1446.8108              1484.9271              1492.4450
 Red. masses --      1.7290                 1.7020                 1.1453
 Frc consts  --      2.1324                 2.2112                 1.5030
 IR Inten    --    175.6247                57.8215                 2.6446

                     43                     44                     45
                      A                      A                      A
 Frequencies --   1511.7665              1518.2923              1521.4386
 Red. masses --      1.0549                 1.3531                 1.2989
 Frc consts  --      1.4204                 1.8377                 1.7715
 IR Inten    --      1.6654                 7.9967                20.0611

                     46                     47                     48
                      A                      A                      A
 Frequencies --   1525.1386              1541.4634              1584.7232
 Red. masses --      1.3686                 1.0547                 7.6479
 Frc consts  --      1.8756                 1.4766                11.3162
 IR Inten    --     56.9185                17.3378               210.0552

                     49                     50                     51
                      A                      A                      A
 Frequencies --   1639.0975              1678.3041              3015.0197
 Red. masses --      4.2679                 2.2290                 1.0448
 Frc consts  --      6.7557                 3.6991                 5.5958
 IR Inten    --    134.0280               672.6395                52.9808

                     52                     53                     54
                      A                      A                      A
 Frequencies --   3080.2904              3091.9430              3147.1838
 Red. masses --      1.0347                 1.0912                 1.1020
 Frc consts  --      5.7844                 6.1465                 6.4310
 IR Inten    --      9.8125                48.0963                26.0288

                     55                     56                     57
                      A                      A                      A
 Frequencies --   3154.9689              3175.7073              3187.2213
 Red. masses --      1.1034                 1.1035                 1.0921
 Frc consts  --      6.4709                 6.5573                 6.5363
 IR Inten    --     18.0590                 9.7275                29.9413

                     58                     59                     60
                      A                      A                      A
 Frequencies --   3595.1561              3619.7484              3749.4047
 Red. masses --      1.0648                 1.0445                 1.1067
 Frc consts  --      8.1087                 8.0631                 9.1664
 IR Inten    --    129.4313               111.9574                63.1366

 - Thermochemistry -
 -------------------
 Temperature   298.150 Kelvin.  Pressure   1.00000 Atm.
 Atom     1 has atomic number  6 and mass  12.00000

 Molecular mass:   170.08038 amu.
 Principal axes and moments of inertia in atomic units:
                           1         2         3
     Eigenvalues --  1094.273782657.128042906.83238
           X            0.99998  -0.00644  -0.00233
           Y            0.00663   0.99594   0.08975
           Z            0.00175  -0.08977   0.99596
 This molecule is an asymmetric top.
 Rotational symmetry number  1.
 Warning -- assumption of classical behavior for rotation
           may cause significant error
 Rotational temperatures (Kelvin)      0.07915     0.03260     0.02980
 Rotational constants (GHZ):           1.64926     0.67921     0.62086
 Zero-point vibrational energy     462153.9 (Joules/Mol)
                                  110.45742 (Kcal/Mol)
 Warning -- explicit consideration of  19 degrees of freedom as
           vibrations may cause significant error
 Vibrational temperatures:     44.31   115.48   167.15   225.27   261.50
          (Kelvin)            271.06   295.40   332.27   373.17   429.84
                              504.15   535.71   576.42   661.73   736.02
                              781.76   838.57   844.55   875.51   910.81
                             1079.45  1117.19  1224.11  1265.69  1369.86
                             1406.00  1451.72  1464.21  1532.74  1580.77
                             1654.21  1669.57  1708.87  1753.94  1802.74
                             1819.21  1867.30  1987.08  2038.28  2081.64
                             2136.48  2147.30  2175.09  2184.48  2189.01
                             2194.33  2217.82  2280.06  2358.30  2414.71
                             4337.94  4431.85  4448.62  4528.10  4539.30
                             4569.13  4585.70  5172.63  5208.01  5394.56

 Zero-point correction=                           0.176025 (Hartree/Particle)
 Thermal correction to Energy=                    0.187964
 Thermal correction to Enthalpy=                  0.188908
 Thermal correction to Gibbs Free Energy=         0.137824
 Sum of electronic and zero-point Energies=           -603.979440
 Sum of electronic and thermal Energies=              -603.967501
 Sum of electronic and thermal Enthalpies=            -603.966557
 Sum of electronic and thermal Free Energies=         -604.017641

                     E (Thermal)             CV                S
                      KCal/Mol        Cal/Mol-Kelvin    Cal/Mol-Kelvin
 Total                  117.949             43.893            107.516
 Electronic               0.000              0.000              0.000
 Translational            0.889              2.981             41.301
 Rotational               0.889              2.981             30.514
 Vibrational            116.172             37.931             35.700
 Vibration     1          0.594              1.984              5.777
 Vibration     2          0.600              1.963              3.884
 Vibration     3          0.608              1.936              3.163
 Vibration     4          0.620              1.895              2.591
 Vibration     5          0.630              1.865              2.310
 Vibration     6          0.633              1.856              2.244
 Vibration     7          0.640              1.832              2.085
 Vibration     8          0.653              1.794              1.872
 Vibration     9          0.668              1.747              1.666
 Vibration    10          0.692              1.676              1.424
 Vibration    11          0.727              1.574              1.164
 Vibration    12          0.744              1.529              1.070
 Vibration    13          0.766              1.469              0.960
 Vibration    14          0.818              1.339              0.766
 Vibration    15          0.867              1.224              0.630
 Vibration    16          0.898              1.154              0.558
 Vibration    17          0.940              1.068              0.480
 Vibration    18          0.944              1.060              0.473
 Vibration    19          0.967              1.014              0.435

                           ! Non-Optimized Parameters !
 Normal termination of Gaussian 16 at Wed Dec  9 17:37:34 2020.

 ----------------------------------------------------------------------
 # B3LYP/6-311++G(d,p) empiricaldispersion=gd3bj scf=xqc pop=npa geom=c
 heck
 ----------------------------------------------------------------------

 --------------------------------------
 CID_69990759_JID_2492_Energie_neutraal
 --------------------------------------
 Structure from the checkpoint file:  "JID_2492.chk"
 Charge =  0 Multiplicity = 1

 SCF Done:  E(RB3LYP) =  -604.340398827     A.U. after   14 cycles
 Normal termination of Gaussian 16 at Wed Dec  9 17:39:29 2020.

 ----------------------------------------------------------------------
 # B3LYP/6-311++G(d,p) empiricaldispersion=gd3bj scf=xqc pop=npa geom=c
 heck
 ----------------------------------------------------------------------

 ------------------------------------
 CID_69990759_JID_2492_Energie_kation
 ------------------------------------
 Structure from the checkpoint file:  "JID_2492.chk"
 Charge =  1 Multiplicity = 2

 SCF Done:  E(UB3LYP) =  -604.001828913     A.U. after   30 cycles
 Normal termination of Gaussian 16 at Wed Dec  9 17:45:02 2020.
 Gaussian 16:  ES64L-G16RevA.03 25-Dec-2016

 ----------------------------------------------------------------------
 # B3LYP/6-311++G(d,p) empiricaldispersion=gd3bj scf=xqc pop=npa geom=c
 heck
 ----------------------------------------------------------------------

 -----------------------------------
 CID_69990759_JID_2492_Energie_anion
 -----------------------------------
 Structure from the checkpoint file:  "JID_2492.chk"
 Charge = -1 Multiplicity = 2

                         Standard orientation:
 ---------------------------------------------------------------------
 Center     Atomic      Atomic             Coordinates (Angstroms)
 Number     Number       Type             X           Y           Z
 ---------------------------------------------------------------------
      1          6           0       -1.733457   -1.574814   -1.149652
      2          6           0       -1.508188   -0.292475   -0.364308
      3          6           0       -0.019948    0.092417   -0.287357
      4          7           0        0.859493   -0.848490    0.031640
      5          6           0        2.134095   -0.415932    0.126821
      6          7           0        2.542979    0.861768   -0.060413
      7          6           0        1.563136    1.699169   -0.367503
      8          7           0        0.267556    1.387674   -0.501698
      9          7           0        3.078096   -1.328635    0.425990
     10          8           0       -2.225694    0.751402   -0.958934
     11          8           0       -1.960686   -0.572817    0.957552
     12          6           0       -1.993704    0.538264    1.838542
     13          1           0       -1.375905   -1.451684   -2.175619
     14          1           0       -2.806860   -1.779442   -1.167718
     15          1           0       -1.207567   -2.405090   -0.675673
     16          1           0        1.838122    2.740626   -0.524979
     17          1           0        4.032552   -1.031635    0.554172
     18          1           0        2.801805   -2.277252    0.625613
     19          1           0       -1.644121    1.537594   -0.930351
     20          1           0       -0.985438    0.906376    2.080924
     21          1           0       -2.582479    1.362190    1.420241
     22          1           0       -2.467539    0.183639    2.756552
 ---------------------------------------------------------------------

 SCF Done:  E(UB3LYP) =  -604.337847860     A.U. after   33 cycles
 SCF Done:  E(UB3LYP) =  -604.339252925     a.u. after    9 cycles

 The electronic state is 2-A.
 Alpha  occ. eigenvalues --  -18.99748 -18.99334 -14.20153 -14.16693 -14.14968
 Alpha  occ. eigenvalues --  -14.14904 -10.14422 -10.13820 -10.09045 -10.07937
 Alpha  occ. eigenvalues --  -10.07847 -10.03448  -0.94165  -0.87692  -0.87268
 Alpha  occ. eigenvalues --   -0.79994  -0.74586  -0.71552  -0.63755  -0.55707
 Alpha  occ. eigenvalues --   -0.54402  -0.52048  -0.46433  -0.43033  -0.42530
 Alpha  occ. eigenvalues --   -0.39017  -0.36109  -0.34734  -0.34109  -0.32422
 Alpha  occ. eigenvalues --   -0.30528  -0.29386  -0.27725  -0.26491  -0.25782
 Alpha  occ. eigenvalues --   -0.23295  -0.22809  -0.21891  -0.20400  -0.17727
 Alpha  occ. eigenvalues --   -0.17074  -0.14548  -0.12902  -0.11616  -0.11289
 Alpha  occ. eigenvalues --    0.05402
 Alpha virt. eigenvalues --    0.07497   0.08933   0.09891   0.10316   0.11226
 Alpha virt. eigenvalues --    0.12038   0.12266   0.12956   0.13297   0.14541
 Alpha virt. eigenvalues --    0.14839   0.15806   0.17344   0.18037   0.18939

  Beta  occ. eigenvalues --  -18.99696 -18.99324 -14.20125 -14.16855 -14.14658
  Beta  occ. eigenvalues --  -14.14606 -10.14447 -10.13862 -10.09046 -10.07520
  Beta  occ. eigenvalues --  -10.07471 -10.03435  -0.94081  -0.87590  -0.86932
  Beta  occ. eigenvalues --   -0.79860  -0.73868  -0.71346  -0.63684  -0.55677
  Beta  occ. eigenvalues --   -0.53684  -0.51812  -0.46331  -0.42903  -0.42324
  Beta  occ. eigenvalues --   -0.38894  -0.35948  -0.34605  -0.33989  -0.32181
  Beta  occ. eigenvalues --   -0.29905  -0.29055  -0.27664  -0.26431  -0.25747
  Beta  occ. eigenvalues --   -0.23084  -0.22478  -0.21397  -0.20275  -0.17024
  Beta  occ. eigenvalues --   -0.15643  -0.14177  -0.12805  -0.11125  -0.10870
  Beta virt. eigenvalues --    0.08483   0.09008   0.09897   0.10275   0.11717
  Beta virt. eigenvalues --    0.11995   0.12094   0.12511   0.12900   0.13463
  Beta virt. eigenvalues --    0.14446   0.14804   0.15793   0.17332   0.17991

 Mulliken charges and spin densities:
               1          2
     1  C   -0.319197  -0.042112
     2  C   -0.819879  -0.300246
     3  C    0.263606  -0.227152
     4  N   -0.071040   0.132643
     5  C    0.227542  -0.088832
     6  N   -0.175143   0.034954
     7  C   -0.023943   0.283864
     8  N   -0.091401  -0.030943
     9  N   -0.516076   0.195890
    10  O   -0.127774  -0.002780
    11  O   -0.013750   0.003748
    12  C   -0.074887  -0.053676
    13  H    0.152686   0.006379
    14  H    0.123650   0.003727
    15  H    0.164726   0.010485
    16  H    0.100984   0.019993
    17  H   -0.243847   0.529727
    18  H   -0.136382   0.410673
    19  H    0.270657  -0.001746
    20  H    0.097615   0.063252
    21  H    0.098829   0.036023
    22  H    0.113024   0.016131
 Sum of Mulliken charges =  -1.00000   1.00000

 Dipole moment (field-independent basis, Debye):
    X=             -4.0983    Y=              1.1266    Z=             -0.2304  Tot=              4.2566
 Quadrupole moment (field-independent basis, Debye-Ang):
   XX=           -119.5443   YY=            -91.3897   ZZ=            -83.6742
   XY=              3.9181   XZ=             -5.0580   YZ=              3.8957

 Summary of Natural Population Analysis:

                                       Natural Population
                Natural  -----------------------------------------------
    Atom  No    Charge         Core      Valence    Rydberg      Total
 -----------------------------------------------------------------------
      C    1   -0.28780      0.99961     2.28199    0.00620     3.28780
      C    2    0.26614      0.99953     1.71405    0.02029     2.73386
      C    3    0.27569      0.99955     1.70412    0.02064     2.72431
      N    4   -0.25540      0.99963     2.74556    0.01022     3.75540
      C    5    0.29562      0.99963     1.68441    0.02034     2.70438
      N    6   -0.25662      0.99967     2.74662    0.01032     3.75662
      C    7    0.22107      0.99968     1.76003    0.01922     2.77893
      N    8   -0.34097      0.99965     2.83049    0.01084     3.84097
      N    9   -0.39006      0.99969     2.88059    0.00979     3.89006
      O   10   -0.38614      0.99988     3.37983    0.00643     4.38614
      O   11   -0.30179      0.99987     3.29173    0.01019     4.30179
      C   12   -0.10383      0.99960     2.09529    0.00893     3.10383
      H   13    0.09931      0.00000     0.39979    0.00090     0.40069
      H   14    0.09767      0.00000     0.40106    0.00127     0.40233
      H   15    0.11031      0.00000     0.38850    0.00118     0.38969
      H   16    0.06971      0.00000     0.42927    0.00102     0.43029
      H   17    0.19615      0.00000     0.30013    0.00372     0.30385
      H   18    0.19633      0.00000     0.30076    0.00291     0.30367
      H   19    0.24630      0.00000     0.25032    0.00338     0.25370
      H   20    0.08345      0.00000     0.41483    0.00172     0.41655
      H   21    0.08199      0.00000     0.41616    0.00185     0.41801
      H   22    0.08288      0.00000     0.41606    0.00106     0.41712
 =======================================================================
   * Total *    0.00000     11.99599    32.83159    0.17242    45.00000

 Normal termination of Gaussian 16 at Wed Dec  9 18:28:56 2020.
