 Gaussian 16, Revision A.03,

 -----------------------------------------------------------
 # opt freq B3LYP/6-31G(d) empiricaldispersion=gd3bj scf=xqc
 -----------------------------------------------------------

 ------------------------------
 CID_60773770_JID_8894_neutraal
 ------------------------------
 Symbolic Z-matrix:
 Charge =  0 Multiplicity = 1

 SCF Done:  E(RB3LYP) =  -805.561183832     A.U. after   15 cycles
 SCF Done:  E(RB3LYP) =  -805.566960896     A.U. after   12 cycles
 SCF Done:  E(RB3LYP) =  -805.568155603     A.U. after   13 cycles
 SCF Done:  E(RB3LYP) =  -805.568336694     A.U. after   12 cycles
 SCF Done:  E(RB3LYP) =  -805.568878177     A.U. after   12 cycles
 SCF Done:  E(RB3LYP) =  -805.569493338     A.U. after   12 cycles
 SCF Done:  E(RB3LYP) =  -805.569569665     A.U. after   11 cycles
 SCF Done:  E(RB3LYP) =  -805.569609525     A.U. after   10 cycles
 SCF Done:  E(RB3LYP) =  -805.569617866     A.U. after    9 cycles
 SCF Done:  E(RB3LYP) =  -805.569620246     A.U. after    9 cycles
 SCF Done:  E(RB3LYP) =  -805.569620792     A.U. after    8 cycles
 SCF Done:  E(RB3LYP) =  -805.569621530     A.U. after    8 cycles
 SCF Done:  E(RB3LYP) =  -805.569622769     A.U. after    9 cycles
 SCF Done:  E(RB3LYP) =  -805.569623266     A.U. after    8 cycles
 SCF Done:  E(RB3LYP) =  -805.569623453     A.U. after    7 cycles
 Optimization completed.
    -- Stationary point found.
 Normal termination of Gaussian 16 at Fri Dec 11 21:22:24 2020.

 --------------------------------------------------------------------
 #N Geom=AllCheck Guess=TCheck SCRF=Check GenChk RB3LYP/6-31G(d) Freq
 --------------------------------------------------------------------

 Structure from the checkpoint file:  "JID_8894.chk"
 ------------------------------
 CID_60773770_JID_8894_neutraal
 ------------------------------
 Charge =  0 Multiplicity = 1

 SCF Done:  E(RB3LYP) =  -805.569623453     A.U. after    1 cycles

  Exact polarizability: 150.080 -16.791 154.450  12.568   8.925 160.906
 Approx polarizability: 209.948 -32.523 235.820  34.579  23.053 273.813

                      1                      2                      3
                      A                      A                      A
 Frequencies --     21.3353                35.6054                51.6315
 Red. masses --      4.8583                 3.6504                 5.4499
 Frc consts  --      0.0013                 0.0027                 0.0086
 IR Inten    --      0.1373                 0.6242                 0.7131

                      4                      5                      6
                      A                      A                      A
 Frequencies --     52.8641                78.8042                84.9528
 Red. masses --      4.7072                 3.4631                 1.8339
 Frc consts  --      0.0078                 0.0127                 0.0078
 IR Inten    --      0.5540                 0.4613                 0.0637

                      7                      8                      9
                      A                      A                      A
 Frequencies --    137.8523               154.2202               179.2585
 Red. masses --      4.5508                 3.0490                 3.7496
 Frc consts  --      0.0510                 0.0427                 0.0710
 IR Inten    --      0.5333                 0.6620                 3.5496

                     10                     11                     12
                      A                      A                      A
 Frequencies --    191.9351               216.1546               251.6449
 Red. masses --      4.0502                 3.3779                 1.0850
 Frc consts  --      0.0879                 0.0930                 0.0405
 IR Inten    --      1.0391                18.2968                20.2833

                     13                     14                     15
                      A                      A                      A
 Frequencies --    269.7460               294.4529               312.7758
 Red. masses --      2.2011                 4.4191                 1.1314
 Frc consts  --      0.0944                 0.2257                 0.0652
 IR Inten    --      0.6328                 5.7433                97.4952

                     16                     17                     18
                      A                      A                      A
 Frequencies --    335.2923               358.4683               371.0159
 Red. masses --      2.6290                 3.1837                 4.2645
 Frc consts  --      0.1741                 0.2410                 0.3459
 IR Inten    --      0.8773                 1.4687                 6.0302

                     19                     20                     21
                      A                      A                      A
 Frequencies --    385.9759               446.4052               479.4638
 Red. masses --      2.7266                 3.0796                 6.6332
 Frc consts  --      0.2393                 0.3616                 0.8984
 IR Inten    --      0.6520                 6.3301                 0.6750

                     22                     23                     24
                      A                      A                      A
 Frequencies --    497.5965               521.7289               529.1605
 Red. masses --      2.7610                 2.0102                 2.8976
 Frc consts  --      0.4028                 0.3224                 0.4780
 IR Inten    --     21.7858                35.3739                 7.3357

                     25                     26                     27
                      A                      A                      A
 Frequencies --    570.6799               593.1104               633.9878
 Red. masses --      2.8314                 3.9466                 2.6695
 Frc consts  --      0.5433                 0.8180                 0.6322
 IR Inten    --     73.1189                11.6618                 1.2299

                     28                     29                     30
                      A                      A                      A
 Frequencies --    646.0783               649.6924               659.2055
 Red. masses --      2.4813                 1.7715                 1.9099
 Frc consts  --      0.6103                 0.4406                 0.4890
 IR Inten    --     26.1958               217.7676                87.8386

                     31                     32                     33
                      A                      A                      A
 Frequencies --    676.4834               712.6765               748.1625
 Red. masses --      2.4779                 4.3262                 4.0675
 Frc consts  --      0.6681                 1.2946                 1.3414
 IR Inten    --      8.6706                 4.5127                 2.2750

                     34                     35                     36
                      A                      A                      A
 Frequencies --    795.3854               805.3355               823.5223
 Red. masses --      1.5690                 1.5239                 4.8556
 Frc consts  --      0.5848                 0.5823                 1.9402
 IR Inten    --      0.3489                37.9455                 9.3804

                     37                     38                     39
                      A                      A                      A
 Frequencies --    825.5980               861.5877               869.7135
 Red. masses --      1.7673                 2.8455                 3.2940
 Frc consts  --      0.7098                 1.2445                 1.4680
 IR Inten    --      1.4145                 0.4765                 5.8356

                     40                     41                     42
                      A                      A                      A
 Frequencies --    885.8742               894.2703               896.5089
 Red. masses --      1.4607                 2.5794                 1.3304
 Frc consts  --      0.6754                 1.2154                 0.6300
 IR Inten    --     16.9865                 0.6125                 0.1587

                     43                     44                     45
                      A                      A                      A
 Frequencies --    911.4541               932.2241               975.7742
 Red. masses --      2.1669                 1.9257                 3.0520
 Frc consts  --      1.0606                 0.9860                 1.7121
 IR Inten    --      8.6096                 4.8415                 3.5409

                     46                     47                     48
                      A                      A                      A
 Frequencies --    986.5580               992.0761              1039.2025
 Red. masses --      1.8430                 2.0616                 1.6143
 Frc consts  --      1.0569                 1.1955                 1.0271
 IR Inten    --      1.7974                 8.7252                 0.3334

                     49                     50                     51
                      A                      A                      A
 Frequencies --   1040.1734              1070.3569              1097.3419
 Red. masses --      1.8553                 1.8688                 2.5063
 Frc consts  --      1.1827                 1.2614                 1.7782
 IR Inten    --      1.6518                 1.7924                20.6630

                     52                     53                     54
                      A                      A                      A
 Frequencies --   1105.9745              1132.1661              1152.6294
 Red. masses --      1.7306                 1.6672                 1.8444
 Frc consts  --      1.2472                 1.2591                 1.4437
 IR Inten    --      2.1071                 5.6262                22.9588

                     55                     56                     57
                      A                      A                      A
 Frequencies --   1183.8160              1190.8902              1197.7126
 Red. masses --      1.2211                 1.3340                 1.5278
 Frc consts  --      1.0082                 1.1147                 1.2913
 IR Inten    --      1.4365                13.1276                 3.9614

                     58                     59                     60
                      A                      A                      A
 Frequencies --   1213.9590              1236.7249              1247.8377
 Red. masses --      1.3876                 1.3546                 1.3655
 Frc consts  --      1.2048                 1.2207                 1.2527
 IR Inten    --    126.4917                 1.3613                 2.6227

                     61                     62                     63
                      A                      A                      A
 Frequencies --   1267.3425              1278.2056              1279.4082
 Red. masses --      1.7448                 1.2600                 1.8211
 Frc consts  --      1.6512                 1.2129                 1.7563
 IR Inten    --     71.6586                11.1274                41.1164

                     64                     65                     66
                      A                      A                      A
 Frequencies --   1303.1073              1321.6448              1328.0622
 Red. masses --      1.3037                 2.0461                 1.3730
 Frc consts  --      1.3043                 2.1057                 1.4268
 IR Inten    --      6.9364                47.1697                 2.2048

                     67                     68                     69
                      A                      A                      A
 Frequencies --   1331.6703              1338.0773              1351.8950
 Red. masses --      1.6520                 1.2862                 2.4038
 Frc consts  --      1.7260                 1.3568                 2.5884
 IR Inten    --     22.2626                13.1413                49.9222

                     70                     71                     72
                      A                      A                      A
 Frequencies --   1367.5538              1372.7613              1380.3874
 Red. masses --      1.5277                 1.4602                 1.9138
 Frc consts  --      1.6834                 1.6212                 2.1485
 IR Inten    --     13.5382                 6.1134                44.1873

                     73                     74                     75
                      A                      A                      A
 Frequencies --   1388.2177              1417.0757              1445.3053
 Red. masses --      1.9543                 1.6144                 1.6222
 Frc consts  --      2.2190                 1.9101                 1.9965
 IR Inten    --     21.9357                10.5805                52.3288

                     76                     77                     78
                      A                      A                      A
 Frequencies --   1483.9544              1495.3193              1505.7015
 Red. masses --      1.7992                 1.1163                 2.4239
 Frc consts  --      2.3343                 1.4706                 3.2377
 IR Inten    --     63.8690                 1.0854                44.2820

                     79                     80                     81
                      A                      A                      A
 Frequencies --   1515.6297              1523.0287              1527.8431
 Red. masses --      1.0834                 1.1866                 1.0858
 Frc consts  --      1.4663                 1.6217                 1.4934
 IR Inten    --      1.7881                38.3984                 6.5195

                     82                     83                     84
                      A                      A                      A
 Frequencies --   1529.1826              1551.9233              1563.1421
 Red. masses --      1.1090                 1.1043                 2.9307
 Frc consts  --      1.5279                 1.5671                 4.2191
 IR Inten    --     11.2715                 0.4139               109.4327

                     85                     86                     87
                      A                      A                      A
 Frequencies --   1662.0387              1681.8944              1697.2917
 Red. masses --      6.1253                 2.4495                 1.5852
 Frc consts  --      9.9692                 4.0825                 2.6907
 IR Inten    --      6.0593                 9.5885                72.4071

                     88                     89                     90
                      A                      A                      A
 Frequencies --   1784.1564              3035.9243              3045.6014
 Red. masses --      8.1868                 1.0702                 1.0626
 Frc consts  --     15.3543                 5.8117                 5.8071
 IR Inten    --    296.3896                12.8343                35.3871

                     91                     92                     93
                      A                      A                      A
 Frequencies --   3053.9385              3056.2280              3066.0452
 Red. masses --      1.0689                 1.0670                 1.0663
 Frc consts  --      5.8736                 5.8719                 5.9061
 IR Inten    --     42.1157                16.3215                25.8208

                     94                     95                     96
                      A                      A                      A
 Frequencies --   3077.8514              3086.1302              3097.5326
 Red. masses --      1.0767                 1.0864                 1.1027
 Frc consts  --      6.0093                 6.0961                 6.2339
 IR Inten    --     36.5725                24.1998                35.2108

                     97                     98                     99
                      A                      A                      A
 Frequencies --   3103.3705              3108.3859              3116.3496
 Red. masses --      1.0880                 1.0958                 1.0959
 Frc consts  --      6.1736                 6.2383                 6.2707
 IR Inten    --      7.5357                16.8174                10.7130

                    100                    101                    102
                      A                      A                      A
 Frequencies --   3124.9947              3130.1204              3165.5233
 Red. masses --      1.0935                 1.0984                 1.0879
 Frc consts  --      6.2918                 6.3406                 6.4231
 IR Inten    --     27.0352                61.9816                21.2999

                    103                    104                    105
                      A                      A                      A
 Frequencies --   3190.4601              3194.6171              3544.5582
 Red. masses --      1.0930                 1.0891                 1.0481
 Frc consts  --      6.5552                 6.5490                 7.7584
 IR Inten    --     18.3357                 5.0351                10.3482

                    106                    107                    108
                      A                      A                      A
 Frequencies --   3595.6912              3642.6743              3760.4052
 Red. masses --      1.0762                 1.0976                 1.0660
 Frc consts  --      8.1978                 8.5811                 8.8815
 IR Inten    --     17.2700                 7.2613                43.8092

 - Thermochemistry -
 -------------------
 Temperature   298.150 Kelvin.  Pressure   1.00000 Atm.
 Atom     1 has atomic number  6 and mass  12.00000

 Molecular mass:   248.15248 amu.
 Principal axes and moments of inertia in atomic units:
                           1         2         3
     Eigenvalues --  3602.447655269.847725914.32654
           X            0.99947   0.02409  -0.02178
           Y           -0.02390   0.99967   0.00911
           Z            0.02199  -0.00859   0.99972
 This molecule is an asymmetric top.
 Rotational symmetry number  1.
 Warning -- assumption of classical behavior for rotation
           may cause significant error
 Rotational temperatures (Kelvin)      0.02404     0.01644     0.01464
 Rotational constants (GHZ):           0.50098     0.34247     0.30515
 Zero-point vibrational energy     863711.6 (Joules/Mol)
                                  206.43203 (Kcal/Mol)
 Warning -- explicit consideration of  26 degrees of freedom as
           vibrations may cause significant error
 Vibrational temperatures:     30.70    51.23    74.29    76.06   113.38
          (Kelvin)            122.23   198.34   221.89   257.91   276.15
                              311.00   362.06   388.10   423.65   450.01
                              482.41   515.76   533.81   555.33   642.28
                              689.84   715.93   750.65   761.34   821.08
                              853.35   912.17   929.56   934.76   948.45
                              973.31  1025.38  1076.44  1144.38  1158.70
                             1184.86  1187.85  1239.63  1251.32  1274.58
                             1286.66  1289.88  1311.38  1341.26  1403.92
                             1419.44  1427.38  1495.18  1496.58  1540.00
                             1578.83  1591.25  1628.93  1658.38  1703.25
                             1713.43  1723.24  1746.62  1779.37  1795.36
                             1823.42  1839.05  1840.78  1874.88  1901.55
                             1910.79  1915.98  1925.19  1945.08  1967.60
                             1975.10  1986.07  1997.34  2038.86  2079.47
                             2135.08  2151.43  2166.37  2180.65  2191.30
                             2198.23  2200.15  2232.87  2249.01  2391.30
                             2419.87  2442.02  2567.00  4368.02  4381.94
                             4393.94  4397.23  4411.36  4428.34  4440.25
                             4456.66  4465.06  4472.27  4483.73  4496.17
                             4503.55  4554.48  4590.36  4596.34  5099.83
                             5173.40  5241.00  5410.38

 Zero-point correction=                           0.328970 (Hartree/Particle)
 Thermal correction to Energy=                    0.346566
 Thermal correction to Enthalpy=                  0.347510
 Thermal correction to Gibbs Free Energy=         0.282323
 Sum of electronic and zero-point Energies=           -805.240653
 Sum of electronic and thermal Energies=              -805.223057
 Sum of electronic and thermal Enthalpies=            -805.222113
 Sum of electronic and thermal Free Energies=         -805.287301

                     E (Thermal)             CV                S
                      KCal/Mol        Cal/Mol-Kelvin    Cal/Mol-Kelvin
 Total                  217.474             67.976            137.200
 Electronic               0.000              0.000              0.000
 Translational            0.889              2.981             42.427
 Rotational               0.889              2.981             33.084
 Vibrational            215.696             62.014             61.688
 Vibration     1          0.593              1.985              6.506
 Vibration     2          0.594              1.982              5.490
 Vibration     3          0.596              1.977              4.754
 Vibration     4          0.596              1.976              4.707
 Vibration     5          0.600              1.963              3.920
 Vibration     6          0.601              1.960              3.773
 Vibration     7          0.614              1.916              2.833
 Vibration     8          0.620              1.898              2.620
 Vibration     9          0.629              1.868              2.336
 Vibration    10          0.634              1.851              2.209
 Vibration    11          0.645              1.816              1.991
 Vibration    12          0.664              1.760              1.719
 Vibration    13          0.674              1.729              1.598
 Vibration    14          0.689              1.684              1.448
 Vibration    15          0.701              1.649              1.348
 Vibration    16          0.716              1.605              1.234
 Vibration    17          0.733              1.558              1.129
 Vibration    18          0.743              1.532              1.076
 Vibration    19          0.755              1.500              1.016
 Vibration    20          0.806              1.369              0.807
 Vibration    21          0.836              1.296              0.712
 Vibration    22          0.853              1.255              0.664
 Vibration    23          0.877              1.202              0.606
 Vibration    24          0.884              1.185              0.589
 Vibration    25          0.927              1.095              0.503
 Vibration    26          0.951              1.046              0.462

                           ! Non-Optimized Parameters !
 Normal termination of Gaussian 16 at Fri Dec 11 21:43:04 2020.

 ----------------------------------------------------------------------
 # B3LYP/6-311++G(d,p) empiricaldispersion=gd3bj scf=xqc pop=npa geom=c
 heck
 ----------------------------------------------------------------------

 --------------------------------------
 CID_60773770_JID_8894_Energie_neutraal
 --------------------------------------
 Structure from the checkpoint file:  "JID_8894.chk"
 Charge =  0 Multiplicity = 1

 SCF Done:  E(RB3LYP) =  -805.810293028     A.U. after   15 cycles
 Normal termination of Gaussian 16 at Fri Dec 11 21:52:16 2020.

 ----------------------------------------------------------------------
 # B3LYP/6-311++G(d,p) empiricaldispersion=gd3bj scf=xqc pop=npa geom=c
 heck
 ----------------------------------------------------------------------

 ------------------------------------
 CID_60773770_JID_8894_Energie_kation
 ------------------------------------
 Structure from the checkpoint file:  "JID_8894.chk"
 Charge =  1 Multiplicity = 2

 SCF Done:  E(UB3LYP) =  -805.536006743     A.U. after   27 cycles
 Normal termination of Gaussian 16 at Fri Dec 11 22:15:33 2020.
 Gaussian 16:  ES64L-G16RevA.03 25-Dec-2016

 ----------------------------------------------------------------------
 # B3LYP/6-311++G(d,p) empiricaldispersion=gd3bj scf=xqc pop=npa geom=c
 heck
 ----------------------------------------------------------------------

 -----------------------------------
 CID_60773770_JID_8894_Energie_anion
 -----------------------------------
 Structure from the checkpoint file:  "JID_8894.chk"
 Charge = -1 Multiplicity = 2

                         Standard orientation:
 ---------------------------------------------------------------------
 Center     Atomic      Atomic             Coordinates (Angstroms)
 Number     Number       Type             X           Y           Z
 ---------------------------------------------------------------------
      1          6           0       -1.045438   -2.162587    0.185059
      2          6           0       -1.904095   -2.130787    1.484037
      3          6           0       -3.153739   -1.286381    1.136647
      4          6           0       -2.705514   -0.371384   -0.018015
      5          6           0       -1.826330   -1.323460   -0.853154
      6          6           0       -1.914185    0.837734    0.500402
      7          6           0       -1.561482    1.815084   -0.614596
      8          8           0       -2.288579    1.992515   -1.585253
      9          7           0       -0.406317    2.546303   -0.464870
     10          6           0        0.677436    2.269737    0.464127
     11          6           0        1.441956    0.986817    0.179016
     12          6           0        2.197457    0.396874    1.202079
     13          6           0        2.882003   -0.793776    0.963996
     14          6           0        2.823069   -1.407349   -0.286112
     15          6           0        2.076872   -0.832881   -1.322901
     16          6           0        1.399963    0.369066   -1.068332
     17          7           0        1.938285   -1.480678   -2.559161
     18          8           0        2.222126    1.044124    2.418343
     19          1           0       -0.874344   -3.182422   -0.173577
     20          1           0       -0.058473   -1.727779    0.365327
     21          1           0       -2.178984   -3.133475    1.827367
     22          1           0       -1.341879   -1.665206    2.301657
     23          1           0       -3.547401   -0.732956    1.997279
     24          1           0       -3.958203   -1.940909    0.778484
     25          1           0       -3.550166    0.006325   -0.600611
     26          1           0       -1.169952   -0.799272   -1.553238
     27          1           0       -2.478273   -1.972720   -1.450350
     28          1           0       -2.523551    1.393779    1.227500
     29          1           0       -1.019734    0.506748    1.033953
     30          1           0       -0.214618    3.146000   -1.257638
     31          1           0        1.357649    3.128781    0.434506
     32          1           0        0.293719    2.240334    1.487630
     33          1           0        3.463796   -1.251865    1.761819
     34          1           0        3.346830   -2.345342   -0.450622
     35          1           0        0.797141    0.815983   -1.853451
     36          1           0        1.697459   -0.864082   -3.325737
     37          1           0        2.719055   -2.075848   -2.808351
     38          1           0        2.719940    0.501203    3.048023
 ---------------------------------------------------------------------

 SCF Done:  E(UB3LYP) =  -805.802036349     A.U. after   33 cycles
 SCF Done:  E(UB3LYP) =  -805.802036349     a.u. after    1 cycles

 The electronic state is 2-A.
 Alpha  occ. eigenvalues --  -19.05066 -18.99843 -14.24632 -14.21810 -10.18319
 Alpha  occ. eigenvalues --  -10.12973 -10.12398 -10.11273 -10.08605 -10.08560
 Alpha  occ. eigenvalues --  -10.08061 -10.07665 -10.07598 -10.07353 -10.07301
 Alpha  occ. eigenvalues --  -10.07206 -10.06589 -10.06347  -0.95899  -0.94907
 Alpha  occ. eigenvalues --   -0.83623  -0.82059  -0.75074  -0.74432  -0.67428
 Alpha  occ. eigenvalues --   -0.66383  -0.63151  -0.61587  -0.60302  -0.59005
 Alpha  occ. eigenvalues --   -0.53246  -0.50533  -0.49293  -0.47180  -0.44989
 Alpha  occ. eigenvalues --   -0.44617  -0.42594  -0.41805  -0.41161  -0.39167
 Alpha  occ. eigenvalues --   -0.38351  -0.38112  -0.35828  -0.35566  -0.34603
 Alpha  occ. eigenvalues --   -0.33322  -0.33124  -0.32262  -0.31191  -0.31001
 Alpha  occ. eigenvalues --   -0.30136  -0.29779  -0.28287  -0.27495  -0.26763
 Alpha  occ. eigenvalues --   -0.25133  -0.24702  -0.24144  -0.23992  -0.23448
 Alpha  occ. eigenvalues --   -0.23152  -0.22050  -0.19320  -0.17460  -0.16615
 Alpha  occ. eigenvalues --   -0.15573  -0.09966   0.03943
 Alpha virt. eigenvalues --    0.05634   0.06359   0.06506   0.07560   0.08205
 Alpha virt. eigenvalues --    0.08440   0.08865   0.09115   0.09520   0.10072
 Alpha virt. eigenvalues --    0.10938   0.11141   0.11426   0.11803   0.11836

  Beta  occ. eigenvalues --  -19.05017 -18.99841 -14.24624 -14.21767 -10.18319
  Beta  occ. eigenvalues --  -10.12975 -10.12385 -10.11268 -10.08597 -10.08552
  Beta  occ. eigenvalues --  -10.08060 -10.07663 -10.07564 -10.07341 -10.07286
  Beta  occ. eigenvalues --  -10.07199 -10.06588 -10.06342  -0.95809  -0.94902
  Beta  occ. eigenvalues --   -0.83607  -0.82007  -0.75068  -0.74389  -0.67391
  Beta  occ. eigenvalues --   -0.66369  -0.63095  -0.61579  -0.60272  -0.58985
  Beta  occ. eigenvalues --   -0.53176  -0.50488  -0.49258  -0.47162  -0.44921
  Beta  occ. eigenvalues --   -0.44597  -0.42545  -0.41758  -0.41133  -0.39118
  Beta  occ. eigenvalues --   -0.38341  -0.38097  -0.35785  -0.35549  -0.34560
  Beta  occ. eigenvalues --   -0.33271  -0.33098  -0.32246  -0.31160  -0.30989
  Beta  occ. eigenvalues --   -0.30116  -0.29750  -0.28253  -0.27462  -0.26728
  Beta  occ. eigenvalues --   -0.25097  -0.24691  -0.24133  -0.23985  -0.23440
  Beta  occ. eigenvalues --   -0.23146  -0.22042  -0.19277  -0.17449  -0.16608
  Beta  occ. eigenvalues --   -0.15539  -0.09927
  Beta virt. eigenvalues --    0.06104   0.06552   0.06968   0.07323   0.07722
  Beta virt. eigenvalues --    0.08514   0.08844   0.08998   0.09340   0.09830
  Beta virt. eigenvalues --    0.10139   0.11010   0.11383   0.11718   0.11793

 Mulliken charges and spin densities:
               1          2
     1  C   -0.496212   0.204983
     2  C   -0.117533  -0.280644
     3  C   -0.516742   0.004565
     4  C    0.010968   0.160462
     5  C   -0.134887  -0.070466
     6  C    0.312542  -0.279094
     7  C   -0.597288   0.084156
     8  O   -0.292040   0.007485
     9  N   -0.162205   0.049392
    10  C    1.947740  -2.562333
    11  C    1.163380  -0.687242
    12  C   -1.742540   0.746611
    13  C    0.093353  -0.088515
    14  C    0.561636  -0.628836
    15  C   -1.008132   0.827591
    16  C    0.466860  -0.378038
    17  N   -0.221486  -0.073869
    18  O   -0.256003   0.038313
    19  H    0.029111   0.114007
    20  H    0.453140  -0.312477
    21  H    0.074329   0.071150
    22  H   -0.043219   0.202174
    23  H    0.091646   0.040629
    24  H    0.117838   0.013436
    25  H    0.222745   0.020084
    26  H    0.212891  -0.081473
    27  H    0.142495   0.036745
    28  H    0.127628   0.070664
    29  H    0.370573  -0.159312
    30  H    0.111252   0.194257
    31  H   -0.202340   0.397097
    32  H    0.276482  -0.003185
    33  H   -1.056281   1.237536
    34  H   -0.258027   0.424491
    35  H    0.005914   0.193199
    36  H   -0.057756   0.297033
    37  H   -0.235034   0.488111
    38  H   -0.394800   0.681311
 Sum of Mulliken charges =  -1.00000   1.00000

 Dipole moment (field-independent basis, Debye):
    X=             -6.9072    Y=              1.3324    Z=             -0.8742  Tot=              7.0886
 Quadrupole moment (field-independent basis, Debye-Ang):
   XX=           -175.1361   YY=           -150.6981   ZZ=           -166.7964
   XY=             13.3635   XZ=            -16.1383   YZ=             -0.0587

 Summary of Natural Population Analysis:

                                       Natural Population
                Natural  -----------------------------------------------
    Atom  No    Charge         Core      Valence    Rydberg      Total
 -----------------------------------------------------------------------
      C    1   -0.19996      0.99964     2.19277    0.00755     3.19996
      C    2   -0.19668      0.99965     2.18940    0.00762     3.19668
      C    3   -0.18866      0.99963     2.18198    0.00705     3.18866
      C    4   -0.11050      0.99960     2.10145    0.00945     3.11050
      C    5   -0.18951      0.99962     2.18247    0.00741     3.18951
      C    6   -0.23960      0.99956     2.23137    0.00867     3.23960
      C    7    0.35072      0.99967     1.62744    0.02217     2.64928
      O    8   -0.32673      0.99988     3.32125    0.00560     4.32673
      N    9   -0.31956      0.99967     2.81022    0.00967     3.81956
      C   10   -0.09821      0.99958     2.08692    0.01172     3.09821
      C   11   -0.04297      0.99946     2.03255    0.01095     3.04297
      C   12    0.14083      0.99932     1.84618    0.01367     2.85917
      C   13   -0.12028      0.99952     2.10996    0.01080     3.12028
      C   14   -0.11467      0.99952     2.10474    0.01040     3.11467
      C   15    0.07371      0.99948     1.91475    0.01205     2.92629
      C   16   -0.12186      0.99948     2.11251    0.00988     3.12186
      N   17   -0.39794      0.99972     2.88782    0.01040     3.89794
      O   18   -0.34828      0.99988     3.34165    0.00675     4.34828
      H   19    0.09835      0.00000     0.40068    0.00096     0.40165
      H   20    0.10629      0.00000     0.39150    0.00221     0.39371
      H   21    0.09640      0.00000     0.40280    0.00080     0.40360
      H   22    0.09792      0.00000     0.40095    0.00114     0.40208
      H   23    0.09662      0.00000     0.40245    0.00094     0.40338
      H   24    0.09440      0.00000     0.40459    0.00101     0.40560
      H   25    0.10708      0.00000     0.39140    0.00152     0.39292
      H   26    0.10638      0.00000     0.39250    0.00113     0.39362
      H   27    0.09424      0.00000     0.40481    0.00095     0.40576
      H   28    0.11015      0.00000     0.38888    0.00097     0.38985
      H   29    0.10980      0.00000     0.38829    0.00190     0.39020
      H   30    0.19357      0.00000     0.30417    0.00226     0.30643
      H   31    0.10872      0.00000     0.39021    0.00107     0.39128
      H   32    0.10848      0.00000     0.39002    0.00150     0.39152
      H   33    0.10541      0.00000     0.39132    0.00328     0.39459
      H   34    0.10217      0.00000     0.39644    0.00139     0.39783
      H   35    0.10189      0.00000     0.39620    0.00191     0.39811
      H   36    0.18406      0.00000     0.31393    0.00201     0.31594
      H   37    0.18653      0.00000     0.31022    0.00325     0.31347
      H   38    0.24169      0.00000     0.24496    0.01334     0.25831
 =======================================================================
   * Total *    0.00000     17.99288    48.78175    0.22536    67.00000

 Normal termination of Gaussian 16 at Fri Dec 11 22:43:49 2020.
