 Gaussian 16, Revision A.03,

 -----------------------------------------------------------
 # opt freq B3LYP/6-31G(d) empiricaldispersion=gd3bj scf=xqc
 -----------------------------------------------------------

 ------------------------------
 CID_13563077_JID_3307_neutraal
 ------------------------------
 Symbolic Z-matrix:
 Charge =  0 Multiplicity = 1

 SCF Done:  E(RB3LYP) =  -654.671898686     A.U. after   13 cycles
 SCF Done:  E(RB3LYP) =  -654.678052138     A.U. after   11 cycles
 SCF Done:  E(RB3LYP) =  -654.678915952     A.U. after   11 cycles
 SCF Done:  E(RB3LYP) =  -654.679132990     A.U. after   11 cycles
 SCF Done:  E(RB3LYP) =  -654.679266707     A.U. after   10 cycles
 SCF Done:  E(RB3LYP) =  -654.679363633     A.U. after   10 cycles
 SCF Done:  E(RB3LYP) =  -654.679534364     A.U. after   11 cycles
 SCF Done:  E(RB3LYP) =  -654.679582880     A.U. after   10 cycles
 SCF Done:  E(RB3LYP) =  -654.679763995     A.U. after   11 cycles
 SCF Done:  E(RB3LYP) =  -654.626185061     A.U. after   13 cycles
 SCF Done:  E(RB3LYP) =  -654.680334008     A.U. after    9 cycles
 SCF Done:  E(RB3LYP) =  -654.680335785     A.U. after    8 cycles
 SCF Done:  E(RB3LYP) =  -654.680336361     A.U. after    7 cycles
 SCF Done:  E(RB3LYP) =  -654.680336503     A.U. after    7 cycles
 SCF Done:  E(RB3LYP) =  -654.680336614     A.U. after    6 cycles
 SCF Done:  E(RB3LYP) =  -654.680336645     A.U. after    6 cycles
 Optimization completed.
    -- Stationary point found.

 1\1\GINC-NODE208\FOpt\RB3LYP\6-31G(d)\C9H18O4\VSC10255\09-Dec-2020\0\\
 # opt freq B3LYP/6-31G(d) empiricaldispersion=gd3bj scf=xqc\\CID_13563
 077_JID_3307_neutraal\\0,1\C,1.3847083546,-0.0772615604,0.2571610859\O
 ,1.3722361558,0.5969105077,-0.9923290253\C,1.9422292585,1.9045946465,-
 1.024284822\C,1.3711894218,2.8570702699,0.0245141029\O,1.9998634848,2.
 6167077807,1.2818078226\C,3.4730670086,1.8899514309,-1.0079922329\O,3.
 9516995473,1.4692597838,-2.2858236269\C,4.8404884851,0.3940946576,-2.3
 171779548\C,4.2343384529,-0.9572188996,-1.8513001937\C,4.8552606039,-1

 Normal termination of Gaussian 16 at Wed Dec  9 23:07:36 2020.

 --------------------------------------------------------------------
 #N Geom=AllCheck Guess=TCheck SCRF=Check GenChk RB3LYP/6-31G(d) Freq
 --------------------------------------------------------------------

 Structure from the checkpoint file:  "JID_3307.chk"
 ------------------------------
 CID_13563077_JID_3307_neutraal
 ------------------------------
 Charge =  0 Multiplicity = 1

 SCF Done:  E(RB3LYP) =  -654.680336645     A.U. after    1 cycles

  Exact polarizability: 123.725  -3.148 100.370   0.920   0.785  94.259
 Approx polarizability: 147.362  -4.572 138.043   2.172   1.100 142.779

                      1                      2                      3
                      A                      A                      A
 Frequencies --     36.0607                52.6117                71.2444
 Red. masses --      3.8187                 3.1050                 3.8691
 Frc consts  --      0.0029                 0.0051                 0.0116
 IR Inten    --      1.3181                 1.0620                 2.9702

                      4                      5                      6
                      A                      A                      A
 Frequencies --     92.9744               126.6221               143.9880
 Red. masses --      2.6029                 3.8249                 2.0147
 Frc consts  --      0.0133                 0.0361                 0.0246
 IR Inten    --      1.1528                 5.1528                 2.0766

                      7                      8                      9
                      A                      A                      A
 Frequencies --    169.4244               201.6581               213.2294
 Red. masses --      1.9326                 3.1886                 1.6866
 Frc consts  --      0.0327                 0.0764                 0.0452
 IR Inten    --      5.9803                 4.1521                 4.7146

                     10                     11                     12
                      A                      A                      A
 Frequencies --    240.4797               251.9468               282.4430
 Red. masses --      1.5692                 1.5972                 3.4636
 Frc consts  --      0.0535                 0.0597                 0.1628
 IR Inten    --     47.6123                54.2959                 3.3470

                     13                     14                     15
                      A                      A                      A
 Frequencies --    288.0091               325.6914               401.8377
 Red. masses --      2.4620                 2.8771                 4.7719
 Frc consts  --      0.1203                 0.1798                 0.4540
 IR Inten    --      1.8814                 1.8469                 4.4139

                     16                     17                     18
                      A                      A                      A
 Frequencies --    415.3115               444.5352               453.5542
 Red. masses --      2.8565                 2.8983                 2.7990
 Frc consts  --      0.2903                 0.3374                 0.3392
 IR Inten    --      8.7370                 7.5105                 3.9679

                     19                     20                     21
                      A                      A                      A
 Frequencies --    510.9551               645.5983               668.8005
 Red. masses --      3.9914                 2.3977                 3.1517
 Frc consts  --      0.6140                 0.5888                 0.8306
 IR Inten    --     13.3227                 7.3838                10.9264

                     22                     23                     24
                      A                      A                      A
 Frequencies --    690.7890               798.8262               814.0143
 Red. masses --      3.4989                 1.3366                 3.2141
 Frc consts  --      0.9837                 0.5025                 1.2548
 IR Inten    --     15.6523                 5.5220                 6.4501

                     25                     26                     27
                      A                      A                      A
 Frequencies --    827.1139               864.0860               910.4048
 Red. masses --      2.8046                 2.9662                 1.9045
 Frc consts  --      1.1305                 1.3049                 0.9301
 IR Inten    --     16.9181                 2.1654                 5.2919

                     28                     29                     30
                      A                      A                      A
 Frequencies --    937.7418               942.7174               955.6428
 Red. masses --      2.1941                 2.5557                 2.6714
 Frc consts  --      1.1368                 1.3382                 1.4374
 IR Inten    --     18.2057                14.9327                11.1022

                     31                     32                     33
                      A                      A                      A
 Frequencies --    983.8375              1020.0448              1044.2451
 Red. masses --      2.2499                 2.3531                 2.5080
 Frc consts  --      1.2831                 1.4425                 1.6113
 IR Inten    --     16.0551                23.7214                56.6657

                     34                     35                     36
                      A                      A                      A
 Frequencies --   1070.4782              1080.7958              1095.7007
 Red. masses --      2.1959                 2.5930                 3.0330
 Frc consts  --      1.4826                 1.7846                 2.1454
 IR Inten    --     81.0307                22.6097               111.5276

                     37                     38                     39
                      A                      A                      A
 Frequencies --   1105.9964              1125.6752              1148.0876
 Red. masses --      4.3448                 2.8359                 2.3826
 Frc consts  --      3.1313                 2.1173                 1.8504
 IR Inten    --    104.1934                15.1745                21.0606

                     40                     41                     42
                      A                      A                      A
 Frequencies --   1173.4725              1194.5924              1204.4175
 Red. masses --      2.4214                 1.3832                 2.1390
 Frc consts  --      1.9646                 1.1629                 1.8282
 IR Inten    --     70.2639                10.4621                97.9938

                     43                     44                     45
                      A                      A                      A
 Frequencies --   1224.7421              1234.3108              1241.6868
 Red. masses --      1.2796                 1.5431                 1.4162
 Frc consts  --      1.1308                 1.3851                 1.2865
 IR Inten    --     20.4402                22.4606                16.4608

                     46                     47                     48
                      A                      A                      A
 Frequencies --   1246.7987              1282.7861              1309.5018
 Red. masses --      1.4669                 1.1302                 1.1408
 Frc consts  --      1.3435                 1.0957                 1.1526
 IR Inten    --     77.0196                16.0905                 2.9518

                     49                     50                     51
                      A                      A                      A
 Frequencies --   1312.7588              1318.5251              1349.2698
 Red. masses --      1.2782                 1.2905                 1.2733
 Frc consts  --      1.2978                 1.3219                 1.3657
 IR Inten    --     25.2982                22.6689                20.1187

                     52                     53                     54
                      A                      A                      A
 Frequencies --   1366.9620              1375.8286              1381.8197
 Red. masses --      1.2815                 1.4065                 1.2437
 Frc consts  --      1.4109                 1.5686                 1.3991
 IR Inten    --      2.2685                 3.8866                 5.9020

                     55                     56                     57
                      A                      A                      A
 Frequencies --   1402.2399              1420.3008              1425.6544
 Red. masses --      1.3910                 1.2122                 1.2618
 Frc consts  --      1.6114                 1.4408                 1.5111
 IR Inten    --      6.7655                 5.2116                39.8429

                     58                     59                     60
                      A                      A                      A
 Frequencies --   1429.9345              1442.3170              1468.3503
 Red. masses --      1.3720                 1.3581                 1.4814
 Frc consts  --      1.6529                 1.6646                 1.8818
 IR Inten    --      1.9043                12.8476                 1.6678

                     61                     62                     63
                      A                      A                      A
 Frequencies --   1506.0090              1516.1925              1518.7577
 Red. masses --      1.1218                 1.0781                 1.0689
 Frc consts  --      1.4990                 1.4602                 1.4526
 IR Inten    --      1.7576                 2.2249                 2.6879

                     64                     65                     66
                      A                      A                      A
 Frequencies --   1522.7628              1526.2656              1530.7528
 Red. masses --      1.0740                 1.0853                 1.0720
 Frc consts  --      1.4673                 1.4896                 1.4799
 IR Inten    --      4.2548                 7.3918                 7.8046

                     67                     68                     69
                      A                      A                      A
 Frequencies --   1533.8980              1543.1083              1545.3033
 Red. masses --      1.0835                 1.0931                 1.0802
 Frc consts  --      1.5019                 1.5336                 1.5198
 IR Inten    --      1.9967                10.1196                 7.8064

                     70                     71                     72
                      A                      A                      A
 Frequencies --   2986.9414              3000.2073              3006.6802
 Red. masses --      1.0737                 1.0573                 1.0852
 Frc consts  --      5.6439                 5.6071                 5.7799
 IR Inten    --     53.4691                50.3649                71.8884

                     73                     74                     75
                      A                      A                      A
 Frequencies --   3036.6145              3038.8755              3047.8209
 Red. masses --      1.1058                 1.0320                 1.0626
 Frc consts  --      6.0074                 5.6151                 5.8158
 IR Inten    --     42.7410                48.1229                30.5530

                     76                     77                     78
                      A                      A                      A
 Frequencies --   3049.8307              3062.2290              3063.7790
 Red. masses --      1.0716                 1.0685                 1.0656
 Frc consts  --      5.8727                 5.9032                 5.8933
 IR Inten    --     59.8270                43.9909                27.3893

                     79                     80                     81
                      A                      A                      A
 Frequencies --   3076.7540              3084.0495              3096.0688
 Red. masses --      1.0847                 1.1000                 1.1048
 Frc consts  --      6.0496                 6.1642                 6.2398
 IR Inten    --     23.4117                23.1299                72.4424

                     82                     83                     84
                      A                      A                      A
 Frequencies --   3104.1181              3118.9949              3131.3645
 Red. masses --      1.1022                 1.0948                 1.0947
 Frc consts  --      6.2574                 6.2750                 6.3245
 IR Inten    --     44.7485                53.9882                 1.3520

                     85                     86                     87
                      A                      A                      A
 Frequencies --   3133.9543              3152.2059              3758.4465
 Red. masses --      1.1036                 1.0930                 1.0666
 Frc consts  --      6.3862                 6.3990                 8.8769
 IR Inten    --     38.4947                18.2112                18.2785

 - Thermochemistry -
 -------------------
 Temperature   298.150 Kelvin.  Pressure   1.00000 Atm.
 Atom     1 has atomic number  6 and mass  12.00000

 Molecular mass:   190.12051 amu.
 Principal axes and moments of inertia in atomic units:
                           1         2         3
     Eigenvalues --  1300.438373984.974404272.20090
           X            0.99995  -0.01033   0.00143
           Y            0.01032   0.99992   0.00757
           Z           -0.00151  -0.00756   0.99997
 This molecule is an asymmetric top.
 Rotational symmetry number  1.
 Warning -- assumption of classical behavior for rotation
           may cause significant error
 Rotational temperatures (Kelvin)      0.06660     0.02174     0.02027
 Rotational constants (GHZ):           1.38779     0.45289     0.42244
 Zero-point vibrational energy     723450.2 (Joules/Mol)
                                  172.90875 (Kcal/Mol)
 Warning -- explicit consideration of  19 degrees of freedom as
           vibrations may cause significant error
 Vibrational temperatures:     51.88    75.70   102.50   133.77   182.18
          (Kelvin)            207.17   243.76   290.14   306.79   346.00
                              362.50   406.37   414.38   468.60   578.15
                              597.54   639.59   652.56   735.15   928.87
                              962.25   993.89  1149.33  1171.19  1190.03
                             1243.23  1309.87  1349.20  1356.36  1374.96
                             1415.52  1467.62  1502.44  1540.18  1555.02
                             1576.47  1591.28  1619.60  1651.84  1688.37
                             1718.75  1732.89  1762.13  1775.90  1786.51
                             1793.87  1845.64  1884.08  1888.77  1897.06
                             1941.30  1966.75  1979.51  1988.13  2017.51
                             2043.50  2051.20  2057.36  2075.17  2112.63
                             2166.81  2181.46  2185.15  2190.92  2195.96
                             2202.41  2206.94  2220.19  2223.35  4297.54
                             4316.63  4325.94  4369.01  4372.26  4385.13
                             4388.03  4405.86  4408.09  4426.76  4437.26
                             4454.55  4466.13  4487.54  4505.34  4509.06
                             4535.32  5407.57

 Zero-point correction=                           0.275548 (Hartree/Particle)
 Thermal correction to Energy=                    0.289631
 Thermal correction to Enthalpy=                  0.290575
 Thermal correction to Gibbs Free Energy=         0.234140
 Sum of electronic and zero-point Energies=           -654.404789
 Sum of electronic and thermal Energies=              -654.390706
 Sum of electronic and thermal Enthalpies=            -654.389762
 Sum of electronic and thermal Free Energies=         -654.446196

                     E (Thermal)             CV                S
                      KCal/Mol        Cal/Mol-Kelvin    Cal/Mol-Kelvin
 Total                  181.746             51.903            118.777
 Electronic               0.000              0.000              0.000
 Translational            0.889              2.981             41.633
 Rotational               0.889              2.981             31.471
 Vibrational            179.969             45.941             45.672
 Vibration     1          0.594              1.982              5.465
 Vibration     2          0.596              1.977              4.717
 Vibration     3          0.598              1.968              4.119
 Vibration     4          0.602              1.954              3.596
 Vibration     5          0.611              1.927              2.997
 Vibration     6          0.616              1.909              2.750
 Vibration     7          0.625              1.880              2.442
 Vibration     8          0.639              1.838              2.118
 Vibration     9          0.644              1.821              2.016
 Vibration    10          0.658              1.778              1.799
 Vibration    11          0.664              1.759              1.717
 Vibration    12          0.681              1.706              1.519
 Vibration    13          0.685              1.696              1.486
 Vibration    14          0.710              1.624              1.281
 Vibration    15          0.767              1.466              0.956
 Vibration    16          0.779              1.437              0.908
 Vibration    17          0.804              1.373              0.812
 Vibration    18          0.812              1.353              0.785
 Vibration    19          0.866              1.226              0.631

 Optimization completed.
    -- Stationary point found.

 1\1\GINC-NODE208\Freq\RB3LYP\6-31G(d)\C9H18O4\VSC10255\09-Dec-2020\0\\
 #N Geom=AllCheck Guess=TCheck SCRF=Check GenChk RB3LYP/6-31G(d) Freq\\
 CID_13563077_JID_3307_neutraal\\0,1\C,1.3847083546,-0.0772615604,0.257
 1610859\O,1.3722361558,0.5969105077,-0.9923290253\C,1.9422292585,1.904
 5946465,-1.024284822\C,1.3711894218,2.8570702699,0.0245141029\O,1.9998
 634848,2.6167077807,1.2818078226\C,3.4730670086,1.8899514309,-1.007992
 2329\O,3.9516995473,1.4692597838,-2.2858236269\C,4.8404884851,0.394094
 6576,-2.3171779548\C,4.2343384529,-0.9572188996,-1.8513001937\C,4.8552

 Normal termination of Gaussian 16 at Wed Dec  9 23:15:26 2020.

 ----------------------------------------------------------------------
 # B3LYP/6-311++G(d,p) empiricaldispersion=gd3bj scf=xqc pop=npa geom=c
 heck
 ----------------------------------------------------------------------

 --------------------------------------
 CID_13563077_JID_3307_Energie_neutraal
 --------------------------------------
 Structure from the checkpoint file:  "JID_3307.chk"
 Charge =  0 Multiplicity = 1

 SCF Done:  E(RB3LYP) =  -654.883237742     A.U. after   13 cycles
 Normal termination of Gaussian 16 at Wed Dec  9 23:18:48 2020.

 ----------------------------------------------------------------------
 # B3LYP/6-311++G(d,p) empiricaldispersion=gd3bj scf=xqc pop=npa geom=c
 heck
 ----------------------------------------------------------------------

 ------------------------------------
 CID_13563077_JID_3307_Energie_kation
 ------------------------------------
 Structure from the checkpoint file:  "JID_3307.chk"
 Charge =  1 Multiplicity = 2

 SCF Done:  E(UB3LYP) =  -654.569547632     A.U. after   23 cycles
 Normal termination of Gaussian 16 at Wed Dec  9 23:27:02 2020.
 Gaussian 16:  ES64L-G16RevA.03 25-Dec-2016

 -----------------------------------
 CID_13563077_JID_3307_Energie_anion
 -----------------------------------
 Structure from the checkpoint file:  "JID_3307.chk"
 Charge = -1 Multiplicity = 2

                         Standard orientation:
 ---------------------------------------------------------------------
 Center     Atomic      Atomic             Coordinates (Angstroms)
 Number     Number       Type             X           Y           Z
 ---------------------------------------------------------------------
      1          6           0        1.878335    1.913746   -0.141169
      2          8           0        1.885916    0.859960   -1.092677
      3          6           0        2.056154   -0.463324   -0.586823
      4          6           0        3.283270   -0.633838    0.306702
      5          8           0        2.984749   -0.172128    1.622568
      6          6           0        0.790286   -1.019347    0.070718
      7          8           0       -0.158454   -1.350498   -0.943755
      8          6           0       -1.433914   -0.794878   -0.836997
      9          6           0       -1.478818    0.749806   -0.986801
     10          6           0       -1.871323    1.435839    0.326525
     11          6           0       -3.216940    0.892363    0.834302
     12          6           0       -3.285721   -0.637244    0.608163
     13          8           0       -1.996700   -1.205683    0.405283
     14          1           0        2.860370    2.054616    0.325741
     15          1           0        1.144129    1.755692    0.658147
     16          1           0        1.609852    2.816531   -0.696452
     17          1           0        2.233150   -1.060006   -1.489114
     18          1           0        3.550363   -1.702058    0.320011
     19          1           0        4.124596   -0.080077   -0.136663
     20          1           0        3.765360   -0.319301    2.176806
     21          1           0        1.035264   -1.936773    0.619183
     22          1           0        0.380320   -0.318871    0.799281
     23          1           0       -1.997049   -1.270191   -1.654324
     24          1           0       -2.214997    1.008065   -1.759083
     25          1           0       -0.503456    1.083897   -1.349501
     26          1           0       -1.102151    1.251487    1.083819
     27          1           0       -1.922752    2.522045    0.191022
     28          1           0       -3.339933    1.132432    1.896228
     29          1           0       -4.044314    1.377067    0.300862
     30          1           0       -3.705256   -1.155831    1.473782
     31          1           0       -3.925568   -0.870679   -0.258808
 ---------------------------------------------------------------------

 SCF Done:  E(UB3LYP) =  -654.871017013     A.U. after   28 cycles

 The electronic state is 2-A.
 Alpha  occ. eigenvalues --  -19.02879 -19.02581 -19.02226 -19.01624 -10.17027
 Alpha  occ. eigenvalues --  -10.12377 -10.11954 -10.11294 -10.11064 -10.10444
 Alpha  occ. eigenvalues --  -10.07366 -10.07292 -10.06612  -0.97367  -0.93645
 Alpha  occ. eigenvalues --   -0.91484  -0.91181  -0.70177  -0.68350  -0.65041
 Alpha  occ. eigenvalues --   -0.59419  -0.58173  -0.55612  -0.52402  -0.47617
 Alpha  occ. eigenvalues --   -0.45393  -0.43085  -0.41490  -0.40964  -0.39635
 Alpha  occ. eigenvalues --   -0.38220  -0.37187  -0.36198  -0.34504  -0.33896
 Alpha  occ. eigenvalues --   -0.32002  -0.31687  -0.30467  -0.29422  -0.27841
 Alpha  occ. eigenvalues --   -0.27507  -0.27398  -0.25833  -0.25312  -0.24668
 Alpha  occ. eigenvalues --   -0.22158  -0.21442  -0.20902  -0.18690  -0.17134
 Alpha  occ. eigenvalues --   -0.15849  -0.15100   0.04323
 Alpha virt. eigenvalues --    0.05720   0.07465   0.07655   0.08788   0.08810
 Alpha virt. eigenvalues --    0.09331   0.10272   0.10515   0.11379   0.11557
 Alpha virt. eigenvalues --    0.11898   0.12372   0.12785   0.14153   0.15125

  Beta  occ. eigenvalues --  -19.02873 -19.02579 -19.02225 -19.01567 -10.17024
  Beta  occ. eigenvalues --  -10.12361 -10.11955 -10.11255 -10.11053 -10.10424
  Beta  occ. eigenvalues --  -10.07344 -10.07279 -10.06601  -0.97356  -0.93623
  Beta  occ. eigenvalues --   -0.91410  -0.91138  -0.70148  -0.68317  -0.65003
  Beta  occ. eigenvalues --   -0.59382  -0.58095  -0.55573  -0.52364  -0.47573
  Beta  occ. eigenvalues --   -0.45343  -0.43036  -0.41404  -0.40926  -0.39598
  Beta  occ. eigenvalues --   -0.38180  -0.37162  -0.36168  -0.34473  -0.33870
  Beta  occ. eigenvalues --   -0.31975  -0.31660  -0.30440  -0.29395  -0.27814
  Beta  occ. eigenvalues --   -0.27476  -0.27369  -0.25805  -0.25259  -0.24640
  Beta  occ. eigenvalues --   -0.22136  -0.21420  -0.20877  -0.18665  -0.17086
  Beta  occ. eigenvalues --   -0.15821  -0.15087
  Beta virt. eigenvalues --    0.06428   0.07421   0.07806   0.08090   0.09224
  Beta virt. eigenvalues --    0.09540   0.09691   0.10469   0.10743   0.11768
  Beta virt. eigenvalues --    0.11976   0.12230   0.12549   0.12948   0.14435

 Mulliken charges and spin densities:
               1          2
     1  C    0.171220  -0.516256
     2  O   -0.081382  -0.002054
     3  C   -1.624417   1.670088
     4  C    2.050037  -2.556105
     5  O   -0.341137   0.076615
     6  C    0.112562  -0.576890
     7  O   -0.039790   0.010169
     8  C   -0.246710  -0.246410
     9  C   -0.033106  -0.080266
    10  C   -0.547630   0.428407
    11  C    0.910054  -1.354819
    12  C   -0.125009  -0.080969
    13  O   -0.104728   0.010487
    14  H   -0.047015   0.207159
    15  H   -0.027679   0.180156
    16  H   -0.027539   0.162369
    17  H    0.061900   0.147265
    18  H   -0.427656   0.568724
    19  H   -0.332042   0.511142
    20  H   -0.360032   0.642492
    21  H    0.102127   0.071148
    22  H    0.367128  -0.133674
    23  H    0.029837   0.135037
    24  H   -0.172529   0.340180
    25  H    0.224750   0.030994
    26  H    0.165212  -0.044363
    27  H   -0.206408   0.370539
    28  H   -0.039270   0.183841
    29  H   -0.300004   0.437418
    30  H   -0.119245   0.289393
    31  H    0.008499   0.118183
 Sum of Mulliken charges =  -1.00000   1.00000

 Dipole moment (field-independent basis, Debye):
    X=             -4.3967    Y=             -0.2014    Z=             -2.6614  Tot=              5.1434
 Quadrupole moment (field-independent basis, Debye-Ang):
   XX=           -165.9654   YY=           -115.0236   ZZ=           -115.9074
   XY=              8.2545   XZ=            -13.7359   YZ=              2.5948

 Summary of Natural Population Analysis:

                                       Natural Population
                Natural  -----------------------------------------------
    Atom  No    Charge         Core      Valence    Rydberg      Total
 -----------------------------------------------------------------------
      C    1   -0.10201      0.99959     2.09281    0.00960     3.10201
      O    2   -0.30402      0.99989     3.29451    0.00963     4.30402
      C    3    0.04738      0.99952     1.93678    0.01632     2.95262
      C    4   -0.02261      0.99957     2.00984    0.01320     3.02261
      O    5   -0.37644      0.99989     3.36896    0.00758     4.37644
      C    6   -0.02871      0.99952     2.01575    0.01345     3.02871
      O    7   -0.30015      0.99987     3.29121    0.00907     4.30015
      C    8    0.23250      0.99957     1.74879    0.01914     2.76750
      C    9   -0.22789      0.99960     2.21948    0.00881     3.22789
      C   10   -0.19168      0.99962     2.18261    0.00944     3.19168
      C   11   -0.20329      0.99963     2.19598    0.00768     3.20329
      C   12   -0.01412      0.99960     2.00126    0.01326     3.01412
      O   13   -0.30670      0.99988     3.29889    0.00793     4.30670
      H   14    0.08676      0.00000     0.41191    0.00133     0.41324
      H   15    0.08122      0.00000     0.41732    0.00146     0.41878
      H   16    0.08548      0.00000     0.41354    0.00098     0.41452
      H   17    0.09738      0.00000     0.40101    0.00162     0.40262
      H   18    0.08328      0.00000     0.41473    0.00200     0.41672
      H   19    0.08394      0.00000     0.41410    0.00196     0.41606
      H   20    0.23905      0.00000     0.24037    0.02058     0.26095
      H   21    0.09303      0.00000     0.40563    0.00134     0.40697
      H   22    0.09511      0.00000     0.40282    0.00207     0.40489
      H   23    0.07399      0.00000     0.42457    0.00145     0.42601
      H   24    0.09785      0.00000     0.40075    0.00141     0.40215
      H   25    0.11893      0.00000     0.37927    0.00180     0.38107
      H   26    0.09650      0.00000     0.40171    0.00180     0.40350
      H   27    0.10183      0.00000     0.39698    0.00120     0.39817
      H   28    0.09769      0.00000     0.40133    0.00098     0.40231
      H   29    0.09737      0.00000     0.40086    0.00177     0.40263
      H   30    0.09171      0.00000     0.40723    0.00106     0.40829
      H   31    0.07663      0.00000     0.42195    0.00142     0.42337
 =======================================================================
   * Total *    0.00000     12.99576    38.81291    0.19132    52.00000

 Normal termination of Gaussian 16 at Wed Dec  9 23:36:54 2020.
