 Gaussian 16, Revision A.03,

 -----------------------------------------------------------
 # opt freq B3LYP/6-31G(d) empiricaldispersion=gd3bj scf=xqc
 -----------------------------------------------------------

 ------------------------------
 CID_43216206_JID_7473_neutraal
 ------------------------------
 Symbolic Z-matrix:
 Charge =  0 Multiplicity = 1

 SCF Done:  E(RB3LYP) =  -771.052905141     A.U. after   14 cycles
 SCF Done:  E(RB3LYP) =  -771.058020211     A.U. after   12 cycles
 SCF Done:  E(RB3LYP) =  -771.058894548     A.U. after   12 cycles
 SCF Done:  E(RB3LYP) =  -771.059128624     A.U. after   11 cycles
 SCF Done:  E(RB3LYP) =  -771.059315552     A.U. after   10 cycles
 SCF Done:  E(RB3LYP) =  -771.059345996     A.U. after   10 cycles
 SCF Done:  E(RB3LYP) =  -771.059361892     A.U. after   10 cycles
 SCF Done:  E(RB3LYP) =  -771.059367085     A.U. after    9 cycles
 SCF Done:  E(RB3LYP) =  -771.059369287     A.U. after    9 cycles
 SCF Done:  E(RB3LYP) =  -771.059372655     A.U. after    8 cycles
 SCF Done:  E(RB3LYP) =  -771.059372640     A.U. after    7 cycles
 SCF Done:  E(RB3LYP) =  -771.059372694     A.U. after    7 cycles
 Optimization completed.
    -- Stationary point found.
 Normal termination of Gaussian 16 at Mon Dec 14 16:39:42 2020.

 --------------------------------------------------------------------
 #N Geom=AllCheck Guess=TCheck SCRF=Check GenChk RB3LYP/6-31G(d) Freq
 --------------------------------------------------------------------

 Structure from the checkpoint file:  "JID_7473.chk"
 ------------------------------
 CID_43216206_JID_7473_neutraal
 ------------------------------
 Charge =  0 Multiplicity = 1

 SCF Done:  E(RB3LYP) =  -771.059372694     A.U. after    1 cycles

  Exact polarizability: 194.793   2.904 143.212   3.716   1.447 134.101
 Approx polarizability: 228.452  10.279 214.589   7.274   1.961 195.382

                      1                      2                      3
                      A                      A                      A
 Frequencies --     11.9661                29.1150                39.5854
 Red. masses --      4.0943                 4.5162                 3.1621
 Frc consts  --      0.0003                 0.0023                 0.0029
 IR Inten    --      0.4529                 0.8638                 1.4044

                      4                      5                      6
                      A                      A                      A
 Frequencies --     44.1682                63.3886                87.6390
 Red. masses --      5.0678                 3.3324                 3.4109
 Frc consts  --      0.0058                 0.0079                 0.0154
 IR Inten    --      1.1946                 1.3893                 0.2403

                      7                      8                      9
                      A                      A                      A
 Frequencies --     98.1685               109.6182               141.5837
 Red. masses --      3.3701                 2.1466                 3.3306
 Frc consts  --      0.0191                 0.0152                 0.0393
 IR Inten    --      0.0593                 3.7898                 1.7608

                     10                     11                     12
                      A                      A                      A
 Frequencies --    157.3979               170.5259               219.7809
 Red. masses --      4.1935                 2.9847                 3.0901
 Frc consts  --      0.0612                 0.0511                 0.0879
 IR Inten    --      1.8969                 0.1880                 2.6924

                     13                     14                     15
                      A                      A                      A
 Frequencies --    223.4507               229.7840               234.9915
 Red. masses --      1.2592                 1.5635                 1.3217
 Frc consts  --      0.0370                 0.0486                 0.0430
 IR Inten    --      0.4168                 0.1431                 3.7955

                     16                     17                     18
                      A                      A                      A
 Frequencies --    289.9852               306.1666               334.9564
 Red. masses --      2.3784                 2.7003                 2.2357
 Frc consts  --      0.1178                 0.1491                 0.1478
 IR Inten    --      2.6474                 0.6546                 3.1450

                     19                     20                     21
                      A                      A                      A
 Frequencies --    357.2814               366.9928               378.2825
 Red. masses --      2.7560                 2.7196                 1.8372
 Frc consts  --      0.2073                 0.2158                 0.1549
 IR Inten    --      0.7382                 4.2230                 0.2590

                     22                     23                     24
                      A                      A                      A
 Frequencies --    419.6053               437.6004               448.7903
 Red. masses --      3.0744                 2.8732                 3.1079
 Frc consts  --      0.3189                 0.3242                 0.3688
 IR Inten    --      1.3900                 0.4071                 0.2651

                     25                     26                     27
                      A                      A                      A
 Frequencies --    491.2653               533.8249               544.9371
 Red. masses --      1.6800                 2.7126                 3.5222
 Frc consts  --      0.2389                 0.4554                 0.6163
 IR Inten    --      4.2435                 6.0484                15.6917

                     28                     29                     30
                      A                      A                      A
 Frequencies --    603.1843               650.9760               719.8909
 Red. masses --      2.5206                 1.4183                 1.8496
 Frc consts  --      0.5403                 0.3541                 0.5648
 IR Inten    --     33.3769                78.1547                16.2944

                     31                     32                     33
                      A                      A                      A
 Frequencies --    726.2954               742.6070               753.5419
 Red. masses --      2.5107                 3.4345                 3.0220
 Frc consts  --      0.7803                 1.1159                 1.0110
 IR Inten    --      5.2915                47.7071                 8.4793

                     34                     35                     36
                      A                      A                      A
 Frequencies --    789.8788               798.4105               846.3159
 Red. masses --      1.7444                 1.6777                 2.8155
 Frc consts  --      0.6412                 0.6301                 1.1882
 IR Inten    --      6.4548                19.4168                 0.7068

                     37                     38                     39
                      A                      A                      A
 Frequencies --    856.1483               866.6111               882.2998
 Red. masses --      2.0320                 2.3065                 1.4882
 Frc consts  --      0.8775                 1.0206                 0.6826
 IR Inten    --      5.9401                 0.4918                 8.9178

                     40                     41                     42
                      A                      A                      A
 Frequencies --    926.7025               946.5437               956.7777
 Red. masses --      1.6841                 1.8921                 1.5303
 Frc consts  --      0.8521                 0.9988                 0.8254
 IR Inten    --      7.2466                15.6261                 1.3560

                     43                     44                     45
                      A                      A                      A
 Frequencies --    967.1640              1006.2639              1034.5796
 Red. masses --      2.4003                 1.6345                 2.2714
 Frc consts  --      1.3229                 0.9751                 1.4324
 IR Inten    --      4.5158                 9.2828                 8.5409

                     46                     47                     48
                      A                      A                      A
 Frequencies --   1041.9387              1046.0695              1073.7196
 Red. masses --      2.9823                 2.1656                 1.6531
 Frc consts  --      1.9076                 1.3962                 1.1229
 IR Inten    --     20.7826                 3.8439                 4.2190

                     49                     50                     51
                      A                      A                      A
 Frequencies --   1076.3558              1098.3475              1114.7406
 Red. masses --      1.9003                 1.9479                 1.9022
 Frc consts  --      1.2972                 1.3845                 1.3927
 IR Inten    --     16.9863                 6.6363                27.2637

                     52                     53                     54
                      A                      A                      A
 Frequencies --   1119.0088              1129.8264              1150.1100
 Red. masses --      1.7148                 1.8557                 1.0517
 Frc consts  --      1.2651                 1.3957                 0.8197
 IR Inten    --     13.6785                18.8161                 0.6583

                     55                     56                     57
                      A                      A                      A
 Frequencies --   1153.9090              1173.1631              1178.1723
 Red. masses --      2.5778                 2.7263                 2.4387
 Frc consts  --      2.0223                 2.2107                 1.9945
 IR Inten    --      0.5391               191.3019                54.0624

                     58                     59                     60
                      A                      A                      A
 Frequencies --   1192.8641              1195.2197              1215.2152
 Red. masses --      2.3395                 1.3611                 1.8377
 Frc consts  --      1.9614                 1.1456                 1.5989
 IR Inten    --     26.7839                 4.5269                36.5842

                     61                     62                     63
                      A                      A                      A
 Frequencies --   1233.5465              1268.8112              1283.6504
 Red. masses --      1.6987                 1.2381                 1.2780
 Frc consts  --      1.5229                 1.1743                 1.2407
 IR Inten    --     27.7591                 4.9484                 3.3768

                     64                     65                     66
                      A                      A                      A
 Frequencies --   1285.6758              1304.4738              1309.1012
 Red. masses --      1.1813                 1.3554                 1.2705
 Frc consts  --      1.1505                 1.3589                 1.2828
 IR Inten    --     88.3146                28.8222                 0.1661

                     67                     68                     69
                      A                      A                      A
 Frequencies --   1319.6964              1328.1430              1352.0891
 Red. masses --      1.2440                 1.4383                 1.4450
 Frc consts  --      1.2765                 1.4948                 1.5564
 IR Inten    --      1.1820                38.4881               108.9672

                     70                     71                     72
                      A                      A                      A
 Frequencies --   1370.5665              1379.5463              1384.5616
 Red. masses --      1.3270                 1.5448                 1.5723
 Frc consts  --      1.4687                 1.7322                 1.7759
 IR Inten    --      1.0218                 3.4371                 3.2037

                     73                     74                     75
                      A                      A                      A
 Frequencies --   1402.4218              1403.5518              1408.0233
 Red. masses --      1.3923                 1.3959                 1.3177
 Frc consts  --      1.6134                 1.6202                 1.5391
 IR Inten    --      4.1819                 0.7636                 1.0075

                     76                     77                     78
                      A                      A                      A
 Frequencies --   1412.6391              1421.9587              1424.5644
 Red. masses --      1.4078                 1.4281                 1.3420
 Frc consts  --      1.6552                 1.7013                 1.6046
 IR Inten    --      4.2996                 8.5652                 0.1306

                     79                     80                     81
                      A                      A                      A
 Frequencies --   1435.4294              1437.1624              1443.2523
 Red. masses --      1.3656                 1.3428                 1.4348
 Frc consts  --      1.6578                 1.6341                 1.7609
 IR Inten    --     18.6205                10.9443                11.1387

                     82                     83                     84
                      A                      A                      A
 Frequencies --   1500.7825              1502.7558              1508.4692
 Red. masses --      1.1897                 1.1717                 1.0877
 Frc consts  --      1.5788                 1.5590                 1.4583
 IR Inten    --      6.5171                13.9620                 4.4163

                     85                     86                     87
                      A                      A                      A
 Frequencies --   1511.3162              1512.7084              1515.5883
 Red. masses --      1.6216                 1.0965                 1.0682
 Frc consts  --      2.1822                 1.4783                 1.4456
 IR Inten    --     34.1436                 2.5643                 6.3229

                     88                     89                     90
                      A                      A                      A
 Frequencies --   1516.4788              1518.0365              1518.3125
 Red. masses --      1.0937                 1.0832                 1.0905
 Frc consts  --      1.4819                 1.4707                 1.4812
 IR Inten    --     13.5070                10.2945                 5.6793

                     91                     92                     93
                      A                      A                      A
 Frequencies --   1527.1922              1529.9121              1533.4555
 Red. masses --      1.0878                 1.0653                 1.0726
 Frc consts  --      1.4948                 1.4692                 1.4861
 IR Inten    --     10.6476                10.1512                 0.7946

                     94                     95                     96
                      A                      A                      A
 Frequencies --   1536.2626              1543.8858              1551.1382
 Red. masses --      1.1044                 1.2055                 1.0915
 Frc consts  --      1.5357                 1.6929                 1.5473
 IR Inten    --     12.0573                35.4191                 0.7685

                     97                     98                     99
                      A                      A                      A
 Frequencies --   1783.7506              2924.3504              2929.6952
 Red. masses --      8.1665                 1.0787                 1.0757
 Frc consts  --     15.3093                 5.4350                 5.4397
 IR Inten    --    374.0532                41.6315               142.5761

                    100                    101                    102
                      A                      A                      A
 Frequencies --   2978.7694              2998.3375              2999.8305
 Red. masses --      1.0527                 1.0779                 1.0387
 Frc consts  --      5.5035                 5.7093                 5.5072
 IR Inten    --     36.6552                15.6212                80.4454

                    103                    104                    105
                      A                      A                      A
 Frequencies --   3008.4907              3011.4753              3012.7422
 Red. masses --      1.0674                 1.0649                 1.1043
 Frc consts  --      5.6923                 5.6899                 5.9058
 IR Inten    --     29.9017                34.9629                46.3113

                    106                    107                    108
                      A                      A                      A
 Frequencies --   3022.2636              3041.1380              3045.1615
 Red. masses --      1.0714                 1.0715                 1.1051
 Frc consts  --      5.7657                 5.8386                 6.0375
 IR Inten    --    106.6870                48.9759                61.5952

                    109                    110                    111
                      A                      A                      A
 Frequencies --   3045.3182              3046.9425              3049.8104
 Red. masses --      1.0724                 1.0980                 1.0755
 Frc consts  --      5.8596                 6.0058                 5.8939
 IR Inten    --     56.7015                55.7202                67.1785

                    112                    113                    114
                      A                      A                      A
 Frequencies --   3054.9084              3062.1002              3084.2901
 Red. masses --      1.0378                 1.0925                 1.0932
 Frc consts  --      5.7062                 6.0357                 6.1271
 IR Inten    --     19.8387                68.5153                17.5191

                    115                    116                    117
                      A                      A                      A
 Frequencies --   3092.2018              3098.6871              3121.8604
 Red. masses --      1.0968                 1.0870                 1.0994
 Frc consts  --      6.1788                 6.1494                 6.3129
 IR Inten    --     83.0178                27.0006                35.0283

                    118                    119                    120
                      A                      A                      A
 Frequencies --   3129.1598              3144.4767              3145.2617
 Red. masses --      1.0939                 1.1029                 1.0974
 Frc consts  --      6.3108                 6.4250                 6.3964
 IR Inten    --     19.0634                21.9657                27.3724

                    121                    122                    123
                      A                      A                      A
 Frequencies --   3161.2037              3515.6106              3589.0924
 Red. masses --      1.0912                 1.0741                 1.0750
 Frc consts  --      6.4248                 7.8219                 8.1590
 IR Inten    --     11.3155                 0.3512                35.4332

 - Thermochemistry -
 -------------------
 Temperature   298.150 Kelvin.  Pressure   1.00000 Atm.
 Atom     1 has atomic number  6 and mass  12.00000

 Molecular mass:   242.19943 amu.
 Principal axes and moments of inertia in atomic units:
                           1         2         3
     Eigenvalues --  1561.12498********************
           X            0.99999   0.00269  -0.00362
           Y           -0.00273   0.99996  -0.00867
           Z            0.00360   0.00868   0.99996
 This molecule is an asymmetric top.
 Rotational symmetry number  1.
 Warning -- assumption of classical behavior for rotation
           may cause significant error
 Rotational temperatures (Kelvin)      0.05548     0.00834     0.00816
 Rotational constants (GHZ):           1.15605     0.17383     0.17011
 Zero-point vibrational energy    1030796.9 (Joules/Mol)
                                  246.36638 (Kcal/Mol)
 Warning -- explicit consideration of  28 degrees of freedom as
           vibrations may cause significant error
 Vibrational temperatures:     17.22    41.89    56.95    63.55    91.20
          (Kelvin)            126.09   141.24   157.72   203.71   226.46
                              245.35   316.22   321.50   330.61   338.10
                              417.22   440.51   481.93   514.05   528.02
                              544.26   603.72   629.61   645.71   706.82
                              768.05   784.04   867.85   936.61  1035.76
                             1044.98  1068.45  1084.18  1136.46  1148.73
                             1217.66  1231.81  1246.86  1269.43  1333.32
                             1361.87  1376.59  1391.53  1447.79  1488.53
                             1499.12  1505.06  1544.84  1548.64  1580.28
                             1603.86  1610.00  1625.57  1654.75  1660.22
                             1687.92  1695.13  1716.27  1719.65  1748.42
                             1774.80  1825.54  1846.89  1849.80  1876.85
                             1883.50  1898.75  1910.90  1945.35  1971.94
                             1984.86  1992.08  2017.77  2019.40  2025.83
                             2032.47  2045.88  2049.63  2065.26  2067.76
                             2076.52  2159.29  2162.13  2170.35  2174.45
                             2176.45  2180.59  2181.87  2184.12  2184.51
                             2197.29  2201.20  2206.30  2210.34  2221.31
                             2231.74  2566.42  4207.49  4215.18  4285.78
                             4313.94  4316.09  4328.55  4332.84  4334.66
                             4348.36  4375.52  4381.31  4381.53  4383.87
                             4388.00  4395.33  4405.68  4437.61  4448.99
                             4458.32  4491.66  4502.16  4524.20  4525.33
                             4548.27  5058.18  5163.90

 Zero-point correction=                           0.392610 (Hartree/Particle)
 Thermal correction to Energy=                    0.411585
 Thermal correction to Enthalpy=                  0.412529
 Thermal correction to Gibbs Free Energy=         0.342808
 Sum of electronic and zero-point Energies=           -770.666763
 Sum of electronic and thermal Energies=              -770.647787
 Sum of electronic and thermal Enthalpies=            -770.646843
 Sum of electronic and thermal Free Energies=         -770.716564

                     E (Thermal)             CV                S
                      KCal/Mol        Cal/Mol-Kelvin    Cal/Mol-Kelvin
 Total                  258.274             70.460            146.741
 Electronic               0.000              0.000              0.000
 Translational            0.889              2.981             42.355
 Rotational               0.889              2.981             33.508
 Vibrational            256.496             64.498             70.878
 Vibration     1          0.593              1.987              7.654
 Vibration     2          0.593              1.984              5.889
 Vibration     3          0.594              1.981              5.280
 Vibration     4          0.595              1.980              5.063
 Vibration     5          0.597              1.972              4.349
 Vibration     6          0.601              1.958              3.712
 Vibration     7          0.604              1.950              3.490
 Vibration     8          0.606              1.942              3.276
 Vibration     9          0.615              1.912              2.782
 Vibration    10          0.621              1.894              2.581
 Vibration    11          0.626              1.879              2.430
 Vibration    12          0.647              1.811              1.961
 Vibration    13          0.649              1.805              1.931
 Vibration    14          0.652              1.796              1.881
 Vibration    15          0.655              1.787              1.840
 Vibration    16          0.686              1.692              1.474
 Vibration    17          0.697              1.662              1.383
 Vibration    18          0.716              1.606              1.236
 Vibration    19          0.732              1.560              1.134
 Vibration    20          0.740              1.540              1.092
 Vibration    21          0.749              1.516              1.046
 Vibration    22          0.782              1.428              0.893
 Vibration    23          0.798              1.388              0.834
 Vibration    24          0.808              1.364              0.799
 Vibration    25          0.847              1.269              0.680
 Vibration    26          0.889              1.175              0.579
 Vibration    27          0.900              1.151              0.555
 Vibration    28          0.962              1.025              0.444

                           ! Non-Optimized Parameters !
 Normal termination of Gaussian 16 at Mon Dec 14 16:58:41 2020.

 ----------------------------------------------------------------------
 # B3LYP/6-311++G(d,p) empiricaldispersion=gd3bj scf=xqc pop=npa geom=c
 heck
 ----------------------------------------------------------------------

 --------------------------------------
 CID_43216206_JID_7473_Energie_neutraal
 --------------------------------------
 Structure from the checkpoint file:  "JID_7473.chk"
 Charge =  0 Multiplicity = 1

 SCF Done:  E(RB3LYP) =  -771.285129656     A.U. after   14 cycles
 Normal termination of Gaussian 16 at Mon Dec 14 17:07:39 2020.

 ----------------------------------------------------------------------
 # B3LYP/6-311++G(d,p) empiricaldispersion=gd3bj scf=xqc pop=npa geom=c
 heck
 ----------------------------------------------------------------------

 ------------------------------------
 CID_43216206_JID_7473_Energie_kation
 ------------------------------------
 Structure from the checkpoint file:  "JID_7473.chk"
 Charge =  1 Multiplicity = 2

 SCF Done:  E(UB3LYP) =  -770.991828178     A.U. after   27 cycles
 Normal termination of Gaussian 16 at Mon Dec 14 17:32:43 2020.
 Gaussian 16:  ES64L-G16RevA.03 25-Dec-2016

 ----------------------------------------------------------------------
 # B3LYP/6-311++G(d,p) empiricaldispersion=gd3bj scf=xqc pop=npa geom=c
 heck
 ----------------------------------------------------------------------

 -----------------------------------
 CID_43216206_JID_7473_Energie_anion
 -----------------------------------
 Structure from the checkpoint file:  "JID_7473.chk"
 Charge = -1 Multiplicity = 2

                         Standard orientation:
 ---------------------------------------------------------------------
 Center     Atomic      Atomic             Coordinates (Angstroms)
 Number     Number       Type             X           Y           Z
 ---------------------------------------------------------------------
      1          6           0       -0.718026   -1.538531    1.485513
      2          6           0       -0.321718   -1.040418    0.087873
      3          6           0       -0.992311    0.326026   -0.164016
      4          8           0       -0.413624    1.385082    0.039758
      5          7           0       -2.285166    0.316141   -0.617174
      6          6           0       -3.215430   -0.782499   -0.804082
      7          6           0       -4.432766   -0.624079    0.098068
      8          8           0       -5.046112    0.603923   -0.240528
      9          6           0       -6.121981    0.937196    0.612256
     10          7           0        1.120440   -0.886234    0.035672
     11          6           0        1.661105   -0.617811   -1.298564
     12          6           0        3.058323    0.023746   -1.307298
     13          6           0        3.069656    1.466742   -0.756831
     14          6           0        3.097878    1.549163    0.774728
     15          6           0        4.269495    0.742628    1.347680
     16          6           0        4.208901   -0.721834    0.894820
     17          6           0        4.155625   -0.834033   -0.638638
     18          1           0       -0.374212   -0.819130    2.234366
     19          1           0       -0.251027   -2.508413    1.693694
     20          1           0       -1.800904   -1.658502    1.586993
     21          1           0       -0.688986   -1.758395   -0.669823
     22          1           0       -2.694163    1.241221   -0.684719
     23          1           0       -3.553122   -0.811855   -1.848559
     24          1           0       -2.725012   -1.732314   -0.590689
     25          1           0       -5.131264   -1.465158   -0.050052
     26          1           0       -4.120192   -0.620811    1.155565
     27          1           0       -6.921984    0.181679    0.567489
     28          1           0       -5.792352    1.034558    1.658321
     29          1           0       -6.517884    1.896510    0.271000
     30          1           0        1.548325   -1.727207    0.412917
     31          1           0        1.682293   -1.533696   -1.920742
     32          1           0        0.977991    0.079910   -1.792586
     33          1           0        3.313443    0.083683   -2.376234
     34          1           0        3.962698    1.972821   -1.154002
     35          1           0        2.197173    2.009223   -1.138332
     36          1           0        2.149611    1.167785    1.162950
     37          1           0        3.180496    2.600189    1.080955
     38          1           0        4.275569    0.796834    2.443971
     39          1           0        5.219014    1.183991    1.006761
     40          1           0        3.326848   -1.189551    1.346171
     41          1           0        5.082031   -1.273772    1.267392
     42          1           0        4.046376   -1.885116   -0.943264
     43          1           0        5.127696   -0.503664   -1.031919
 ---------------------------------------------------------------------

 SCF Done:  E(UB3LYP) =  -771.275625036     A.U. after   30 cycles

 The electronic state is 2-A.
 Alpha  occ. eigenvalues --  -19.04452 -18.99034 -14.24138 -14.20154 -10.17615
 Alpha  occ. eigenvalues --  -10.13082 -10.12595 -10.12154 -10.11680 -10.09460
 Alpha  occ. eigenvalues --  -10.07872 -10.07457 -10.07423 -10.07183 -10.07127
 Alpha  occ. eigenvalues --  -10.06485 -10.05738  -0.95877  -0.94307  -0.82982
 Alpha  occ. eigenvalues --   -0.81866  -0.73684  -0.68155  -0.67326  -0.64757
 Alpha  occ. eigenvalues --   -0.64496  -0.59669  -0.56831  -0.56035  -0.53330
 Alpha  occ. eigenvalues --   -0.51505  -0.49785  -0.47247  -0.44197  -0.42053
 Alpha  occ. eigenvalues --   -0.41692  -0.40439  -0.39309  -0.39005  -0.37492
 Alpha  occ. eigenvalues --   -0.36523  -0.36392  -0.35031  -0.34573  -0.33761
 Alpha  occ. eigenvalues --   -0.33099  -0.32957  -0.30922  -0.30430  -0.29510
 Alpha  occ. eigenvalues --   -0.29223  -0.28928  -0.28188  -0.28141  -0.27326
 Alpha  occ. eigenvalues --   -0.26916  -0.26042  -0.24593  -0.24345  -0.23871
 Alpha  occ. eigenvalues --   -0.21928  -0.20675  -0.20376  -0.18178  -0.16307
 Alpha  occ. eigenvalues --   -0.15983  -0.13222   0.03878
 Alpha virt. eigenvalues --    0.05406   0.06300   0.06957   0.07460   0.07930
 Alpha virt. eigenvalues --    0.08165   0.09030   0.09160   0.09411   0.09866
 Alpha virt. eigenvalues --    0.10208   0.10651   0.10720   0.11317   0.11733

  Beta  occ. eigenvalues --  -19.04441 -18.99033 -14.24133 -14.20140 -10.17616
  Beta  occ. eigenvalues --  -10.13045 -10.12558 -10.12134 -10.11669 -10.09448
  Beta  occ. eigenvalues --  -10.07871 -10.07446 -10.07389 -10.07176 -10.07124
  Beta  occ. eigenvalues --  -10.06482 -10.05737  -0.95857  -0.94302  -0.82968
  Beta  occ. eigenvalues --   -0.81845  -0.73673  -0.68128  -0.67293  -0.64734
  Beta  occ. eigenvalues --   -0.64479  -0.59606  -0.56797  -0.55984  -0.53240
  Beta  occ. eigenvalues --   -0.51486  -0.49770  -0.47214  -0.44178  -0.42028
  Beta  occ. eigenvalues --   -0.41655  -0.40390  -0.39277  -0.38965  -0.37463
  Beta  occ. eigenvalues --   -0.36492  -0.36367  -0.35005  -0.34554  -0.33724
  Beta  occ. eigenvalues --   -0.33077  -0.32942  -0.30906  -0.30404  -0.29479
  Beta  occ. eigenvalues --   -0.29175  -0.28902  -0.28173  -0.28115  -0.27303
  Beta  occ. eigenvalues --   -0.26890  -0.26025  -0.24519  -0.24327  -0.23861
  Beta  occ. eigenvalues --   -0.21917  -0.20662  -0.20365  -0.18151  -0.16285
  Beta  occ. eigenvalues --   -0.15971  -0.13191
  Beta virt. eigenvalues --    0.05725   0.06327   0.07046   0.07154   0.07881
  Beta virt. eigenvalues --    0.08214   0.08511   0.09304   0.09393   0.09825
  Beta virt. eigenvalues --    0.09956   0.10277   0.10830   0.11069   0.11398

 Mulliken charges and spin densities:
               1          2
     1  C    0.924318  -1.460676
     2  C   -1.080122   0.642145
     3  C    0.178598  -0.331919
     4  O   -0.312198   0.005352
     5  N   -0.175715   0.062298
     6  C    0.347179  -0.483094
     7  C    0.177750  -0.591737
     8  O   -0.245858   0.072347
     9  C    0.639359  -0.881131
    10  N    0.162086   0.076183
    11  C    0.158168  -0.587248
    12  C   -0.065560   0.520444
    13  C   -0.257348  -0.201905
    14  C   -0.250972   0.054913
    15  C   -0.496334  -0.069545
    16  C    0.124793  -0.231734
    17  C   -0.260075  -0.362855
    18  H    0.064797   0.105077
    19  H   -0.464762   0.611081
    20  H   -0.237044   0.361240
    21  H   -0.073135   0.291293
    22  H    0.312991  -0.005244
    23  H    0.023170   0.171537
    24  H   -0.262258   0.407384
    25  H   -0.506814   0.673683
    26  H    0.273907  -0.126047
    27  H   -0.334594   0.471621
    28  H   -0.216369   0.347775
    29  H   -0.135063   0.269325
    30  H    0.124827   0.100690
    31  H   -0.190574   0.335087
    32  H    0.182881  -0.027059
    33  H    0.080017   0.108586
    34  H    0.083385   0.052065
    35  H    0.158917  -0.005766
    36  H    0.216302   0.013477
    37  H    0.142320   0.007030
    38  H    0.097280   0.056628
    39  H    0.095063   0.003161
    40  H    0.141079  -0.056942
    41  H   -0.024249   0.196053
    42  H   -0.175302   0.330749
    43  H    0.055162   0.075676
 Sum of Mulliken charges =  -1.00000   1.00000

 Dipole moment (field-independent basis, Debye):
    X=              6.8137    Y=              4.0242    Z=             -1.1991  Tot=              8.0037
 Quadrupole moment (field-independent basis, Debye-Ang):
   XX=           -223.1615   YY=           -157.3158   ZZ=           -137.8983
   XY=             -5.4759   XZ=              4.5115   YZ=             -0.7361

 Summary of Natural Population Analysis:

                                       Natural Population
                Natural  -----------------------------------------------
    Atom  No    Charge         Core      Valence    Rydberg      Total
 -----------------------------------------------------------------------
      C    1   -0.28310      0.99964     2.27703    0.00644     3.28310
      C    2   -0.04691      0.99957     2.03546    0.01188     3.04691
      C    3    0.34250      0.99964     1.63281    0.02505     2.65750
      O    4   -0.32301      0.99987     3.31729    0.00584     4.32301
      N    5   -0.31886      0.99966     2.80935    0.00985     3.81886
      C    6   -0.09831      0.99960     2.08611    0.01260     3.09831
      C    7   -0.01062      0.99959     1.99900    0.01204     3.01062
      O    8   -0.30397      0.99988     3.29433    0.00976     4.30397
      C    9   -0.09602      0.99962     2.08745    0.00895     3.09602
      N   10   -0.34076      0.99972     2.82803    0.01302     3.84076
      C   11   -0.08269      0.99959     2.07081    0.01229     3.08269
      C   12   -0.11060      0.99959     2.10017    0.01085     3.11060
      C   13   -0.18693      0.99961     2.17945    0.00787     3.18693
      C   14   -0.19745      0.99962     2.18971    0.00811     3.19745
      C   15   -0.18753      0.99963     2.18091    0.00699     3.18753
      C   16   -0.19211      0.99963     2.18378    0.00871     3.19211
      C   17   -0.19126      0.99961     2.18224    0.00940     3.19126
      H   18    0.10480      0.00000     0.39383    0.00138     0.39520
      H   19    0.10206      0.00000     0.39647    0.00146     0.39794
      H   20    0.10201      0.00000     0.39666    0.00134     0.39799
      H   21    0.08695      0.00000     0.41044    0.00260     0.41305
      H   22    0.19754      0.00000     0.29972    0.00275     0.30246
      H   23    0.09568      0.00000     0.40286    0.00146     0.40432
      H   24    0.10675      0.00000     0.39146    0.00179     0.39325
      H   25    0.08648      0.00000     0.41057    0.00295     0.41352
      H   26    0.08070      0.00000     0.41730    0.00200     0.41930
      H   27    0.08208      0.00000     0.41592    0.00200     0.41792
      H   28    0.07992      0.00000     0.41867    0.00141     0.42008
      H   29    0.08929      0.00000     0.40971    0.00101     0.41071
      H   30    0.17354      0.00000     0.32321    0.00325     0.32646
      H   31    0.08163      0.00000     0.41693    0.00144     0.41837
      H   32    0.09683      0.00000     0.40180    0.00137     0.40317
      H   33    0.09534      0.00000     0.40326    0.00140     0.40466
      H   34    0.08842      0.00000     0.41050    0.00108     0.41158
      H   35    0.10568      0.00000     0.39332    0.00100     0.39432
      H   36    0.11617      0.00000     0.38221    0.00162     0.38383
      H   37    0.09171      0.00000     0.40737    0.00092     0.40829
      H   38    0.09555      0.00000     0.40350    0.00095     0.40445
      H   39    0.08653      0.00000     0.41223    0.00125     0.41347
      H   40    0.09584      0.00000     0.40249    0.00167     0.40416
      H   41    0.09382      0.00000     0.40527    0.00092     0.40618
      H   42    0.09894      0.00000     0.40010    0.00096     0.40106
      H   43    0.09338      0.00000     0.40559    0.00103     0.40662
 =======================================================================
   * Total *    0.00000     16.99409    49.78526    0.22065    67.00000

 Normal termination of Gaussian 16 at Mon Dec 14 18:00:17 2020.
