 Gaussian 16, Revision A.03,

 -----------------------------------------------------------
 # opt freq B3LYP/6-31G(d) empiricaldispersion=gd3bj scf=xqc
 -----------------------------------------------------------

 -------------------------------
 CID_107385681_JID_9189_neutraal
 -------------------------------
 Symbolic Z-matrix:
 Charge =  0 Multiplicity = 1

 SCF Done:  E(RB3LYP) =  -828.810227737     A.U. after   14 cycles
 SCF Done:  E(RB3LYP) =  -828.817055960     A.U. after   12 cycles
 SCF Done:  E(RB3LYP) =  -828.817849324     A.U. after   11 cycles
 SCF Done:  E(RB3LYP) =  -828.817929964     A.U. after   11 cycles
 SCF Done:  E(RB3LYP) =  -828.818026112     A.U. after   10 cycles
 SCF Done:  E(RB3LYP) =  -828.818099038     A.U. after   10 cycles
 SCF Done:  E(RB3LYP) =  -828.818099457     A.U. after   10 cycles
 SCF Done:  E(RB3LYP) =  -828.818115999     A.U. after    9 cycles
 SCF Done:  E(RB3LYP) =  -828.818120866     A.U. after    9 cycles
 SCF Done:  E(RB3LYP) =  -828.818137995     A.U. after   11 cycles
 SCF Done:  E(RB3LYP) =  -828.818285051     A.U. after    8 cycles
 SCF Done:  E(RB3LYP) =  -828.818286021     A.U. after    9 cycles
 SCF Done:  E(RB3LYP) =  -828.818286649     A.U. after    8 cycles
 SCF Done:  E(RB3LYP) =  -828.818286993     A.U. after    8 cycles
 SCF Done:  E(RB3LYP) =  -828.818287008     A.U. after    7 cycles
 Optimization completed.
    -- Stationary point found.
 Normal termination of Gaussian 16 at Mon Dec 14 13:45:36 2020.

 --------------------------------------------------------------------
 #N Geom=AllCheck Guess=TCheck SCRF=Check GenChk RB3LYP/6-31G(d) Freq
 --------------------------------------------------------------------

 Structure from the checkpoint file:  "JID_9189.chk"
 -------------------------------
 CID_107385681_JID_9189_neutraal
 -------------------------------
 Charge =  0 Multiplicity = 1

 SCF Done:  E(RB3LYP) =  -828.818287008     A.U. after    1 cycles

  Exact polarizability: 201.939  30.247 151.158   5.635  -2.218 165.894
 Approx polarizability: 261.244  47.615 225.733  12.178 -13.164 271.179

                      1                      2                      3
                      A                      A                      A
 Frequencies --     11.5306                21.9646                27.2589
 Red. masses --      4.6100                 3.4913                 1.0431
 Frc consts  --      0.0004                 0.0010                 0.0005
 IR Inten    --      0.1286                 0.1844                 0.1023

                      4                      5                      6
                      A                      A                      A
 Frequencies --     53.0643                76.6896               107.2948
 Red. masses --      3.9865                 4.0298                 3.4043
 Frc consts  --      0.0066                 0.0140                 0.0231
 IR Inten    --      0.4126                 0.4429                 2.8163

                      7                      8                      9
                      A                      A                      A
 Frequencies --    150.1844               164.1615               192.2418
 Red. masses --      3.5146                 3.4721                 2.5367
 Frc consts  --      0.0467                 0.0551                 0.0552
 IR Inten    --      0.6454                 0.3773                 3.9844

                     10                     11                     12
                      A                      A                      A
 Frequencies --    224.3204               240.7059               244.4363
 Red. masses --      2.6966                 2.9986                 1.1156
 Frc consts  --      0.0799                 0.1024                 0.0393
 IR Inten    --      1.5150                 2.5130                 0.0031

                     13                     14                     15
                      A                      A                      A
 Frequencies --    269.3850               297.7686               306.2276
 Red. masses --      2.9929                 2.4611                 2.5113
 Frc consts  --      0.1280                 0.1286                 0.1388
 IR Inten    --      2.4235                 0.7458                 1.0216

                     16                     17                     18
                      A                      A                      A
 Frequencies --    337.3619               354.8966               389.0607
 Red. masses --      2.8463                 3.1687                 2.3682
 Frc consts  --      0.1909                 0.2351                 0.2112
 IR Inten    --      1.3537                 2.3228                 3.0465

                     19                     20                     21
                      A                      A                      A
 Frequencies --    421.0273               426.6960               430.0087
 Red. masses --      2.7916                 2.5885                 2.9594
 Frc consts  --      0.2916                 0.2777                 0.3224
 IR Inten    --      1.2467                 1.3729                 0.9278

                     22                     23                     24
                      A                      A                      A
 Frequencies --    439.7394               482.4670               491.4519
 Red. masses --      3.7361                 2.2980                 3.7315
 Frc consts  --      0.4257                 0.3152                 0.5310
 IR Inten    --      8.2359                 2.5550                 1.1851

                     25                     26                     27
                      A                      A                      A
 Frequencies --    502.9116               514.9891               566.4675
 Red. masses --      3.4066                 3.1021                 3.1259
 Frc consts  --      0.5076                 0.4847                 0.5910
 IR Inten    --      3.3361                 2.3528                 0.4747

                     28                     29                     30
                      A                      A                      A
 Frequencies --    612.8776               625.7586               719.7572
 Red. masses --      2.8420                 4.3377                 4.1141
 Frc consts  --      0.6290                 1.0007                 1.2557
 IR Inten    --      0.5692                 1.0723                 0.6348

                     31                     32                     33
                      A                      A                      A
 Frequencies --    729.6084               742.7717               757.1231
 Red. masses --      3.7339                 3.8971                 2.2713
 Frc consts  --      1.1711                 1.2668                 0.7671
 IR Inten    --      5.6004                22.3140                19.9065

                     34                     35                     36
                      A                      A                      A
 Frequencies --    768.7066               824.1219               829.2837
 Red. masses --      2.0118                 2.2145                 2.2410
 Frc consts  --      0.7004                 0.8862                 0.9080
 IR Inten    --     43.8221                19.4542                15.8467

                     37                     38                     39
                      A                      A                      A
 Frequencies --    849.0042               866.4364               888.5420
 Red. masses --      2.8097                 1.9565                 2.3528
 Frc consts  --      1.1932                 0.8654                 1.0944
 IR Inten    --     18.9656                10.5056                32.2896

                     40                     41                     42
                      A                      A                      A
 Frequencies --    890.2951               897.5486               919.1767
 Red. masses --      1.7547                 1.4930                 2.1492
 Frc consts  --      0.8194                 0.7086                 1.0699
 IR Inten    --      4.1093                 8.2992                10.5296

                     43                     44                     45
                      A                      A                      A
 Frequencies --    926.5118               933.1605               937.4509
 Red. masses --      1.8514                 1.6610                 1.5541
 Frc consts  --      0.9364                 0.8522                 0.8047
 IR Inten    --      7.9417                 2.7671                 1.1720

                     46                     47                     48
                      A                      A                      A
 Frequencies --    949.2834              1001.9987              1020.0506
 Red. masses --      2.2038                 1.8782                 3.7938
 Frc consts  --      1.1701                 1.1111                 2.3258
 IR Inten    --      4.5853                13.5058                80.3969

                     49                     50                     51
                      A                      A                      A
 Frequencies --   1023.0982              1029.3601              1056.8945
 Red. masses --      1.6972                 1.4657                 1.7997
 Frc consts  --      1.0467                 0.9150                 1.1844
 IR Inten    --      1.0663                 2.7184                 6.4697

                     52                     53                     54
                      A                      A                      A
 Frequencies --   1061.5035              1076.1571              1095.4344
 Red. masses --      1.7347                 1.4802                 1.7323
 Frc consts  --      1.1516                 1.0100                 1.2247
 IR Inten    --     10.1904                 4.4292                11.3288

                     55                     56                     57
                      A                      A                      A
 Frequencies --   1108.8233              1134.1329              1140.6574
 Red. masses --      1.9289                 2.7134                 3.8900
 Frc consts  --      1.3973                 2.0563                 2.9820
 IR Inten    --      5.7191                23.4350               163.4670

                     58                     59                     60
                      A                      A                      A
 Frequencies --   1150.1022              1159.3574              1176.2695
 Red. masses --      3.0807                 1.3802                 1.9353
 Frc consts  --      2.4009                 1.0930                 1.5777
 IR Inten    --     26.5075                 4.6749                24.5583

                     61                     62                     63
                      A                      A                      A
 Frequencies --   1180.6289              1204.1779              1215.0514
 Red. masses --      1.6507                 1.5745                 2.0523
 Frc consts  --      1.3556                 1.3452                 1.7852
 IR Inten    --     13.2563                33.4172                54.1885

                     64                     65                     66
                      A                      A                      A
 Frequencies --   1229.8840              1245.9322              1260.6166
 Red. masses --      1.5101                 1.8755                 1.4597
 Frc consts  --      1.3458                 1.7153                 1.3668
 IR Inten    --     18.2045                 8.0578                25.1835

                     67                     68                     69
                      A                      A                      A
 Frequencies --   1281.4790              1284.8759              1294.2729
 Red. masses --      4.1488                 1.8507                 1.4254
 Frc consts  --      4.0142                 1.8002                 1.4068
 IR Inten    --    111.6874                 3.1619                 3.7857

                     70                     71                     72
                      A                      A                      A
 Frequencies --   1328.0071              1331.2435              1347.5160
 Red. masses --      1.4483                 1.3371                 1.4984
 Frc consts  --      1.5049                 1.3961                 1.6030
 IR Inten    --      5.4715                17.3829                 6.5326

                     73                     74                     75
                      A                      A                      A
 Frequencies --   1363.1672              1374.7225              1376.8333
 Red. masses --      1.3443                 5.8473                 1.2484
 Frc consts  --      1.4718                 6.5108                 1.3943
 IR Inten    --      3.1889                 7.7323                 3.8960

                     76                     77                     78
                      A                      A                      A
 Frequencies --   1386.8063              1401.2862              1404.8328
 Red. masses --      1.4309                 1.3335                 1.4560
 Frc consts  --      1.6214                 1.5428                 1.6931
 IR Inten    --     18.2848                 5.9631                 1.3655

                     79                     80                     81
                      A                      A                      A
 Frequencies --   1416.1484              1436.1973              1439.8294
 Red. masses --      1.3732                 1.2553                 1.4688
 Frc consts  --      1.6226                 1.5256                 1.7940
 IR Inten    --      1.5217                 6.2738                 1.2355

                     82                     83                     84
                      A                      A                      A
 Frequencies --   1444.5877              1479.1878              1491.2229
 Red. masses --      1.2413                 3.4192                 1.0840
 Frc consts  --      1.5262                 4.4078                 1.4202
 IR Inten    --      0.5259                 0.8571                 2.1005

                     85                     86                     87
                      A                      A                      A
 Frequencies --   1503.0691              1504.7831              1516.2631
 Red. masses --      1.1669                 1.0883                 1.1089
 Frc consts  --      1.5532                 1.4519                 1.5021
 IR Inten    --     11.5087                 4.0556                 8.9981

                     88                     89                     90
                      A                      A                      A
 Frequencies --   1516.2959              1518.2894              1519.2344
 Red. masses --      1.0526                 1.1247                 1.1078
 Frc consts  --      1.4259                 1.5276                 1.5065
 IR Inten    --      1.9852                 6.1175                 2.1360

                     91                     92                     93
                      A                      A                      A
 Frequencies --   1527.1308              1530.2306              1531.5094
 Red. masses --      1.0625                 1.1265                 1.0884
 Frc consts  --      1.4599                 1.5542                 1.5041
 IR Inten    --      1.2551                 8.6849                 6.4929

                     94                     95                     96
                      A                      A                      A
 Frequencies --   1540.9063              1553.0445              1659.8117
 Red. masses --      2.5081                 1.0898                 6.6965
 Frc consts  --      3.5087                 1.5487                10.8696
 IR Inten    --    124.1827                12.9319                 1.1433

                     97                     98                     99
                      A                      A                      A
 Frequencies --   1677.7199              3022.7765              3023.0864
 Red. masses --      6.8385                 1.0575                 1.0626
 Frc consts  --     11.3410                 5.6928                 5.7214
 IR Inten    --     18.2755                 6.5770                45.0106

                    100                    101                    102
                      A                      A                      A
 Frequencies --   3026.8614              3037.6934              3039.0407
 Red. masses --      1.0667                 1.0630                 1.0386
 Frc consts  --      5.7583                 5.7794                 5.6516
 IR Inten    --     59.1972                18.2820                45.0015

                    103                    104                    105
                      A                      A                      A
 Frequencies --   3050.9566              3052.2042              3058.9129
 Red. masses --      1.0648                 1.0690                 1.0372
 Frc consts  --      5.8398                 5.8677                 5.7178
 IR Inten    --     53.7487                20.8001                29.1239

                    106                    107                    108
                      A                      A                      A
 Frequencies --   3063.6713              3077.5135              3087.3944
 Red. masses --      1.1061                 1.1001                 1.0971
 Frc consts  --      6.1170                 6.1389                 6.1612
 IR Inten    --     23.3308                23.6843                36.6809

                    109                    110                    111
                      A                      A                      A
 Frequencies --   3089.7208              3093.9835              3105.6523
 Red. masses --      1.0997                 1.0983                 1.0978
 Frc consts  --      6.1856                 6.1944                 6.2383
 IR Inten    --     25.5671                23.0533                61.8083

                    112                    113                    114
                      A                      A                      A
 Frequencies --   3113.7689              3122.5617              3125.2960
 Red. masses --      1.0944                 1.1006                 1.0902
 Frc consts  --      6.2517                 6.3226                 6.2737
 IR Inten    --     11.2281                18.3145                46.7227

                    115                    116                    117
                      A                      A                      A
 Frequencies --   3129.8512              3134.3817              3175.3380
 Red. masses --      1.1028                 1.1032                 1.0904
 Frc consts  --      6.3652                 6.3856                 6.4774
 IR Inten    --     25.5492                37.7306                16.1870

                    118                    119                    120
                      A                      A                      A
 Frequencies --   3183.8300              3219.1258              3511.7653
 Red. masses --      1.0888                 1.0933                 1.0737
 Frc consts  --      6.5029                 6.6751                 7.8018
 IR Inten    --     18.7773                 9.7297                 0.8999

 - Thermochemistry -
 -------------------
 Temperature   298.150 Kelvin.  Pressure   1.00000 Atm.
 Atom     1 has atomic number  6 and mass  12.00000

 Molecular mass:   261.17288 amu.
 Principal axes and moments of inertia in atomic units:
                           1         2         3
     Eigenvalues --  2637.235629131.962839710.61198
           X            0.99993   0.01067  -0.00505
           Y           -0.01047   0.99926   0.03692
           Z            0.00544  -0.03686   0.99931
 This molecule is an asymmetric top.
 Rotational symmetry number  1.
 Warning -- assumption of classical behavior for rotation
           may cause significant error
 Rotational temperatures (Kelvin)      0.03284     0.00948     0.00892
 Rotational constants (GHZ):           0.68433     0.19763     0.18585
 Zero-point vibrational energy     972012.2 (Joules/Mol)
                                  232.31649 (Kcal/Mol)
 Warning -- explicit consideration of  28 degrees of freedom as
           vibrations may cause significant error
 Vibrational temperatures:     16.59    31.60    39.22    76.35   110.34
          (Kelvin)            154.37   216.08   236.19   276.59   322.75
                              346.32   351.69   387.58   428.42   440.59
                              485.39   510.62   559.77   605.76   613.92
                              618.69   632.69   694.16   707.09   723.58
                              740.95   815.02   881.79   900.33  1035.57
                             1049.74  1068.68  1089.33  1106.00  1185.73
                             1193.15  1221.53  1246.61  1278.41  1280.94
                             1291.37  1322.49  1333.04  1342.61  1348.78
                             1365.81  1441.65  1467.63  1472.01  1481.02
                             1520.64  1527.27  1548.35  1576.09  1595.35
                             1631.76  1641.15  1654.74  1668.06  1692.39
                             1698.66  1732.54  1748.19  1769.53  1792.62
                             1813.75  1843.76  1848.65  1862.17  1910.71
                             1915.36  1938.77  1961.29  1977.92  1980.96
                             1995.30  2016.14  2021.24  2037.52  2066.37
                             2071.59  2078.44  2128.22  2145.54  2162.58
                             2165.05  2181.56  2181.61  2184.48  2185.84
                             2197.20  2201.66  2203.50  2217.02  2234.48
                             2388.10  2413.86  4349.10  4349.55  4354.98
                             4370.56  4372.50  4389.65  4391.44  4401.09
                             4407.94  4427.86  4442.07  4445.42  4451.55
                             4468.34  4480.02  4492.67  4496.60  4503.16
                             4509.68  4568.60  4580.82  4631.60  5052.65

 Zero-point correction=                           0.370220 (Hartree/Particle)
 Thermal correction to Energy=                    0.388113
 Thermal correction to Enthalpy=                  0.389057
 Thermal correction to Gibbs Free Energy=         0.321883
 Sum of electronic and zero-point Energies=           -828.448067
 Sum of electronic and thermal Energies=              -828.430174
 Sum of electronic and thermal Enthalpies=            -828.429230
 Sum of electronic and thermal Free Energies=         -828.496404

                     E (Thermal)             CV                S
                      KCal/Mol        Cal/Mol-Kelvin    Cal/Mol-Kelvin
 Total                  243.544             70.316            141.379
 Electronic               0.000              0.000              0.000
 Translational            0.889              2.981             42.580
 Rotational               0.889              2.981             33.813
 Vibrational            241.767             64.354             64.986
 Vibration     1          0.593              1.987              7.728
 Vibration     2          0.593              1.985              6.448
 Vibration     3          0.593              1.984              6.020
 Vibration     4          0.596              1.976              4.700
 Vibration     5          0.599              1.965              3.974
 Vibration     6          0.606              1.943              3.317
 Vibration     7          0.618              1.902              2.670
 Vibration     8          0.623              1.886              2.501
 Vibration     9          0.634              1.851              2.206
 Vibration    10          0.649              1.804              1.924
 Vibration    11          0.658              1.778              1.798
 Vibration    12          0.660              1.772              1.770
 Vibration    13          0.674              1.730              1.600
 Vibration    14          0.691              1.678              1.429
 Vibration    15          0.697              1.662              1.383
 Vibration    16          0.718              1.601              1.225
 Vibration    17          0.731              1.565              1.144
 Vibration    18          0.757              1.494              1.004
 Vibration    19          0.784              1.425              0.888
 Vibration    20          0.788              1.412              0.870
 Vibration    21          0.791              1.405              0.859
 Vibration    22          0.800              1.384              0.827
 Vibration    23          0.839              1.289              0.703
 Vibration    24          0.847              1.269              0.680
 Vibration    25          0.858              1.244              0.651
 Vibration    26          0.870              1.217              0.622
 Vibration    27          0.922              1.104              0.511
 Vibration    28          0.972              1.005              0.428

                           ! Non-Optimized Parameters !
 Normal termination of Gaussian 16 at Mon Dec 14 14:08:33 2020.

 ----------------------------------------------------------------------
 # B3LYP/6-311++G(d,p) empiricaldispersion=gd3bj scf=xqc pop=npa geom=c
 heck
 ----------------------------------------------------------------------

 ---------------------------------------
 CID_107385681_JID_9189_Energie_neutraal
 ---------------------------------------
 Structure from the checkpoint file:  "JID_9189.chk"
 Charge =  0 Multiplicity = 1

 SCF Done:  E(RB3LYP) =  -829.043170097     A.U. after   14 cycles
 Normal termination of Gaussian 16 at Mon Dec 14 14:18:53 2020.

 ----------------------------------------------------------------------
 # B3LYP/6-311++G(d,p) empiricaldispersion=gd3bj scf=xqc pop=npa geom=c
 heck
 ----------------------------------------------------------------------

 -------------------------------------
 CID_107385681_JID_9189_Energie_kation
 -------------------------------------
 Structure from the checkpoint file:  "JID_9189.chk"
 Charge =  1 Multiplicity = 2

 SCF Done:  E(UB3LYP) =  -828.774693640     A.U. after   22 cycles
 Normal termination of Gaussian 16 at Mon Dec 14 14:41:46 2020.
 Gaussian 16:  ES64L-G16RevA.03 25-Dec-2016

 ----------------------------------------------------------------------
 # B3LYP/6-311++G(d,p) empiricaldispersion=gd3bj scf=xqc pop=npa geom=c
 heck
 ----------------------------------------------------------------------

 ------------------------------------
 CID_107385681_JID_9189_Energie_anion
 ------------------------------------
 Structure from the checkpoint file:  "JID_9189.chk"
 Charge = -1 Multiplicity = 2

                         Standard orientation:
 ---------------------------------------------------------------------
 Center     Atomic      Atomic             Coordinates (Angstroms)
 Number     Number       Type             X           Y           Z
 ---------------------------------------------------------------------
      1          6           0        5.073603    1.777822   -1.010552
      2          6           0        4.087021    0.818549   -0.387815
      3          6           0        3.064632    0.246141   -1.167025
      4          6           0        2.151598   -0.618250   -0.583862
      5          6           0        2.248763   -0.917828    0.777995
      6          6           0        3.245158   -0.380238    1.578175
      7          6           0        4.160391    0.488658    0.970441
      8          8           0        1.275620   -1.782668    1.209792
      9          6           0        0.292128   -1.882985    0.142798
     10          6           0        0.996922   -1.410580   -1.149480
     11          6           0       -0.876735   -0.979168    0.526422
     12          8           0       -1.851938   -1.123834   -0.482325
     13          6           0       -3.029164   -0.283234   -0.517025
     14          6           0       -3.655270   -0.032753    0.872361
     15          6           0       -3.009211    1.096667    1.694869
     16          6           0       -2.789721    2.349146    0.832617
     17          7           0       -2.062456    2.093059   -0.410660
     18          6           0       -2.710978    1.060596   -1.215338
     19          6           0       -3.990600   -1.094882   -1.388357
     20          1           0        5.887007    2.016687   -0.318267
     21          1           0        4.593146    2.723397   -1.293851
     22          1           0        5.521430    1.360496   -1.920496
     23          1           0        2.996839    0.483602   -2.226676
     24          1           0        3.306814   -0.624616    2.633326
     25          1           0        4.950276    0.925619    1.576277
     26          1           0       -0.038800   -2.922451    0.097738
     27          1           0        0.309781   -0.831609   -1.773147
     28          1           0        1.350873   -2.258891   -1.748731
     29          1           0       -1.254181   -1.278129    1.513466
     30          1           0       -0.498676    0.048683    0.608131
     31          1           0       -4.705494    0.236768    0.698107
     32          1           0       -3.670962   -0.975337    1.433221
     33          1           0       -2.049769    0.777570    2.115081
     34          1           0       -3.655107    1.337143    2.549355
     35          1           0       -2.254218    3.119520    1.398489
     36          1           0       -3.764381    2.776901    0.555353
     37          1           0       -1.101370    1.830422   -0.205909
     38          1           0       -2.092912    0.852771   -2.095696
     39          1           0       -3.658630    1.484996   -1.577206
     40          1           0       -3.525701   -1.313975   -2.355257
     41          1           0       -4.226949   -2.046543   -0.901759
     42          1           0       -4.922507   -0.548400   -1.564010
 ---------------------------------------------------------------------

 SCF Done:  E(UB3LYP) =  -829.029631088     A.U. after   33 cycles
 SCF Done:  E(UB3LYP) =  -829.029631088     a.u. after    1 cycles

 The electronic state is 2-A.
 Alpha  occ. eigenvalues --  -19.06522 -19.03648 -14.20855 -10.14728 -10.14121
 Alpha  occ. eigenvalues --  -10.13912 -10.13244 -10.10122 -10.10109 -10.09467
 Alpha  occ. eigenvalues --  -10.09264 -10.09207 -10.08767 -10.08754 -10.08710
 Alpha  occ. eigenvalues --  -10.08019 -10.07964 -10.07589 -10.07113  -0.98680
 Alpha  occ. eigenvalues --   -0.94876  -0.82239  -0.77239  -0.72534  -0.70305
 Alpha  occ. eigenvalues --   -0.68702  -0.67819  -0.65264  -0.61042  -0.60135
 Alpha  occ. eigenvalues --   -0.58575  -0.55626  -0.52873  -0.51875  -0.50814
 Alpha  occ. eigenvalues --   -0.49145  -0.47867  -0.42761  -0.41562  -0.41138
 Alpha  occ. eigenvalues --   -0.40425  -0.40003  -0.37541  -0.37096  -0.36170
 Alpha  occ. eigenvalues --   -0.35688  -0.34965  -0.34330  -0.33327  -0.32661
 Alpha  occ. eigenvalues --   -0.31941  -0.31683  -0.30651  -0.30277  -0.29533
 Alpha  occ. eigenvalues --   -0.28939  -0.28816  -0.28587  -0.28018  -0.27445
 Alpha  occ. eigenvalues --   -0.26842  -0.26359  -0.25798  -0.24578  -0.23823
 Alpha  occ. eigenvalues --   -0.22434  -0.21387  -0.18662  -0.16688  -0.13113
 Alpha  occ. eigenvalues --   -0.12699   0.03973
 Alpha virt. eigenvalues --    0.05265   0.05995   0.06610   0.06965   0.07088
 Alpha virt. eigenvalues --    0.07608   0.08066   0.08533   0.08818   0.09109
 Alpha virt. eigenvalues --    0.09497   0.09813   0.10208   0.10495   0.11241

  Beta  occ. eigenvalues --  -19.06521 -19.03643 -14.20850 -10.14722 -10.14121
  Beta  occ. eigenvalues --  -10.13912 -10.13236 -10.10105 -10.10094 -10.09455
  Beta  occ. eigenvalues --  -10.09266 -10.09202 -10.08754 -10.08734 -10.08699
  Beta  occ. eigenvalues --  -10.07990 -10.07940 -10.07573 -10.07093  -0.98677
  Beta  occ. eigenvalues --   -0.94869  -0.82225  -0.77223  -0.72516  -0.70282
  Beta  occ. eigenvalues --   -0.68679  -0.67790  -0.65239  -0.61006  -0.60096
  Beta  occ. eigenvalues --   -0.58541  -0.55581  -0.52839  -0.51840  -0.50776
  Beta  occ. eigenvalues --   -0.49122  -0.47837  -0.42734  -0.41541  -0.41108
  Beta  occ. eigenvalues --   -0.40399  -0.39977  -0.37513  -0.37071  -0.36147
  Beta  occ. eigenvalues --   -0.35668  -0.34942  -0.34299  -0.33296  -0.32637
  Beta  occ. eigenvalues --   -0.31908  -0.31661  -0.30627  -0.30246  -0.29503
  Beta  occ. eigenvalues --   -0.28915  -0.28787  -0.28564  -0.27990  -0.27425
  Beta  occ. eigenvalues --   -0.26816  -0.26331  -0.25776  -0.24560  -0.23792
  Beta  occ. eigenvalues --   -0.22407  -0.21365  -0.18650  -0.16633  -0.13094
  Beta  occ. eigenvalues --   -0.12680
  Beta virt. eigenvalues --    0.05772   0.06235   0.06283   0.06979   0.07306
  Beta virt. eigenvalues --    0.07469   0.07975   0.08223   0.08832   0.09143
  Beta virt. eigenvalues --    0.09393   0.09714   0.10035   0.10436   0.10736

 Mulliken charges and spin densities:
               1          2
     1  C    1.873223  -2.409041
     2  C   -0.492889   0.841914
     3  C   -1.344759   1.362636
     4  C    0.723690  -0.200997
     5  C    0.272084  -0.601893
     6  C   -0.701128   0.494445
     7  C   -0.068556  -0.808825
     8  O   -0.038509  -0.011426
     9  C   -0.029186  -0.193115
    10  C    0.505546  -0.679878
    11  C   -0.453796   0.108480
    12  O    0.051431   0.002145
    13  C   -1.546544   1.577851
    14  C    1.319412  -1.766628
    15  C   -0.682742   0.572114
    16  C    0.308634  -0.802051
    17  N   -0.069085   0.053504
    18  C    0.098593  -0.893544
    19  C    0.595812  -0.916509
    20  H   -0.314040   0.459303
    21  H    0.021136   0.143877
    22  H   -0.148242   0.294398
    23  H   -0.267626   0.452853
    24  H   -0.021554   0.196167
    25  H   -0.185624   0.321777
    26  H    0.026629   0.204652
    27  H    0.204755  -0.022300
    28  H   -0.092052   0.283564
    29  H    0.053598   0.158983
    30  H    0.390859  -0.274681
    31  H   -0.316888   0.516769
    32  H    0.011161   0.148013
    33  H    0.070488   0.061708
    34  H   -0.630264   0.829786
    35  H   -0.123025   0.311661
    36  H   -0.039467   0.175583
    37  H    0.138670   0.092484
    38  H    0.124842   0.066854
    39  H   -0.074682   0.257594
    40  H   -0.017981   0.162424
    41  H   -0.053298   0.209040
    42  H   -0.078626   0.220310
 Sum of Mulliken charges =  -1.00000   1.00000

 Dipole moment (field-independent basis, Debye):
    X=              1.2714    Y=             -2.5467    Z=             -0.2492  Tot=              2.8573
 Quadrupole moment (field-independent basis, Debye-Ang):
   XX=           -234.2033   YY=           -163.3342   ZZ=           -157.4881
   XY=             -0.8531   XZ=             12.3318   YZ=             -0.9058

 Summary of Natural Population Analysis:

                                       Natural Population
                Natural  -----------------------------------------------
    Atom  No    Charge         Core      Valence    Rydberg      Total
 -----------------------------------------------------------------------
      C    1   -0.28950      0.99964     2.28485    0.00502     3.28950
      C    2   -0.02896      0.99953     2.01907    0.01036     3.02896
      C    3   -0.09039      0.99947     2.08159    0.00933     3.09039
      C    4   -0.04012      0.99947     2.03137    0.00928     3.04012
      C    5    0.15425      0.99932     1.83326    0.01317     2.84575
      C    6   -0.12365      0.99951     2.11513    0.00901     3.12365
      C    7   -0.09359      0.99953     2.08547    0.00859     3.09359
      O    8   -0.27840      0.99987     3.27071    0.00781     4.27840
      C    9    0.06660      0.99955     1.91954    0.01430     2.93340
      C   10   -0.20843      0.99959     2.20056    0.00828     3.20843
      C   11   -0.01611      0.99953     2.00499    0.01159     3.01611
      O   12   -0.31943      0.99986     3.30774    0.01183     4.31943
      C   13    0.13411      0.99950     1.85122    0.01517     2.86589
      C   14   -0.20861      0.99957     2.19842    0.01062     3.20861
      C   15   -0.20161      0.99963     2.19340    0.00858     3.20161
      C   16   -0.08799      0.99963     2.07706    0.01130     3.08799
      N   17   -0.33680      0.99976     2.82524    0.01179     3.83680
      C   18   -0.10034      0.99955     2.08849    0.01231     3.10034
      C   19   -0.28681      0.99960     2.27982    0.00739     3.28681
      H   20    0.10154      0.00000     0.39725    0.00121     0.39846
      H   21    0.10298      0.00000     0.39568    0.00135     0.39702
      H   22    0.10305      0.00000     0.39545    0.00150     0.39695
      H   23    0.10067      0.00000     0.39800    0.00133     0.39933
      H   24    0.10482      0.00000     0.39394    0.00125     0.39518
      H   25    0.09919      0.00000     0.39988    0.00092     0.40081
      H   26    0.09455      0.00000     0.40412    0.00134     0.40545
      H   27    0.11446      0.00000     0.38401    0.00153     0.38554
      H   28    0.10734      0.00000     0.39148    0.00118     0.39266
      H   29    0.08696      0.00000     0.41149    0.00155     0.41304
      H   30    0.07702      0.00000     0.42015    0.00283     0.42298
      H   31    0.10556      0.00000     0.39265    0.00179     0.39444
      H   32    0.10502      0.00000     0.39379    0.00119     0.39498
      H   33    0.09343      0.00000     0.40494    0.00163     0.40657
      H   34    0.10248      0.00000     0.39597    0.00155     0.39752
      H   35    0.09620      0.00000     0.40290    0.00091     0.40380
      H   36    0.08962      0.00000     0.40912    0.00126     0.41038
      H   37    0.17000      0.00000     0.32667    0.00334     0.33000
      H   38    0.10026      0.00000     0.39864    0.00110     0.39974
      H   39    0.09383      0.00000     0.40491    0.00125     0.40617
      H   40    0.10271      0.00000     0.39626    0.00102     0.39729
      H   41    0.10381      0.00000     0.39497    0.00123     0.39619
      H   42    0.10027      0.00000     0.39881    0.00093     0.39973
 =======================================================================
   * Total *   -0.00000     18.99211    51.77901    0.22888    71.00000

 Normal termination of Gaussian 16 at Mon Dec 14 15:16:12 2020.
