 Gaussian 16, Revision A.03,

 -----------------------------------------------------------
 # opt freq B3LYP/6-31G(d) empiricaldispersion=gd3bj scf=xqc
 -----------------------------------------------------------

 ------------------------------
 CID_59702678_JID_8460_neutraal
 ------------------------------
 Symbolic Z-matrix:
 Charge =  0 Multiplicity = 1

 SCF Done:  E(RB3LYP) =  -749.962217263     A.U. after   14 cycles
 SCF Done:  E(RB3LYP) =  -749.964654488     A.U. after   14 cycles
 SCF Done:  E(RB3LYP) =  -749.965297963     A.U. after   13 cycles
 SCF Done:  E(RB3LYP) =  -749.966274191     A.U. after   12 cycles
 SCF Done:  E(RB3LYP) =  -749.966697168     A.U. after   12 cycles
 SCF Done:  E(RB3LYP) =  -749.966921247     A.U. after   12 cycles
 SCF Done:  E(RB3LYP) =  -749.967002161     A.U. after   10 cycles
 SCF Done:  E(RB3LYP) =  -749.967090235     A.U. after   12 cycles
 SCF Done:  E(RB3LYP) =  -749.967107912     A.U. after    9 cycles
 SCF Done:  E(RB3LYP) =  -749.967118555     A.U. after   10 cycles
 SCF Done:  E(RB3LYP) =  -749.967121780     A.U. after    9 cycles
 SCF Done:  E(RB3LYP) =  -749.967122055     A.U. after    8 cycles
 SCF Done:  E(RB3LYP) =  -749.967122264     A.U. after    8 cycles
 SCF Done:  E(RB3LYP) =  -749.967122333     A.U. after    8 cycles
 SCF Done:  E(RB3LYP) =  -749.967122366     A.U. after    8 cycles
 SCF Done:  E(RB3LYP) =  -749.967122380     A.U. after    7 cycles
 Optimization completed.
    -- Stationary point found.
 Normal termination of Gaussian 16 at Mon Dec 14 13:24:08 2020.

 --------------------------------------------------------------------
 #N Geom=AllCheck Guess=TCheck SCRF=Check GenChk RB3LYP/6-31G(d) Freq
 --------------------------------------------------------------------

 Structure from the checkpoint file:  "JID_8460.chk"
 ------------------------------
 CID_59702678_JID_8460_neutraal
 ------------------------------
 Charge =  0 Multiplicity = 1

 SCF Done:  E(RB3LYP) =  -749.967122380     A.U. after    1 cycles

  Exact polarizability: 227.108 -13.208 183.632 -16.497  10.035 120.384
 Approx polarizability: 320.032 -13.893 303.513 -25.088  26.358 203.392

                      1                      2                      3
                      A                      A                      A
 Frequencies --     15.1883                29.5372                43.3267
 Red. masses --      3.6118                 3.2935                 4.4227
 Frc consts  --      0.0005                 0.0017                 0.0049
 IR Inten    --      0.2282                 0.1019                 0.0359

                      4                      5                      6
                      A                      A                      A
 Frequencies --     54.4307                78.1486                93.5654
 Red. masses --      3.9630                 4.4557                 3.4820
 Frc consts  --      0.0069                 0.0160                 0.0180
 IR Inten    --      0.1936                 0.3423                 0.6265

                      7                      8                      9
                      A                      A                      A
 Frequencies --    148.4002               171.7364               236.6234
 Red. masses --      5.1466                 5.1745                 4.4914
 Frc consts  --      0.0668                 0.0899                 0.1482
 IR Inten    --      1.4328                 2.1047                 0.5399

                     10                     11                     12
                      A                      A                      A
 Frequencies --    253.6375               258.5449               284.1570
 Red. masses --      1.1616                 2.8750                 1.0585
 Frc consts  --      0.0440                 0.1132                 0.0504
 IR Inten    --      0.1409                 0.8623                 0.5153

                     13                     14                     15
                      A                      A                      A
 Frequencies --    331.8625               346.3841               379.1663
 Red. masses --      3.2796                 3.2368                 2.5872
 Frc consts  --      0.2128                 0.2288                 0.2191
 IR Inten    --      0.6713                 1.4315                 0.1504

                     16                     17                     18
                      A                      A                      A
 Frequencies --    405.8835               416.3866               428.3564
 Red. masses --      5.3288                 3.1249                 3.1602
 Frc consts  --      0.5172                 0.3192                 0.3416
 IR Inten    --      2.4279                 1.1708                 0.4278

                     19                     20                     21
                      A                      A                      A
 Frequencies --    466.4599               485.7714               511.0610
 Red. masses --      4.8286                 3.1089                 3.9376
 Frc consts  --      0.6190                 0.4322                 0.6059
 IR Inten    --      8.3888                 2.0566                15.7420

                     22                     23                     24
                      A                      A                      A
 Frequencies --    527.9433               579.0962               601.7960
 Red. masses --      4.8174                 4.0774                 2.8650
 Frc consts  --      0.7911                 0.8056                 0.6113
 IR Inten    --      0.7918                 2.5753                14.4973

                     25                     26                     27
                      A                      A                      A
 Frequencies --    634.7802               650.8322               670.5248
 Red. masses --      6.2873                 5.6752                 4.5593
 Frc consts  --      1.4927                 1.4164                 1.2078
 IR Inten    --      0.5993                 4.5925                 5.1631

                     28                     29                     30
                      A                      A                      A
 Frequencies --    708.9407               731.5824               770.0584
 Red. masses --      2.2398                 2.4810                 2.8662
 Frc consts  --      0.6632                 0.7824                 1.0014
 IR Inten    --     18.4087                15.8055                 8.8400

                     31                     32                     33
                      A                      A                      A
 Frequencies --    793.5575               795.2871               845.5105
 Red. masses --      3.1336                 4.1049                 1.2734
 Frc consts  --      1.1626                 1.5297                 0.5364
 IR Inten    --     21.7386                 9.9676                 1.4280

                     34                     35                     36
                      A                      A                      A
 Frequencies --    846.7668               849.9264               863.7528
 Red. masses --      1.3136                 2.6454                 2.0474
 Frc consts  --      0.5549                 1.1259                 0.9000
 IR Inten    --      2.6938                 5.9147                20.9795

                     37                     38                     39
                      A                      A                      A
 Frequencies --    882.6261               912.3626               937.4577
 Red. masses --      2.8668                 1.6731                 1.3614
 Frc consts  --      1.3158                 0.8206                 0.7049
 IR Inten    --     35.4313                23.2254                 0.1982

                     40                     41                     42
                      A                      A                      A
 Frequencies --    951.0385               953.0442               958.6074
 Red. masses --      1.2571                 1.6058                 1.3322
 Frc consts  --      0.6699                 0.8593                 0.7213
 IR Inten    --      0.4411                16.9029                 0.0414

                     43                     44                     45
                      A                      A                      A
 Frequencies --    968.7175               977.4945               983.6212
 Red. masses --      1.9189                 1.4417                 1.2303
 Frc consts  --      1.0610                 0.8116                 0.7013
 IR Inten    --     37.9567                14.4286                 0.3402

                     46                     47                     48
                      A                      A                      A
 Frequencies --    992.9191              1018.3598              1037.3869
 Red. masses --      1.4516                 5.9170                 2.6245
 Frc consts  --      0.8432                 3.6154                 1.6641
 IR Inten    --      1.9622                 0.5319                 4.2249

                     49                     50                     51
                      A                      A                      A
 Frequencies --   1056.1569              1109.1690              1143.7002
 Red. masses --      2.1501                 1.5109                 1.3583
 Frc consts  --      1.4131                 1.0951                 1.0468
 IR Inten    --      3.3555                 6.8761                 4.3365

                     52                     53                     54
                      A                      A                      A
 Frequencies --   1158.8422              1166.6474              1190.4559
 Red. masses --      2.0922                 1.9014                 1.0974
 Frc consts  --      1.6554                 1.5247                 0.9163
 IR Inten    --      8.6823               116.1142                 0.4748

                     55                     56                     57
                      A                      A                      A
 Frequencies --   1198.2857              1203.0747              1212.9005
 Red. masses --      1.5628                 1.2061                 2.0046
 Frc consts  --      1.3222                 1.0286                 1.7375
 IR Inten    --     73.2169                64.2935                12.7384

                     58                     59                     60
                      A                      A                      A
 Frequencies --   1216.3888              1247.2779              1266.2908
 Red. masses --      2.0423                 2.6677                 3.2399
 Frc consts  --      1.7804                 2.4452                 3.0609
 IR Inten    --      2.6793                15.1084               242.3562

                     61                     62                     63
                      A                      A                      A
 Frequencies --   1332.6470              1336.8142              1345.5981
 Red. masses --      2.6582                 1.7478                 3.4496
 Frc consts  --      2.7815                 1.8403                 3.6800
 IR Inten    --      0.1959                 1.3815                12.3137

                     64                     65                     66
                      A                      A                      A
 Frequencies --   1363.2443              1381.4962              1413.4752
 Red. masses --      1.9728                 1.3237                 1.2661
 Frc consts  --      2.1601                 1.4885                 1.4904
 IR Inten    --      0.9379                 2.6361                 1.9598

                     67                     68                     69
                      A                      A                      A
 Frequencies --   1429.3835              1443.1284              1443.7344
 Red. masses --      1.3366                 1.9671                 1.2949
 Frc consts  --      1.6089                 2.4137                 1.5903
 IR Inten    --     14.3811                13.1999                12.9093

                     70                     71                     72
                      A                      A                      A
 Frequencies --   1481.2197              1497.1935              1513.9832
 Red. masses --      1.5905                 2.2926                 1.0484
 Frc consts  --      2.0559                 3.0278                 1.4159
 IR Inten    --      1.1157                 0.8995                 0.9497

                     73                     74                     75
                      A                      A                      A
 Frequencies --   1519.2815              1525.7542              1535.6748
 Red. masses --      1.0505                 1.0563                 2.1984
 Frc consts  --      1.4286                 1.4488                 3.0546
 IR Inten    --      1.9419                 8.5771                32.6849

                     76                     77                     78
                      A                      A                      A
 Frequencies --   1540.2492              1558.1127              1620.4851
 Red. masses --      1.0691                 2.3720                 6.2627
 Frc consts  --      1.4944                 3.3929                 9.6895
 IR Inten    --      2.8449                72.7191                 7.7097

                     79                     80                     81
                      A                      A                      A
 Frequencies --   1633.9101              1656.1911              1662.7687
 Red. masses --      5.6024                 5.6179                 5.6735
 Frc consts  --      8.8122                 9.0792                 9.2420
 IR Inten    --      5.7174               106.1440                77.5131

                     82                     83                     84
                      A                      A                      A
 Frequencies --   1731.4280              3055.2997              3060.2021
 Red. masses --     10.8554                 1.0349                 1.0354
 Frc consts  --     19.1736                 5.6918                 5.7130
 IR Inten    --    212.8068                13.7416                 6.8769

                     85                     86                     87
                      A                      A                      A
 Frequencies --   3083.9882              3091.4360              3123.4414
 Red. masses --      1.0873                 1.0866                 1.1021
 Frc consts  --      6.0930                 6.1185                 6.3348
 IR Inten    --     24.1299                50.5797                 0.4801

                     88                     89                     90
                      A                      A                      A
 Frequencies --   3130.6929              3134.7042              3138.5672
 Red. masses --      1.1017                 1.1037                 1.1024
 Frc consts  --      6.3620                 6.3899                 6.3982
 IR Inten    --     64.4023                15.9013                47.2543

                     91                     92                     93
                      A                      A                      A
 Frequencies --   3181.5957              3183.8506              3188.8903
 Red. masses --      1.0848                 1.0889                 1.0883
 Frc consts  --      6.4697                 6.5034                 6.5203
 IR Inten    --      3.1196                13.0385                 9.5268

                     94                     95                     96
                      A                      A                      A
 Frequencies --   3203.1655              3208.3918              3214.0123
 Red. masses --      1.0912                 1.0937                 1.0976
 Frc consts  --      6.5965                 6.6330                 6.6799
 IR Inten    --     21.9090                26.1959                12.7209

                     97                     98                     99
                      A                      A                      A
 Frequencies --   3219.7600              3222.4550              3253.8390
 Red. masses --      1.0902                 1.0930                 1.0921
 Frc consts  --      6.6589                 6.6873                 6.8127
 IR Inten    --      6.1303                12.5971                 1.6526

 - Thermochemistry -
 -------------------
 Temperature   298.150 Kelvin.  Pressure   1.00000 Atm.
 Atom     1 has atomic number  6 and mass  12.00000

 Molecular mass:   239.13101 amu.
 Principal axes and moments of inertia in atomic units:
                           1         2         3
     Eigenvalues --  2313.003598142.788629422.86150
           X            0.99991   0.00401  -0.01263
           Y           -0.00398   0.99999   0.00270
           Z            0.01264  -0.00265   0.99992
 This molecule is an asymmetric top.
 Rotational symmetry number  1.
 Warning -- assumption of classical behavior for rotation
           may cause significant error
 Rotational temperatures (Kelvin)      0.03745     0.01064     0.00919
 Rotational constants (GHZ):           0.78026     0.22164     0.19153
 Zero-point vibrational energy     769868.0 (Joules/Mol)
                                  184.00286 (Kcal/Mol)
 Warning -- explicit consideration of  24 degrees of freedom as
           vibrations may cause significant error
 Vibrational temperatures:     21.85    42.50    62.34    78.31   112.44
          (Kelvin)            134.62   213.51   247.09   340.45   364.93
                              371.99   408.84   477.48   498.37   545.54
                              583.98   599.09   616.31   671.13   698.92
                              735.30   759.59   833.19   865.85   913.31
                              936.40   964.74  1020.01  1052.58  1107.94
                             1141.75  1144.24  1216.50  1218.31  1222.85
                             1242.75  1269.90  1312.69  1348.79  1368.33
                             1371.22  1379.22  1393.77  1406.40  1415.21
                             1428.59  1465.19  1492.57  1519.57  1595.85
                             1645.53  1667.32  1678.55  1712.80  1724.07
                             1730.96  1745.09  1750.11  1794.55  1821.91
                             1917.38  1923.38  1936.02  1961.40  1987.66
                             2033.68  2056.56  2076.34  2077.21  2131.14
                             2154.13  2178.28  2185.91  2195.22  2209.49
                             2216.08  2241.78  2331.52  2350.83  2382.89
                             2392.35  2491.14  4395.89  4402.95  4437.17
                             4447.89  4493.94  4504.37  4510.14  4515.70
                             4577.61  4580.85  4588.10  4608.64  4616.16
                             4624.25  4632.52  4636.39  4681.55

 Zero-point correction=                           0.293227 (Hartree/Particle)
 Thermal correction to Energy=                    0.309368
 Thermal correction to Enthalpy=                  0.310312
 Thermal correction to Gibbs Free Energy=         0.247150
 Sum of electronic and zero-point Energies=           -749.673895
 Sum of electronic and thermal Energies=              -749.657754
 Sum of electronic and thermal Enthalpies=            -749.656810
 Sum of electronic and thermal Free Energies=         -749.719972

                     E (Thermal)             CV                S
                      KCal/Mol        Cal/Mol-Kelvin    Cal/Mol-Kelvin
 Total                  194.132             62.833            132.936
 Electronic               0.000              0.000              0.000
 Translational            0.889              2.981             42.317
 Rotational               0.889              2.981             33.539
 Vibrational            192.354             56.871             57.080
 Vibration     1          0.593              1.986              7.181
 Vibration     2          0.593              1.984              5.860
 Vibration     3          0.595              1.980              5.101
 Vibration     4          0.596              1.976              4.650
 Vibration     5          0.599              1.964              3.937
 Vibration     6          0.603              1.954              3.584
 Vibration     7          0.618              1.904              2.693
 Vibration     8          0.626              1.877              2.416
 Vibration     9          0.656              1.785              1.828
 Vibration    10          0.665              1.757              1.705
 Vibration    11          0.667              1.748              1.672
 Vibration    12          0.683              1.703              1.509
 Vibration    13          0.714              1.612              1.251
 Vibration    14          0.724              1.583              1.183
 Vibration    15          0.749              1.515              1.042
 Vibration    16          0.771              1.457              0.941
 Vibration    17          0.780              1.435              0.904
 Vibration    18          0.790              1.409              0.864
 Vibration    19          0.824              1.324              0.748
 Vibration    20          0.842              1.282              0.695
 Vibration    21          0.866              1.225              0.631
 Vibration    22          0.883              1.188              0.592
 Vibration    23          0.936              1.076              0.487
 Vibration    24          0.960              1.028              0.447

 Optimization completed.
    -- Stationary point found.
 Normal termination of Gaussian 16 at Mon Dec 14 13:39:22 2020.

 ----------------------------------------------------------------------
 # B3LYP/6-311++G(d,p) empiricaldispersion=gd3bj scf=xqc pop=npa geom=c
 heck
 ----------------------------------------------------------------------

 --------------------------------------
 CID_59702678_JID_8460_Energie_neutraal
 --------------------------------------
 Structure from the checkpoint file:  "JID_8460.chk"
 Charge =  0 Multiplicity = 1

 SCF Done:  E(RB3LYP) =  -750.162638802     A.U. after   15 cycles
 Normal termination of Gaussian 16 at Mon Dec 14 13:45:57 2020.

 ----------------------------------------------------------------------
 # B3LYP/6-311++G(d,p) empiricaldispersion=gd3bj scf=xqc pop=npa geom=c
 heck
 ----------------------------------------------------------------------

 ------------------------------------
 CID_59702678_JID_8460_Energie_kation
 ------------------------------------
 Structure from the checkpoint file:  "JID_8460.chk"
 Charge =  1 Multiplicity = 2

 SCF Done:  E(UB3LYP) =  -749.882129210     A.U. after   25 cycles
 Normal termination of Gaussian 16 at Mon Dec 14 14:02:18 2020.
 Gaussian 16:  ES64L-G16RevA.03 25-Dec-2016

 ----------------------------------------------------------------------
 # B3LYP/6-311++G(d,p) empiricaldispersion=gd3bj scf=xqc pop=npa geom=c
 heck
 ----------------------------------------------------------------------

 -----------------------------------
 CID_59702678_JID_8460_Energie_anion
 -----------------------------------
 Structure from the checkpoint file:  "JID_8460.chk"
 Charge = -1 Multiplicity = 2

                         Standard orientation:
 ---------------------------------------------------------------------
 Center     Atomic      Atomic             Coordinates (Angstroms)
 Number     Number       Type             X           Y           Z
 ---------------------------------------------------------------------
      1          6           0        4.502692    0.365719   -1.219538
      2          6           0        4.142622    1.056214    0.093130
      3          6           0        3.316381    2.321626   -0.120690
      4          8           0        3.506850    0.143633    1.027250
      5          6           0        2.297270   -0.402249    0.675922
      6          6           0        1.104041    0.234897    1.039779
      7          6           0       -0.123848   -0.337052    0.730305
      8          6           0       -0.188230   -1.572162    0.058724
      9          6           0        1.017298   -2.220134   -0.259073
     10          6           0        2.248157   -1.643981    0.034113
     11          6           0       -1.439988   -2.271359   -0.296521
     12          7           0       -2.644920   -1.858077   -0.397551
     13          6           0       -3.011094   -0.507203   -0.266147
     14          6           0       -3.816575   -0.107498    0.810092
     15          6           0       -4.223475    1.220745    0.922931
     16          6           0       -3.862689    2.158711   -0.046672
     17          6           0       -3.088715    1.753563   -1.136168
     18          6           0       -2.662273    0.432665   -1.249181
     19          1           0        3.604757    0.082670   -1.778619
     20          1           0        5.095235   -0.535347   -1.033180
     21          1           0        5.092556    1.042806   -1.846988
     22          1           0        5.063622    1.317120    0.623489
     23          1           0        2.381716    2.102364   -0.647152
     24          1           0        3.074208    2.792220    0.837178
     25          1           0        3.884117    3.038862   -0.723545
     26          1           0        1.154586    1.175422    1.577423
     27          1           0       -1.032978    0.169899    1.025091
     28          1           0        0.983295   -3.190546   -0.748401
     29          1           0        3.176117   -2.149445   -0.210119
     30          1           0       -1.297233   -3.336654   -0.508038
     31          1           0       -4.101884   -0.844730    1.554154
     32          1           0       -4.833324    1.521686    1.770537
     33          1           0       -4.189766    3.190546    0.040281
     34          1           0       -2.810109    2.471736   -1.902807
     35          1           0       -2.054731    0.113865   -2.090498
 ---------------------------------------------------------------------

 SCF Done:  E(UB3LYP) =  -750.170684357     A.U. after   29 cycles

 The electronic state is 2-A.
 Alpha  occ. eigenvalues --  -19.00971 -14.13866 -10.12371 -10.07456 -10.07373
 Alpha  occ. eigenvalues --  -10.06508 -10.06362 -10.05834 -10.05693 -10.05052
 Alpha  occ. eigenvalues --  -10.04715 -10.04430 -10.04360 -10.03437 -10.03401
 Alpha  occ. eigenvalues --  -10.03336 -10.02757 -10.02618  -0.92506  -0.78239
 Alpha  occ. eigenvalues --   -0.72377  -0.71280  -0.68122  -0.62639  -0.62354
 Alpha  occ. eigenvalues --   -0.61199  -0.59970  -0.59516  -0.52286  -0.49450
 Alpha  occ. eigenvalues --   -0.48610  -0.47586  -0.45248  -0.43049  -0.39491
 Alpha  occ. eigenvalues --   -0.38557  -0.37703  -0.36028  -0.34880  -0.33631
 Alpha  occ. eigenvalues --   -0.32699  -0.31906  -0.31707  -0.30448  -0.30353
 Alpha  occ. eigenvalues --   -0.29547  -0.29297  -0.27879  -0.27365  -0.26197
 Alpha  occ. eigenvalues --   -0.25578  -0.24831  -0.24295  -0.23686  -0.23078
 Alpha  occ. eigenvalues --   -0.21537  -0.21121  -0.17796  -0.15519  -0.15250
 Alpha  occ. eigenvalues --   -0.13817  -0.12284  -0.10382  -0.07985   0.04433
 Alpha virt. eigenvalues --    0.06512   0.07960   0.08799   0.09038   0.09614
 Alpha virt. eigenvalues --    0.09776   0.10278   0.10536   0.10945   0.11430
 Alpha virt. eigenvalues --    0.11663   0.12143   0.12438   0.13010   0.13514

  Beta  occ. eigenvalues --  -19.00966 -14.13383 -10.12313 -10.07450 -10.06989
  Beta  occ. eigenvalues --  -10.06507 -10.06360 -10.05842 -10.05691 -10.05015
  Beta  occ. eigenvalues --  -10.04446 -10.04407 -10.04310 -10.03497 -10.03490
  Beta  occ. eigenvalues --  -10.03201 -10.02670 -10.02418  -0.92358  -0.77539
  Beta  occ. eigenvalues --   -0.72169  -0.70986  -0.68026  -0.62567  -0.62081
  Beta  occ. eigenvalues --   -0.60981  -0.59649  -0.59467  -0.51850  -0.49291
  Beta  occ. eigenvalues --   -0.48522  -0.47451  -0.44840  -0.42816  -0.39355
  Beta  occ. eigenvalues --   -0.38382  -0.37588  -0.35878  -0.34737  -0.33431
  Beta  occ. eigenvalues --   -0.32622  -0.31766  -0.31590  -0.30331  -0.30316
  Beta  occ. eigenvalues --   -0.29523  -0.29202  -0.27712  -0.27108  -0.26159
  Beta  occ. eigenvalues --   -0.25361  -0.24646  -0.23932  -0.23331  -0.22889
  Beta  occ. eigenvalues --   -0.21209  -0.20751  -0.16435  -0.15321  -0.14752
  Beta  occ. eigenvalues --   -0.13675  -0.11611  -0.08777  -0.07445
  Beta virt. eigenvalues --    0.06522   0.07932   0.08694   0.08954   0.09472
  Beta virt. eigenvalues --    0.09743   0.10047   0.10337   0.10851   0.10909
  Beta virt. eigenvalues --    0.11577   0.11878   0.12171   0.12608   0.13088

 Mulliken charges and spin densities:
               1          2
     1  C   -0.533239  -0.074394
     2  C    0.283338  -0.091588
     3  C   -0.515498  -0.081205
     4  O   -0.116289   0.002845
     5  C   -0.694990   0.170201
     6  C    0.061449  -0.014097
     7  C    0.375041   0.182876
     8  C    0.606353  -0.043900
     9  C   -0.621552   0.125632
    10  C    0.013491   0.004953
    11  C   -0.719847   0.158130
    12  N    0.056474   0.220792
    13  C   -0.823498  -0.001186
    14  C    0.486722   0.019365
    15  C   -0.329549   0.001043
    16  C   -0.289588   0.027826
    17  C   -0.353294   0.003739
    18  C    0.128187  -0.002619
    19  H    0.168392  -0.000328
    20  H    0.131816   0.015663
    21  H    0.073368   0.030762
    22  H   -0.063013   0.235144
    23  H    0.166871   0.004154
    24  H    0.135478   0.009075
    25  H    0.077877   0.031454
    26  H    0.130188   0.021550
    27  H    0.173175  -0.013031
    28  H    0.115523   0.013514
    29  H    0.092941   0.029793
    30  H    0.097174   0.001283
    31  H    0.146389   0.013305
    32  H    0.129016   0.000438
    33  H    0.111502  -0.002261
    34  H    0.129717   0.001916
    35  H    0.169874  -0.000842
 Sum of Mulliken charges =  -1.00000   1.00000

 Dipole moment (field-independent basis, Debye):
    X=              2.7627    Y=              3.7579    Z=             -1.2568  Tot=              4.8305
 Quadrupole moment (field-independent basis, Debye-Ang):
   XX=           -165.6352   YY=           -127.5399   ZZ=           -119.5347
   XY=             -6.1309   XZ=            -11.9371   YZ=             -0.3541

 Summary of Natural Population Analysis:

                                       Natural Population
                Natural  -----------------------------------------------
    Atom  No    Charge         Core      Valence    Rydberg      Total
 -----------------------------------------------------------------------
      C    1   -0.30372      0.99964     2.29717    0.00691     3.30372
      C    2    0.07328      0.99956     1.91359    0.01358     2.92672
      C    3   -0.30390      0.99964     2.29728    0.00698     3.30390
      O    4   -0.30059      0.99986     3.29075    0.00998     4.30059
      C    5    0.20584      0.99936     1.78025    0.01454     2.79416
      C    6   -0.14719      0.99952     2.13956    0.00811     3.14719
      C    7   -0.04489      0.99953     2.03792    0.00744     3.04489
      C    8   -0.05393      0.99950     2.04684    0.00760     3.05393
      C    9   -0.05706      0.99955     2.04955    0.00797     3.05706
      C   10   -0.14667      0.99952     2.13873    0.00842     3.14667
      C   11    0.11246      0.99958     1.87425    0.01371     2.88754
      N   12   -0.17799      0.99963     2.66361    0.01475     3.67799
      C   13    0.08247      0.99947     1.90507    0.01299     2.91753
      C   14   -0.11180      0.99951     2.10314    0.00916     3.11180
      C   15   -0.10643      0.99957     2.09777    0.00909     3.10643
      C   16   -0.12761      0.99957     2.11770    0.01033     3.12761
      C   17   -0.10286      0.99958     2.09422    0.00906     3.10286
      C   18   -0.11320      0.99950     2.10523    0.00847     3.11320
      H   19    0.10617      0.00000     0.39297    0.00086     0.39383
      H   20    0.10140      0.00000     0.39770    0.00090     0.39860
      H   21    0.09549      0.00000     0.40381    0.00069     0.40451
      H   22    0.08409      0.00000     0.41435    0.00156     0.41591
      H   23    0.10685      0.00000     0.39222    0.00092     0.39315
      H   24    0.10210      0.00000     0.39700    0.00090     0.39790
      H   25    0.09538      0.00000     0.40393    0.00069     0.40462
      H   26    0.09688      0.00000     0.40190    0.00122     0.40312
      H   27    0.10194      0.00000     0.39650    0.00155     0.39806
      H   28    0.08958      0.00000     0.40872    0.00170     0.41042
      H   29    0.09534      0.00000     0.40315    0.00150     0.40466
      H   30    0.06887      0.00000     0.42925    0.00188     0.43113
      H   31    0.09996      0.00000     0.39855    0.00149     0.40004
      H   32    0.09241      0.00000     0.40653    0.00106     0.40759
      H   33    0.09222      0.00000     0.40674    0.00104     0.40778
      H   34    0.09312      0.00000     0.40583    0.00106     0.40688
      H   35    0.10196      0.00000     0.39674    0.00130     0.39804
 =======================================================================
   * Total *    0.00000     17.99209    45.80850    0.19940    64.00000

 Normal termination of Gaussian 16 at Mon Dec 14 14:21:42 2020.
