 Gaussian 16, Revision A.03,

 -----------------------------------------------------------
 # opt freq B3LYP/6-31G(d) empiricaldispersion=gd3bj scf=xqc
 -----------------------------------------------------------

 ------------------------------
 CID_21026294_JID_2055_neutraal
 ------------------------------
 Symbolic Z-matrix:
 Charge =  0 Multiplicity = 1

 SCF Done:  E(RB3LYP) =  -932.169729767     A.U. after   15 cycles
 SCF Done:  E(RB3LYP) =  -932.174103998     A.U. after   12 cycles
 SCF Done:  E(RB3LYP) =  -932.174571019     A.U. after   13 cycles
 SCF Done:  E(RB3LYP) =  -932.174787972     A.U. after   12 cycles
 SCF Done:  E(RB3LYP) =  -932.174947212     A.U. after   12 cycles
 SCF Done:  E(RB3LYP) =  -932.175032869     A.U. after   11 cycles
 SCF Done:  E(RB3LYP) =  -932.175145119     A.U. after   12 cycles
 SCF Done:  E(RB3LYP) =  -932.175186575     A.U. after   11 cycles
 SCF Done:  E(RB3LYP) =  -932.175216763     A.U. after   10 cycles
 SCF Done:  E(RB3LYP) =  -932.175255338     A.U. after   11 cycles
 SCF Done:  E(RB3LYP) =  -932.175310040     A.U. after    8 cycles
 SCF Done:  E(RB3LYP) =  -932.175310968     A.U. after    8 cycles
 SCF Done:  E(RB3LYP) =  -932.175311243     A.U. after    7 cycles
 SCF Done:  E(RB3LYP) =  -932.175311468     A.U. after    8 cycles
 SCF Done:  E(RB3LYP) =  -932.175311502     A.U. after    7 cycles
 Optimization completed.
    -- Stationary point found.
 Normal termination of Gaussian 16 at Wed Dec  9 16:49:42 2020.

 --------------------------------------------------------------------
 #N Geom=AllCheck Guess=TCheck SCRF=Check GenChk RB3LYP/6-31G(d) Freq
 --------------------------------------------------------------------

 Structure from the checkpoint file:  "JID_2055.chk"
 ------------------------------
 CID_21026294_JID_2055_neutraal
 ------------------------------
 Charge =  0 Multiplicity = 1

 SCF Done:  E(RB3LYP) =  -932.175311502     A.U. after    1 cycles

  Exact polarizability: 104.218   9.008 123.071  -6.968   7.039  89.673
 Approx polarizability: 140.201  21.879 203.436 -17.837  15.577 140.413

                      1                      2                      3
                      A                      A                      A
 Frequencies --     33.3116                43.3283                72.1458
 Red. masses --      6.5211                 6.1180                 4.6073
 Frc consts  --      0.0043                 0.0068                 0.0141
 IR Inten    --      2.0391                 4.2186                 0.6540

                      4                      5                      6
                      A                      A                      A
 Frequencies --     82.7198                98.9878               145.9149
 Red. masses --      3.8325                 2.4968                 2.7995
 Frc consts  --      0.0155                 0.0144                 0.0351
 IR Inten    --      0.1623                 6.1800                 1.1607

                      7                      8                      9
                      A                      A                      A
 Frequencies --    165.0975               180.1829               264.6166
 Red. masses --      1.1642                 1.2587                 5.6308
 Frc consts  --      0.0187                 0.0241                 0.2323
 IR Inten    --      0.6932                 2.0776                 2.4786

                     10                     11                     12
                      A                      A                      A
 Frequencies --    273.3843               301.5767               350.3941
 Red. masses --      3.1082                 3.0569                 2.9707
 Frc consts  --      0.1369                 0.1638                 0.2149
 IR Inten    --      2.9450                 6.4076                 1.5610

                     13                     14                     15
                      A                      A                      A
 Frequencies --    398.0270               473.2158               506.3173
 Red. masses --      2.9541                 3.4506                 2.9215
 Frc consts  --      0.2757                 0.4553                 0.4413
 IR Inten    --      2.0432                 7.3272                 6.7998

                     16                     17                     18
                      A                      A                      A
 Frequencies --    517.5697               564.5138               664.9304
 Red. masses --      4.1357                 4.0319                 6.8856
 Frc consts  --      0.6527                 0.7570                 1.7937
 IR Inten    --      2.8182                 0.8395                12.4998

                     19                     20                     21
                      A                      A                      A
 Frequencies --    716.9040               730.5352               754.3088
 Red. masses --      1.9190                 4.5889                 2.2669
 Frc consts  --      0.5811                 1.4429                 0.7599
 IR Inten    --     94.4973                10.2886                32.8518

                     22                     23                     24
                      A                      A                      A
 Frequencies --    774.7516               825.5116               847.7087
 Red. masses --      4.0139                 6.2603                 2.9653
 Frc consts  --      1.4195                 2.5136                 1.2555
 IR Inten    --      6.9149                 2.8314                 5.4748

                     25                     26                     27
                      A                      A                      A
 Frequencies --    939.4336               987.6530              1038.3407
 Red. masses --      1.9414                 2.1603                 1.8949
 Frc consts  --      1.0095                 1.2416                 1.2037
 IR Inten    --      3.3740                21.8869                18.4391

                     28                     29                     30
                      A                      A                      A
 Frequencies --   1047.7634              1056.7410              1065.1396
 Red. masses --      1.5122                 2.1709                 2.8034
 Frc consts  --      0.9781                 1.4283                 1.8739
 IR Inten    --      1.1569                57.8559                24.4957

                     31                     32                     33
                      A                      A                      A
 Frequencies --   1096.3181              1135.3655              1141.8898
 Red. masses --      2.9124                 2.5925                 2.0910
 Frc consts  --      2.0624                 1.9690                 1.6064
 IR Inten    --     83.0800                 0.8686                70.1556

                     34                     35                     36
                      A                      A                      A
 Frequencies --   1168.4042              1199.0484              1224.9855
 Red. masses --      1.2575                 2.1424                 1.1868
 Frc consts  --      1.0115                 1.8148                 1.0493
 IR Inten    --      2.0932                31.6128                24.3950

                     37                     38                     39
                      A                      A                      A
 Frequencies --   1294.1116              1312.0018              1334.9051
 Red. masses --      1.4192                 1.9360                 3.8959
 Frc consts  --      1.4004                 1.9635                 4.0904
 IR Inten    --     91.5800                85.7403                31.7584

                     40                     41                     42
                      A                      A                      A
 Frequencies --   1363.8932              1375.7441              1380.6701
 Red. masses --      1.6161                 1.4030                 1.8873
 Frc consts  --      1.7712                 1.5645                 2.1197
 IR Inten    --      4.1309                10.5513                67.6657

                     43                     44                     45
                      A                      A                      A
 Frequencies --   1421.8163              1433.5114              1461.0173
 Red. masses --      1.3014                 1.5643                 1.6095
 Frc consts  --      1.5500                 1.8940                 2.0242
 IR Inten    --     15.1049                42.6141                36.0986

                     46                     47                     48
                      A                      A                      A
 Frequencies --   1479.8080              1496.7930              1515.1284
 Red. masses --      1.4365                 1.0751                 1.0791
 Frc consts  --      1.8534                 1.4191                 1.4596
 IR Inten    --     48.9815                13.7676                19.9595

                     49                     50                     51
                      A                      A                      A
 Frequencies --   1520.6363              1522.0006              1541.0467
 Red. masses --      1.0425                 1.0649                 1.1198
 Frc consts  --      1.4203                 1.4534                 1.5668
 IR Inten    --      9.8172                11.9680                 6.0179

                     52                     53                     54
                      A                      A                      A
 Frequencies --   1563.9337              1576.9357              1888.3506
 Red. masses --      1.1475                 1.9142                11.7210
 Frc consts  --      1.6536                 2.8045                24.6252
 IR Inten    --     19.8000               282.3675               516.7062

                     55                     56                     57
                      A                      A                      A
 Frequencies --   3026.2454              3041.4797              3045.2248
 Red. masses --      1.0677                 1.0388                 1.0424
 Frc consts  --      5.7610                 5.6620                 5.6953
 IR Inten    --     39.7995                55.6172                17.8287

                     58                     59                     60
                      A                      A                      A
 Frequencies --   3076.5376              3080.4914              3098.0779
 Red. masses --      1.0683                 1.0937                 1.1048
 Frc consts  --      5.9576                 6.1149                 6.2475
 IR Inten    --     19.7745                33.2789                18.6989

                     61                     62                     63
                      A                      A                      A
 Frequencies --   3100.0214              3102.5920              3153.5907
 Red. masses --      1.0997                 1.0886                 1.0976
 Frc consts  --      6.2267                 6.1743                 6.4312
 IR Inten    --     16.6717                48.2136                10.3158

                     64                     65                     66
                      A                      A                      A
 Frequencies --   3173.4222              3192.9216              3562.8127
 Red. masses --      1.0988                 1.0967                 1.0760
 Frc consts  --      6.5198                 6.5875                 8.0474
 IR Inten    --      0.6235                 2.2771                26.8895

 - Thermochemistry -
 -------------------
 Temperature   298.150 Kelvin.  Pressure   1.00000 Atm.
 Atom     1 has atomic number  6 and mass  12.00000

 Molecular mass:   188.06195 amu.
 Principal axes and moments of inertia in atomic units:
                           1         2         3
     Eigenvalues --  1554.224672980.770783521.14894
           X            0.99912  -0.04173   0.00368
           Y            0.04181   0.99878  -0.02631
           Z           -0.00258   0.02644   0.99965
 This molecule is an asymmetric top.
 Rotational symmetry number  1.
 Warning -- assumption of classical behavior for rotation
           may cause significant error
 Rotational temperatures (Kelvin)      0.05573     0.02906     0.02460
 Rotational constants (GHZ):           1.16118     0.60546     0.51254
 Zero-point vibrational energy     520511.7 (Joules/Mol)
                                  124.40528 (Kcal/Mol)
 Warning -- explicit consideration of  17 degrees of freedom as
           vibrations may cause significant error
 Vibrational temperatures:     47.93    62.34   103.80   119.02   142.42
          (Kelvin)            209.94   237.54   259.24   380.72   393.34
                              433.90   504.14   572.67   680.85   728.48
                              744.67   812.21   956.69  1031.46  1051.08
                             1085.28  1114.69  1187.73  1219.66  1351.64
                             1421.01  1493.94  1507.50  1520.41  1532.50
                             1577.36  1633.54  1642.92  1681.07  1725.16
                             1762.48  1861.94  1887.68  1920.63  1962.34
                             1979.39  1986.48  2045.68  2062.50  2102.08
                             2129.11  2153.55  2179.93  2187.86  2189.82
                             2217.22  2250.15  2268.86  2716.92  4354.09
                             4376.01  4381.40  4426.45  4432.14  4457.44
                             4460.24  4463.94  4537.31  4565.85  4593.90
                             5126.09

 Zero-point correction=                           0.198252 (Hartree/Particle)
 Thermal correction to Energy=                    0.210913
 Thermal correction to Enthalpy=                  0.211857
 Thermal correction to Gibbs Free Energy=         0.157451
 Sum of electronic and zero-point Energies=           -931.977059
 Sum of electronic and thermal Energies=              -931.964398
 Sum of electronic and thermal Enthalpies=            -931.963454
 Sum of electronic and thermal Free Energies=         -932.017861

                     E (Thermal)             CV                S
                      KCal/Mol        Cal/Mol-Kelvin    Cal/Mol-Kelvin
 Total                  132.350             44.734            114.509
 Electronic               0.000              0.000              0.000
 Translational            0.889              2.981             41.601
 Rotational               0.889              2.981             31.168
 Vibrational            130.573             38.773             41.740
 Vibration     1          0.594              1.983              5.622
 Vibration     2          0.595              1.980              5.101
 Vibration     3          0.598              1.967              4.094
 Vibration     4          0.600              1.961              3.825
 Vibration     5          0.604              1.950              3.474
 Vibration     6          0.617              1.907              2.725
 Vibration     7          0.623              1.885              2.491
 Vibration     8          0.629              1.867              2.327
 Vibration     9          0.671              1.738              1.631
 Vibration    10          0.676              1.722              1.575
 Vibration    11          0.694              1.671              1.408
 Vibration    12          0.727              1.574              1.164
 Vibration    13          0.764              1.474              0.970
 Vibration    14          0.830              1.309              0.729
 Vibration    15          0.862              1.236              0.643
 Vibration    16          0.873              1.211              0.616
 Vibration    17          0.920              1.108              0.515

 Optimization completed.
    -- Stationary point found.
 Normal termination of Gaussian 16 at Wed Dec  9 16:55:32 2020.

 ----------------------------------------------------------------------
 # B3LYP/6-311++G(d,p) empiricaldispersion=gd3bj scf=xqc pop=npa geom=c
 heck
 ----------------------------------------------------------------------

 --------------------------------------
 CID_21026294_JID_2055_Energie_neutraal
 --------------------------------------
 Structure from the checkpoint file:  "JID_2055.chk"
 Charge =  0 Multiplicity = 1

 SCF Done:  E(RB3LYP) =  -932.357230069     A.U. after   14 cycles
 Normal termination of Gaussian 16 at Wed Dec  9 16:57:36 2020.

 ----------------------------------------------------------------------
 # B3LYP/6-311++G(d,p) empiricaldispersion=gd3bj scf=xqc pop=npa geom=c
 heck
 ----------------------------------------------------------------------

 ------------------------------------
 CID_21026294_JID_2055_Energie_kation
 ------------------------------------
 Structure from the checkpoint file:  "JID_2055.chk"
 Charge =  1 Multiplicity = 2

 SCF Done:  E(UB3LYP) =  -932.056236960     A.U. after   33 cycles
 SCF Done:  E(UB3LYP) =  -932.056236961     a.u. after    1 cycles
 Normal termination of Gaussian 16 at Wed Dec  9 17:08:04 2020.
 Gaussian 16:  ES64L-G16RevA.03 25-Dec-2016

 ----------------------------------------------------------------------
 # B3LYP/6-311++G(d,p) empiricaldispersion=gd3bj scf=xqc pop=npa geom=c
 heck
 ----------------------------------------------------------------------

 -----------------------------------
 CID_21026294_JID_2055_Energie_anion
 -----------------------------------
 Structure from the checkpoint file:  "JID_2055.chk"
 Charge = -1 Multiplicity = 2

                         Standard orientation:
 ---------------------------------------------------------------------
 Center     Atomic      Atomic             Coordinates (Angstroms)
 Number     Number       Type             X           Y           Z
 ---------------------------------------------------------------------
      1          6           0       -2.814672    0.838245    0.871179
      2          6           0       -2.033133    0.051945   -0.159204
      3         16           0       -2.415771   -1.522539   -0.546212
      4          7           0       -1.017284    0.694981   -0.779061
      5          6           0       -0.358930    1.926240   -0.377010
      6          6           0        1.020207    1.648865    0.234888
      7          6           0        1.001232    0.603429    1.374294
      8          7           0        1.534570   -0.558241    0.706165
      9          6           0        2.067100   -0.271080   -0.518312
     10          8           0        2.626747   -1.010017   -1.291006
     11          8           0        1.855416    1.070316   -0.782498
     12          6           0        1.509799   -1.891894    1.262403
     13          1           0       -3.670270    0.249637    1.197032
     14          1           0       -3.171283    1.787672    0.453102
     15          1           0       -2.203036    1.073253    1.751254
     16          1           0       -0.532040    0.140667   -1.477724
     17          1           0       -0.226324    2.570153   -1.253453
     18          1           0       -0.983631    2.460564    0.340834
     19          1           0        1.477247    2.592981    0.544188
     20          1           0        1.624665    0.906936    2.227152
     21          1           0       -0.012646    0.414461    1.745519
     22          1           0        2.061196   -1.933586    2.210205
     23          1           0        0.476472   -2.217820    1.429659
     24          1           0        1.984066   -2.558367    0.540495
 ---------------------------------------------------------------------

 SCF Done:  E(UB3LYP) =  -932.359604369     A.U. after   30 cycles

 The electronic state is 2-A.
 Alpha  occ. eigenvalues --  -88.66865 -19.06183 -18.99726 -14.24958 -14.23514
 Alpha  occ. eigenvalues --  -10.21627 -10.14320 -10.12430 -10.11748 -10.11622
 Alpha  occ. eigenvalues --  -10.10778 -10.06727  -7.75633  -5.71979  -5.71551
 Alpha  occ. eigenvalues --   -5.71166  -1.01325  -0.92676  -0.84974  -0.84775
 Alpha  occ. eigenvalues --   -0.69822  -0.65837  -0.63247  -0.60107  -0.57065
 Alpha  occ. eigenvalues --   -0.53010  -0.48303  -0.47111  -0.42468  -0.41514
 Alpha  occ. eigenvalues --   -0.39810  -0.37572  -0.36097  -0.35066  -0.34077
 Alpha  occ. eigenvalues --   -0.33255  -0.31828  -0.30650  -0.30265  -0.30045
 Alpha  occ. eigenvalues --   -0.29706  -0.29043  -0.25710  -0.23834  -0.22405
 Alpha  occ. eigenvalues --   -0.19909  -0.18830  -0.15187  -0.11159  -0.09101
 Alpha  occ. eigenvalues --    0.03825
 Alpha virt. eigenvalues --    0.06551   0.07611   0.08300   0.08978   0.10404
 Alpha virt. eigenvalues --    0.10825   0.11649   0.12087   0.12526   0.13439
 Alpha virt. eigenvalues --    0.13862   0.14544   0.14581   0.14835   0.15340

  Beta  occ. eigenvalues --  -88.66849 -19.06183 -18.99725 -14.24958 -14.23461
  Beta  occ. eigenvalues --  -10.21624 -10.14282 -10.12015 -10.11711 -10.11613
  Beta  occ. eigenvalues --  -10.10766 -10.06737  -7.75618  -5.71984  -5.71486
  Beta  occ. eigenvalues --   -5.71155  -1.01318  -0.92671  -0.84920  -0.84559
  Beta  occ. eigenvalues --   -0.69609  -0.65599  -0.63179  -0.60038  -0.56942
  Beta  occ. eigenvalues --   -0.52952  -0.48194  -0.46982  -0.42367  -0.41451
  Beta  occ. eigenvalues --   -0.39743  -0.37462  -0.35863  -0.34957  -0.34011
  Beta  occ. eigenvalues --   -0.33017  -0.31617  -0.30568  -0.30219  -0.29984
  Beta  occ. eigenvalues --   -0.29643  -0.28962  -0.25664  -0.23439  -0.21881
  Beta  occ. eigenvalues --   -0.19718  -0.18820  -0.15134  -0.10640  -0.09039
  Beta virt. eigenvalues --    0.07061   0.07956   0.08625   0.09181   0.09627
  Beta virt. eigenvalues --    0.10750   0.11347   0.11861   0.12337   0.12742
  Beta virt. eigenvalues --    0.13457   0.14112   0.14606   0.14725   0.15045

 Mulliken charges and spin densities:
               1          2
     1  C   -0.261018  -0.365775
     2  C    0.319876   0.150705
     3  S   -0.692485  -0.002745
     4  N    0.021417   0.043212
     5  C    1.029572  -1.426045
     6  C   -0.977221   1.040796
     7  C    1.151528  -1.477035
     8  N   -0.130989  -0.004887
     9  C    0.250330  -0.111641
    10  O   -0.384326  -0.003399
    11  O   -0.072654  -0.036209
    12  C    0.006284  -0.274556
    13  H    0.119268   0.024929
    14  H    0.159769  -0.010885
    15  H   -0.471203   0.641509
    16  H    0.251380   0.015092
    17  H    0.156596   0.041669
    18  H   -0.239358   0.399055
    19  H   -1.083890   1.371830
    20  H   -0.729623   0.948595
    21  H    0.312649  -0.157845
    22  H    0.013730   0.123786
    23  H    0.113602   0.049192
    24  H    0.136766   0.020653
 Sum of Mulliken charges =  -1.00000   1.00000

 Dipole moment (field-independent basis, Debye):
    X=             -0.4576    Y=             -1.3645    Z=             -1.1950  Tot=              1.8706
 Quadrupole moment (field-independent basis, Debye-Ang):
   XX=           -126.1234   YY=           -120.7574   ZZ=           -113.7962
   XY=            -13.7091   XZ=              1.1466   YZ=            -16.7323

 Summary of Natural Population Analysis:

                                       Natural Population
                Natural  -----------------------------------------------
    Atom  No    Charge         Core      Valence    Rydberg      Total
 -----------------------------------------------------------------------
      C    1   -0.32403      0.99960     2.31828    0.00614     3.32403
      C    2    0.12637      0.99965     1.85520    0.01878     2.87363
      S    3   -0.13144      4.99954     3.11771    0.01420     8.13144
      N    4   -0.30294      0.99963     2.79168    0.01163     3.80294
      C    5   -0.09645      0.99959     2.08429    0.01258     3.09645
      C    6    0.05626      0.99956     1.92714    0.01703     2.94374
      C    7   -0.08844      0.99961     2.07721    0.01162     3.08844
      N    8   -0.26092      0.99963     2.75192    0.00937     3.76092
      C    9    0.46238      0.99965     1.51129    0.02668     2.53762
      O   10   -0.32045      0.99986     3.31541    0.00517     4.32045
      O   11   -0.28785      0.99987     3.28081    0.00717     4.28785
      C   12   -0.17623      0.99965     2.16902    0.00756     3.17623
      H   13    0.11329      0.00000     0.38580    0.00091     0.38671
      H   14    0.10372      0.00000     0.39535    0.00092     0.39628
      H   15    0.11146      0.00000     0.38642    0.00212     0.38854
      H   16    0.19710      0.00000     0.30083    0.00207     0.30290
      H   17    0.10115      0.00000     0.39779    0.00105     0.39885
      H   18    0.10867      0.00000     0.38953    0.00180     0.39133
      H   19    0.10245      0.00000     0.39152    0.00603     0.39755
      H   20    0.09923      0.00000     0.39780    0.00297     0.40077
      H   21    0.10188      0.00000     0.39572    0.00240     0.39812
      H   22    0.09016      0.00000     0.40891    0.00093     0.40984
      H   23    0.10337      0.00000     0.39576    0.00086     0.39663
      H   24    0.11124      0.00000     0.38790    0.00086     0.38876
 =======================================================================
   * Total *   -0.00000     15.99583    33.83332    0.17085    50.00000

 Normal termination of Gaussian 16 at Wed Dec  9 17:17:10 2020.
