 Gaussian 16, Revision A.03,

 -----------------------------------------------------------
 # opt freq B3LYP/6-31G(d) empiricaldispersion=gd3bj scf=xqc
 -----------------------------------------------------------

 -------------------------------
 CID_113581217_JID_9579_neutraal
 -------------------------------
 Symbolic Z-matrix:
 Charge =  0 Multiplicity = 1

 SCF Done:  E(RB3LYP) =  -893.179222946     A.U. after   15 cycles
 SCF Done:  E(RB3LYP) =  -893.183756285     A.U. after   13 cycles
 SCF Done:  E(RB3LYP) =  -893.182483954     A.U. after   15 cycles
 SCF Done:  E(RB3LYP) =  -893.185668337     A.U. after   13 cycles
 SCF Done:  E(RB3LYP) =  -893.187513726     A.U. after   14 cycles
 SCF Done:  E(RB3LYP) =  -893.190670920     A.U. after   13 cycles
 SCF Done:  E(RB3LYP) =  -893.192927615     A.U. after   13 cycles
 SCF Done:  E(RB3LYP) =  -893.194431344     A.U. after   13 cycles
 SCF Done:  E(RB3LYP) =  -893.195393589     A.U. after   13 cycles
 SCF Done:  E(RB3LYP) =  -893.195660468     A.U. after   12 cycles
 SCF Done:  E(RB3LYP) =  -893.195710971     A.U. after   11 cycles
 SCF Done:  E(RB3LYP) =  -893.195723875     A.U. after   11 cycles
 SCF Done:  E(RB3LYP) =  -893.195726714     A.U. after   10 cycles
 SCF Done:  E(RB3LYP) =  -893.195727303     A.U. after    8 cycles
 SCF Done:  E(RB3LYP) =  -893.195727349     A.U. after    7 cycles
 Optimization completed.
    -- Stationary point found.
 Normal termination of Gaussian 16 at Sat Dec 12 09:56:12 2020.

 --------------------------------------------------------------------
 #N Geom=AllCheck Guess=TCheck SCRF=Check GenChk RB3LYP/6-31G(d) Freq
 --------------------------------------------------------------------

 Structure from the checkpoint file:  "JID_9579.chk"
 -------------------------------
 CID_113581217_JID_9579_neutraal
 -------------------------------
 Charge =  0 Multiplicity = 1

 SCF Done:  E(RB3LYP) =  -893.195727349     A.U. after    1 cycles

  Exact polarizability: 204.720  -6.941 186.401 -21.704  -3.410 103.480
 Approx polarizability: 302.123 -14.678 316.493 -38.331   0.047 168.798

                      1                      2                      3
                      A                      A                      A
 Frequencies --     33.9030                37.7513                53.9368
 Red. masses --      5.5010                 4.8361                 5.4950
 Frc consts  --      0.0037                 0.0041                 0.0094
 IR Inten    --      7.2837                 2.5345                 2.7394

                      4                      5                      6
                      A                      A                      A
 Frequencies --     67.6904                97.8849               108.8034
 Red. masses --      5.8289                 4.7243                 3.1267
 Frc consts  --      0.0157                 0.0267                 0.0218
 IR Inten    --      1.1012                 0.5901                12.7498

                      7                      8                      9
                      A                      A                      A
 Frequencies --    139.9969               189.4712               201.4835
 Red. masses --      4.2794                 2.4022                 3.2285
 Frc consts  --      0.0494                 0.0508                 0.0772
 IR Inten    --      3.1064                 3.2472                 1.5030

                     10                     11                     12
                      A                      A                      A
 Frequencies --    219.8944               233.7876               248.0566
 Red. masses --      2.8114                 2.8023                 3.3786
 Frc consts  --      0.0801                 0.0902                 0.1225
 IR Inten    --      1.1336                 1.1873                 2.7191

                     13                     14                     15
                      A                      A                      A
 Frequencies --    303.7701               327.3889               356.6705
 Red. masses --      5.6387                 4.2198                 5.3183
 Frc consts  --      0.3066                 0.2665                 0.3986
 IR Inten    --      1.7804                14.0099                 2.3653

                     16                     17                     18
                      A                      A                      A
 Frequencies --    362.9498               375.8772               426.8470
 Red. masses --      4.7303                 1.1058                 1.7330
 Frc consts  --      0.3671                 0.0920                 0.1860
 IR Inten    --      5.6364                32.9230                89.8109

                     19                     20                     21
                      A                      A                      A
 Frequencies --    430.7402               456.9017               467.6813
 Red. masses --      2.6670                 2.9841                 3.5545
 Frc consts  --      0.2915                 0.3670                 0.4581
 IR Inten    --     35.9192                47.5559                23.9388

                     22                     23                     24
                      A                      A                      A
 Frequencies --    487.7746               518.0940               542.4776
 Red. masses --      3.7492                 2.2528                 2.3613
 Frc consts  --      0.5256                 0.3563                 0.4094
 IR Inten    --      3.1007                45.4178                47.1377

                     25                     26                     27
                      A                      A                      A
 Frequencies --    549.0719               557.3784               586.2864
 Red. masses --      2.4995                 2.3141                 3.6869
 Frc consts  --      0.4440                 0.4236                 0.7467
 IR Inten    --    197.2183               156.4122                11.6965

                     28                     29                     30
                      A                      A                      A
 Frequencies --    594.2550               616.3047               632.6832
 Red. masses --      3.9665                 5.6009                 3.6067
 Frc consts  --      0.8253                 1.2534                 0.8506
 IR Inten    --      0.6976                16.8048                35.4076

                     31                     32                     33
                      A                      A                      A
 Frequencies --    645.7030               704.5153               735.2670
 Red. masses --      5.0394                 4.3860                 6.3039
 Frc consts  --      1.2379                 1.2826                 2.0079
 IR Inten    --      4.9980                15.3698                15.4516

                     34                     35                     36
                      A                      A                      A
 Frequencies --    741.9211               765.3247               784.9460
 Red. masses --      4.1718                 1.4121                 4.6094
 Frc consts  --      1.3530                 0.4873                 1.6733
 IR Inten    --      3.0406                55.1806                31.6777

                     37                     38                     39
                      A                      A                      A
 Frequencies --    792.6173               839.5393               843.6240
 Red. masses --      4.1307                 1.6990                 3.5630
 Frc consts  --      1.5290                 0.7055                 1.4940
 IR Inten    --     22.0618                16.8910                 3.2665

                     40                     41                     42
                      A                      A                      A
 Frequencies --    863.8500               873.6723               931.7203
 Red. masses --      2.8484                 2.7982                 1.3303
 Frc consts  --      1.2524                 1.2584                 0.6804
 IR Inten    --      2.1557                 3.6915                 1.5237

                     43                     44                     45
                      A                      A                      A
 Frequencies --    932.4375               965.4028               969.8064
 Red. masses --      1.3523                 1.2336                 5.4838
 Frc consts  --      0.6927                 0.6774                 3.0388
 IR Inten    --      2.8893                 0.0441                44.9919

                     46                     47                     48
                      A                      A                      A
 Frequencies --   1051.0064              1071.2934              1088.8976
 Red. masses --      7.6145                 2.0041                 1.6891
 Frc consts  --      4.9557                 1.3551                 1.1800
 IR Inten    --     46.9128                15.9924                 0.7599

                     49                     50                     51
                      A                      A                      A
 Frequencies --   1107.6644              1138.6678              1179.3979
 Red. masses --      1.7258                 1.7852                 1.2876
 Frc consts  --      1.2475                 1.3638                 1.0553
 IR Inten    --     14.6217                37.8940                17.7668

                     52                     53                     54
                      A                      A                      A
 Frequencies --   1186.1889              1191.8036              1198.3526
 Red. masses --      1.2079                 1.1466                 2.5018
 Frc consts  --      1.0013                 0.9596                 2.1167
 IR Inten    --      0.1772                 5.9896                35.1935

                     55                     56                     57
                      A                      A                      A
 Frequencies --   1214.8453              1234.4462              1272.0468
 Red. masses --      1.7174                 2.0997                 3.8058
 Frc consts  --      1.4934                 1.8852                 3.6283
 IR Inten    --     32.8761                37.3192               129.4157

                     58                     59                     60
                      A                      A                      A
 Frequencies --   1303.3466              1318.1770              1335.8344
 Red. masses --      1.8251                 3.2112                 3.3994
 Frc consts  --      1.8266                 3.2875                 3.5740
 IR Inten    --    104.4177               247.5464               133.1452

                     61                     62                     63
                      A                      A                      A
 Frequencies --   1356.0605              1360.1409              1417.5634
 Red. masses --      7.5684                 3.4883                 3.3923
 Frc consts  --      8.2000                 3.8022                 4.0163
 IR Inten    --     15.1862               290.3525                13.3129

                     64                     65                     66
                      A                      A                      A
 Frequencies --   1490.0440              1493.5104              1509.1300
 Red. masses --      5.2416                 1.5324                 1.7102
 Frc consts  --      6.8566                 2.0138                 2.2948
 IR Inten    --     92.9400                13.6321                40.0861

                     67                     68                     69
                      A                      A                      A
 Frequencies --   1523.9700              1530.0792              1536.8625
 Red. masses --      3.2485                 1.0838                 1.1368
 Frc consts  --      4.4451                 1.4950                 1.5820
 IR Inten    --    170.8676                17.7623                75.2994

                     70                     71                     72
                      A                      A                      A
 Frequencies --   1554.8345              1632.3675              1636.3475
 Red. masses --      2.6995                 5.6250                 3.0486
 Frc consts  --      3.8451                 8.8309                 4.8095
 IR Inten    --    132.2934                40.6732                51.2318

                     73                     74                     75
                      A                      A                      A
 Frequencies --   1646.3389              1649.6882              1665.5205
 Red. masses --      2.3716                 1.7154                 6.1902
 Frc consts  --      3.7873                 2.7506                10.1171
 IR Inten    --     49.7139                82.8683                31.7466

                     76                     77                     78
                      A                      A                      A
 Frequencies --   1684.2249              1790.8315              3038.4997
 Red. masses --      1.6232                 8.3200                 1.0368
 Frc consts  --      2.7129                15.7210                 5.6396
 IR Inten    --    187.5716               234.5378                66.3642

                     79                     80                     81
                      A                      A                      A
 Frequencies --   3119.5817              3157.8644              3189.5739
 Red. masses --      1.0971                 1.1079                 1.0891
 Frc consts  --      6.2906                 6.5096                 6.5281
 IR Inten    --     20.9130                18.7160                18.1978

                     82                     83                     84
                      A                      A                      A
 Frequencies --   3191.3379              3205.1243              3216.2415
 Red. masses --      1.0857                 1.0900                 1.0928
 Frc consts  --      6.5151                 6.5973                 6.6600
 IR Inten    --      2.0565                18.1286                20.4706

                     85                     86                     87
                      A                      A                      A
 Frequencies --   3216.9316              3221.5829              3570.6892
 Red. masses --      1.0930                 1.0965                 1.0466
 Frc consts  --      6.6641                 6.7050                 7.8617
 IR Inten    --     13.3133                 9.6104                47.4714

                     88                     89                     90
                      A                      A                      A
 Frequencies --   3576.0287              3678.8913              3692.7988
 Red. masses --      1.0463                 1.1005                 1.1014
 Frc consts  --      7.8833                 8.7757                 8.8491
 IR Inten    --     29.9119                28.1612                20.7484

 - Thermochemistry -
 -------------------
 Temperature   298.150 Kelvin.  Pressure   1.00000 Atm.
 Atom     1 has atomic number  6 and mass  12.00000

 Molecular mass:   259.09569 amu.
 Principal axes and moments of inertia in atomic units:
                           1         2         3
     Eigenvalues --  3361.660945754.514787687.51867
           X            0.99987  -0.01363  -0.00894
           Y            0.01347   0.99975  -0.01813
           Z            0.00919   0.01800   0.99980
 This molecule is an asymmetric top.
 Rotational symmetry number  1.
 Warning -- assumption of classical behavior for rotation
           may cause significant error
 Rotational temperatures (Kelvin)      0.02577     0.01505     0.01127
 Rotational constants (GHZ):           0.53686     0.31362     0.23476
 Zero-point vibrational energy     658309.7 (Joules/Mol)
                                  157.33980 (Kcal/Mol)
 Warning -- explicit consideration of  29 degrees of freedom as
           vibrations may cause significant error
 Vibrational temperatures:     48.78    54.32    77.60    97.39   140.83
          (Kelvin)            156.54   201.42   272.61   289.89   316.38
                              336.37   356.90   437.06   471.04   513.17
                              522.20   540.80   614.14   619.74   657.38
                              672.89   701.80   745.42   780.50   789.99
                              801.94   843.54   855.00   886.72   910.29
                              929.02  1013.64  1057.89  1067.46  1101.13
                             1129.36  1140.40  1207.91  1213.79  1242.89
                             1257.02  1340.54  1341.57  1389.00  1395.34
                             1512.16  1541.35  1566.68  1593.68  1638.29
                             1696.89  1706.66  1714.74  1724.16  1747.89
                             1776.09  1830.19  1875.23  1896.56  1921.97
                             1951.07  1956.94  2039.56  2143.84  2148.83
                             2171.30  2192.65  2201.44  2211.20  2237.06
                             2348.61  2354.34  2368.71  2373.53  2396.31
                             2423.22  2576.61  4371.72  4488.38  4543.46
                             4589.09  4591.62  4611.46  4627.45  4628.45
                             4635.14  5137.43  5145.11  5293.10  5313.11

 Zero-point correction=                           0.250737 (Hartree/Particle)
 Thermal correction to Energy=                    0.267733
 Thermal correction to Enthalpy=                  0.268677
 Thermal correction to Gibbs Free Energy=         0.205471
 Sum of electronic and zero-point Energies=           -892.944990
 Sum of electronic and thermal Energies=              -892.927994
 Sum of electronic and thermal Enthalpies=            -892.927050
 Sum of electronic and thermal Free Energies=         -892.990256

                     E (Thermal)             CV                S
                      KCal/Mol        Cal/Mol-Kelvin    Cal/Mol-Kelvin
 Total                  168.005             65.805            133.029
 Electronic               0.000              0.000              0.000
 Translational            0.889              2.981             42.556
 Rotational               0.889              2.981             33.364
 Vibrational            166.228             59.843             57.109
 Vibration     1          0.594              1.983              5.587
 Vibration     2          0.594              1.982              5.374
 Vibration     3          0.596              1.976              4.668
 Vibration     4          0.598              1.970              4.219
 Vibration     5          0.603              1.951              3.496
 Vibration     6          0.606              1.942              3.290
 Vibration     7          0.615              1.913              2.804
 Vibration     8          0.633              1.854              2.233
 Vibration     9          0.638              1.838              2.120
 Vibration    10          0.647              1.811              1.960
 Vibration    11          0.654              1.789              1.850
 Vibration    12          0.662              1.766              1.744
 Vibration    13          0.695              1.667              1.396
 Vibration    14          0.711              1.621              1.273
 Vibration    15          0.732              1.562              1.137
 Vibration    16          0.737              1.549              1.109
 Vibration    17          0.747              1.522              1.056
 Vibration    18          0.789              1.412              0.869
 Vibration    19          0.792              1.403              0.856
 Vibration    20          0.815              1.346              0.775
 Vibration    21          0.825              1.322              0.744
 Vibration    22          0.844              1.277              0.689
 Vibration    23          0.873              1.210              0.614
 Vibration    24          0.898              1.156              0.560
 Vibration    25          0.904              1.142              0.546
 Vibration    26          0.913              1.124              0.529
 Vibration    27          0.943              1.061              0.474
 Vibration    28          0.952              1.044              0.460
 Vibration    29          0.976              0.997              0.422

 Optimization completed.
    -- Stationary point found.
 Normal termination of Gaussian 16 at Sat Dec 12 10:11:52 2020.

 ----------------------------------------------------------------------
 # B3LYP/6-311++G(d,p) empiricaldispersion=gd3bj scf=xqc pop=npa geom=c
 heck
 ----------------------------------------------------------------------

 ---------------------------------------
 CID_113581217_JID_9579_Energie_neutraal
 ---------------------------------------
 Structure from the checkpoint file:  "JID_9579.chk"
 Charge =  0 Multiplicity = 1

 SCF Done:  E(RB3LYP) =  -893.454273274     A.U. after   16 cycles
 Normal termination of Gaussian 16 at Sat Dec 12 10:18:09 2020.

 ----------------------------------------------------------------------
 # B3LYP/6-311++G(d,p) empiricaldispersion=gd3bj scf=xqc pop=npa geom=c
 heck
 ----------------------------------------------------------------------

 -------------------------------------
 CID_113581217_JID_9579_Energie_kation
 -------------------------------------
 Structure from the checkpoint file:  "JID_9579.chk"
 Charge =  1 Multiplicity = 2

 SCF Done:  E(UB3LYP) =  -893.176932206     A.U. after   24 cycles
 Normal termination of Gaussian 16 at Sat Dec 12 10:30:55 2020.
 Gaussian 16:  ES64L-G16RevA.03 25-Dec-2016

 ----------------------------------------------------------------------
 # B3LYP/6-311++G(d,p) empiricaldispersion=gd3bj scf=xqc pop=npa geom=c
 heck
 ----------------------------------------------------------------------

 ------------------------------------
 CID_113581217_JID_9579_Energie_anion
 ------------------------------------
 Structure from the checkpoint file:  "JID_9579.chk"
 Charge = -1 Multiplicity = 2

                         Standard orientation:
 ---------------------------------------------------------------------
 Center     Atomic      Atomic             Coordinates (Angstroms)
 Number     Number       Type             X           Y           Z
 ---------------------------------------------------------------------
      1          6           0        0.636143   -1.829260    1.920204
      2          8           0        1.152737   -0.506355    1.747167
      3          6           0        2.018916   -0.341333    0.707100
      4          6           0        3.103599   -1.187707    0.463271
      5          6           0        3.988396   -0.921684   -0.582266
      6          6           0        3.800385    0.192073   -1.399336
      7          6           0        2.708785    1.031916   -1.176243
      8          6           0        1.824223    0.758228   -0.141190
      9          8           0        0.777929    1.650869    0.066622
     10          6           0       -0.514859    1.207932   -0.034860
     11          6           0       -1.490142    2.222238    0.170944
     12          6           0       -2.818997    1.821200    0.048323
     13          6           0       -3.116321    0.485270   -0.233016
     14          6           0       -2.074744   -0.428666   -0.385617
     15          7           0       -0.785286   -0.040193   -0.302878
     16          6           0       -2.281371   -1.896168   -0.626624
     17          8           0       -1.376796   -2.649490   -0.956659
     18          7           0       -3.578815   -2.351093   -0.477131
     19          7           0       -1.089489    3.521739    0.408323
     20          1           0       -0.180002   -1.736535    2.640336
     21          1           0        1.394084   -2.506990    2.332936
     22          1           0        0.253585   -2.215438    0.970795
     23          1           0        3.259319   -2.049009    1.103985
     24          1           0        4.828956   -1.588103   -0.752352
     25          1           0        4.488204    0.402465   -2.212348
     26          1           0        2.517472    1.895327   -1.805326
     27          1           0       -3.615046    2.551793    0.164752
     28          1           0       -4.150950    0.185503   -0.358829
     29          1           0       -4.202517   -1.875045    0.158657
     30          1           0       -3.665351   -3.358923   -0.498868
     31          1           0       -0.136033    3.619242    0.731190
     32          1           0       -1.751627    4.118102    0.885712
 ---------------------------------------------------------------------

 SCF Done:  E(UB3LYP) =  -893.452045503     A.U. after   33 cycles
 SCF Done:  E(UB3LYP) =  -893.452045504     a.u. after    1 cycles

 The electronic state is 2-A.
 Alpha  occ. eigenvalues --  -19.05904 -19.04473 -18.95132 -14.20445 -14.20299
 Alpha  occ. eigenvalues --  -14.17400 -10.13940 -10.13923 -10.13831 -10.13142
 Alpha  occ. eigenvalues --  -10.11200 -10.08956 -10.08909 -10.08642 -10.08584
 Alpha  occ. eigenvalues --  -10.08570 -10.06923 -10.05730 -10.05527  -0.98616
 Alpha  occ. eigenvalues --   -0.95803  -0.90430  -0.82382  -0.79743  -0.77546
 Alpha  occ. eigenvalues --   -0.76428  -0.67230  -0.66563  -0.66186  -0.62521
 Alpha  occ. eigenvalues --   -0.59528  -0.55390  -0.52389  -0.51639  -0.49205
 Alpha  occ. eigenvalues --   -0.46897  -0.44729  -0.42762  -0.42047  -0.40390
 Alpha  occ. eigenvalues --   -0.39937  -0.39763  -0.37902  -0.36497  -0.35450
 Alpha  occ. eigenvalues --   -0.34372  -0.34058  -0.33041  -0.32507  -0.31279
 Alpha  occ. eigenvalues --   -0.30021  -0.29342  -0.28509  -0.27921  -0.27828
 Alpha  occ. eigenvalues --   -0.27275  -0.26181  -0.24441  -0.23372  -0.21588
 Alpha  occ. eigenvalues --   -0.20211  -0.16372  -0.15715  -0.14711  -0.14553
 Alpha  occ. eigenvalues --   -0.13571  -0.12570  -0.09268   0.04424
 Alpha virt. eigenvalues --    0.06629   0.06860   0.07190   0.07546   0.08016
 Alpha virt. eigenvalues --    0.08484   0.08985   0.09554   0.10401   0.10618
 Alpha virt. eigenvalues --    0.10954   0.11954   0.12425   0.12603   0.13828

  Beta  occ. eigenvalues --  -19.05915 -19.04470 -18.94968 -14.20364 -14.20250
  Beta  occ. eigenvalues --  -14.17177 -10.13992 -10.13936 -10.13832 -10.12998
  Beta  occ. eigenvalues --  -10.11194 -10.08909 -10.08712 -10.08639 -10.08582
  Beta  occ. eigenvalues --  -10.08569 -10.06786 -10.05736 -10.05502  -0.98629
  Beta  occ. eigenvalues --   -0.95800  -0.90124  -0.82102  -0.79486  -0.77400
  Beta  occ. eigenvalues --   -0.76419  -0.67148  -0.66423  -0.66178  -0.62286
  Beta  occ. eigenvalues --   -0.59494  -0.55256  -0.52054  -0.51619  -0.49170
  Beta  occ. eigenvalues --   -0.46678  -0.44667  -0.42678  -0.41990  -0.40316
  Beta  occ. eigenvalues --   -0.39911  -0.39586  -0.37885  -0.36478  -0.35428
  Beta  occ. eigenvalues --   -0.34261  -0.33909  -0.33013  -0.32333  -0.31050
  Beta  occ. eigenvalues --   -0.29897  -0.29184  -0.28144  -0.27765  -0.27713
  Beta  occ. eigenvalues --   -0.26946  -0.26070  -0.24419  -0.23124  -0.20957
  Beta  occ. eigenvalues --   -0.20045  -0.16314  -0.15159  -0.14421  -0.14105
  Beta  occ. eigenvalues --   -0.13497  -0.12384  -0.08514
  Beta virt. eigenvalues --    0.06557   0.07331   0.07637   0.07768   0.08174
  Beta virt. eigenvalues --    0.08440   0.09054   0.09120   0.09866   0.10509
  Beta virt. eigenvalues --    0.10782   0.11137   0.12044   0.12597   0.12775

 Mulliken charges and spin densities:
               1          2
     1  C   -0.258705  -0.067446
     2  O   -0.067301  -0.006769
     3  C    0.094771  -0.040292
     4  C    0.302839  -0.112429
     5  C   -0.199032  -0.036629
     6  C   -0.320315   0.002609
     7  C    0.262848   0.072192
     8  C   -0.462075   0.025512
     9  O   -0.006935  -0.011717
    10  C   -0.023088  -0.786216
    11  C    0.478738  -0.282576
    12  C   -0.079127   0.220744
    13  C    0.160460  -0.451318
    14  C   -0.549324   0.678726
    15  N    0.110244   0.133480
    16  C    0.246055  -0.296666
    17  O   -0.387025   0.057360
    18  N   -0.314673  -0.028084
    19  N   -0.405933   0.029167
    20  H    0.059336   0.071785
    21  H    0.041100   0.058246
    22  H    0.238059  -0.032787
    23  H    0.126827   0.005015
    24  H    0.135811   0.007158
    25  H    0.138741   0.001636
    26  H    0.151833   0.002674
    27  H   -0.572509   0.730415
    28  H    0.112276   0.022437
    29  H   -0.122601   0.333181
    30  H    0.194288   0.086993
    31  H    0.177670   0.090279
    32  H   -0.263253   0.523323
 Sum of Mulliken charges =  -1.00000   1.00000

 Dipole moment (field-independent basis, Debye):
    X=              7.2824    Y=             -2.0714    Z=             -0.0685  Tot=              7.5716
 Quadrupole moment (field-independent basis, Debye-Ang):
   XX=           -152.4187   YY=           -157.7103   ZZ=           -130.1552
   XY=              6.1714   XZ=              1.4724   YZ=            -13.4604

 Summary of Natural Population Analysis:

                                       Natural Population
                Natural  -----------------------------------------------
    Atom  No    Charge         Core      Valence    Rydberg      Total
 -----------------------------------------------------------------------
      C    1   -0.10545      0.99959     2.09758    0.00827     3.10545
      O    2   -0.27703      0.99986     3.26791    0.00927     4.27703
      C    3    0.15370      0.99932     1.83310    0.01388     2.84630
      C    4   -0.12545      0.99953     2.11853    0.00739     3.12545
      C    5   -0.10583      0.99958     2.09748    0.00877     3.10583
      C    6   -0.11288      0.99958     2.10449    0.00881     3.11288
      C    7   -0.11079      0.99952     2.10301    0.00827     3.11079
      C    8    0.14348      0.99930     1.84434    0.01288     2.85652
      O    9   -0.28005      0.99984     3.27053    0.00969     4.28005
      C   10    0.23974      0.99941     1.74379    0.01706     2.76026
      C   11    0.09698      0.99946     1.89193    0.01162     2.90302
      C   12   -0.11991      0.99954     2.10995    0.01042     3.11991
      C   13   -0.10695      0.99954     2.09800    0.00940     3.10695
      C   14    0.05325      0.99949     1.93363    0.01363     2.94675
      N   15   -0.20413      0.99961     2.69501    0.00951     3.70413
      C   16    0.34035      0.99967     1.63566    0.02432     2.65965
      O   17   -0.30840      0.99988     3.30279    0.00574     4.30840
      N   18   -0.41270      0.99972     2.90473    0.00825     3.91270
      N   19   -0.39019      0.99971     2.88020    0.01028     3.89019
      H   20    0.09111      0.00000     0.40784    0.00105     0.40889
      H   21    0.07205      0.00000     0.42680    0.00115     0.42795
      H   22    0.11091      0.00000     0.38779    0.00130     0.38909
      H   23    0.10201      0.00000     0.39660    0.00139     0.39799
      H   24    0.09672      0.00000     0.40236    0.00092     0.40328
      H   25    0.09738      0.00000     0.40167    0.00095     0.40262
      H   26    0.10645      0.00000     0.39261    0.00094     0.39355
      H   27    0.09985      0.00000     0.39891    0.00124     0.40015
      H   28    0.09958      0.00000     0.39925    0.00118     0.40042
      H   29    0.18891      0.00000     0.30779    0.00329     0.31109
      H   30    0.18666      0.00000     0.31116    0.00218     0.31334
      H   31    0.19220      0.00000     0.30580    0.00200     0.30780
      H   32    0.18844      0.00000     0.30616    0.00540     0.31156
 =======================================================================
   * Total *    0.00000     18.99214    48.77740    0.23046    68.00000

 Normal termination of Gaussian 16 at Sat Dec 12 10:48:34 2020.
