 Gaussian 16, Revision A.03,

 -----------------------------------------------------------
 # opt freq B3LYP/6-31G(d) empiricaldispersion=gd3bj scf=xqc
 -----------------------------------------------------------

 ------------------------------
 CID_80937639_JID_9573_neutraal
 ------------------------------
 Symbolic Z-matrix:
 Charge =  0 Multiplicity = 1

 SCF Done:  E(RB3LYP) =  -832.356821787     A.U. after   15 cycles
 SCF Done:  E(RB3LYP) =  -832.363476418     A.U. after   13 cycles
 SCF Done:  E(RB3LYP) =  -832.366840150     A.U. after   13 cycles
 SCF Done:  E(RB3LYP) =  -832.369536007     A.U. after   14 cycles
 SCF Done:  E(RB3LYP) =  -832.370377836     A.U. after   12 cycles
 SCF Done:  E(RB3LYP) =  -832.370634874     A.U. after   12 cycles
 SCF Done:  E(RB3LYP) =  -832.370784571     A.U. after   12 cycles
 SCF Done:  E(RB3LYP) =  -832.370947573     A.U. after   12 cycles
 SCF Done:  E(RB3LYP) =  -832.371128684     A.U. after   12 cycles
 SCF Done:  E(RB3LYP) =  -832.371238809     A.U. after   11 cycles
 SCF Done:  E(RB3LYP) =  -832.371340985     A.U. after   10 cycles
 SCF Done:  E(RB3LYP) =  -832.371341761     A.U. after    8 cycles
 SCF Done:  E(RB3LYP) =  -832.371341887     A.U. after    8 cycles
 SCF Done:  E(RB3LYP) =  -832.371341960     A.U. after    7 cycles
 SCF Done:  E(RB3LYP) =  -832.371341984     A.U. after    7 cycles
 Optimization completed.
    -- Stationary point found.
 Normal termination of Gaussian 16 at Sun Dec 13 12:41:48 2020.

 --------------------------------------------------------------------
 #N Geom=AllCheck Guess=TCheck SCRF=Check GenChk RB3LYP/6-31G(d) Freq
 --------------------------------------------------------------------

 Structure from the checkpoint file:  "JID_9573.chk"
 ------------------------------
 CID_80937639_JID_9573_neutraal
 ------------------------------
 Charge =  0 Multiplicity = 1

 SCF Done:  E(RB3LYP) =  -832.371341984     A.U. after    1 cycles

  Exact polarizability: 299.412   1.648 187.348  -4.129   9.044  77.230
 Approx polarizability: 411.336  -1.511 311.627  -9.096  21.552 118.519

                      1                      2                      3
                      A                      A                      A
 Frequencies --     18.4584                23.3189                32.6745
 Red. masses --      4.2541                 3.1103                 5.4146
 Frc consts  --      0.0009                 0.0010                 0.0034
 IR Inten    --      1.5555                 0.3405                 0.1203

                      4                      5                      6
                      A                      A                      A
 Frequencies --     77.3417               105.4794               115.9420
 Red. masses --      5.8737                 4.9876                 3.5455
 Frc consts  --      0.0207                 0.0327                 0.0281
 IR Inten    --      2.4191                 1.7441                 2.0933

                      7                      8                      9
                      A                      A                      A
 Frequencies --    138.9019               143.9771               160.1953
 Red. masses --      5.3794                 5.0515                 1.3816
 Frc consts  --      0.0612                 0.0617                 0.0209
 IR Inten    --      3.0976                 4.0051                14.8866

                     10                     11                     12
                      A                      A                      A
 Frequencies --    189.0390               197.3299               222.9470
 Red. masses --      2.3586                 3.5730                 3.4228
 Frc consts  --      0.0497                 0.0820                 0.1002
 IR Inten    --      0.9624                 9.0147                 0.6120

                     13                     14                     15
                      A                      A                      A
 Frequencies --    229.8918               247.5943               267.7579
 Red. masses --      2.1529                 4.0688                 3.1900
 Frc consts  --      0.0670                 0.1470                 0.1347
 IR Inten    --      6.1673                 0.7925                 1.6868

                     16                     17                     18
                      A                      A                      A
 Frequencies --    276.1744               318.1759               396.6804
 Red. masses --      3.5176                 4.0370                 4.7660
 Frc consts  --      0.1581                 0.2408                 0.4419
 IR Inten    --      2.2872                 3.6420                 4.9430

                     19                     20                     21
                      A                      A                      A
 Frequencies --    397.5143               469.2289               482.8783
 Red. masses --      2.6778                 5.9010                 2.4086
 Frc consts  --      0.2493                 0.7655                 0.3309
 IR Inten    --     44.8337                15.8999                85.2463

                     22                     23                     24
                      A                      A                      A
 Frequencies --    486.1425               493.1994               526.4946
 Red. masses --      3.7613                 2.1719                 1.1522
 Frc consts  --      0.5237                 0.3113                 0.1882
 IR Inten    --      5.6629               123.7998                52.2604

                     25                     26                     27
                      A                      A                      A
 Frequencies --    570.3339               578.7081               612.3449
 Red. masses --      7.4281                 4.5615                 6.2668
 Frc consts  --      1.4236                 0.9001                 1.3845
 IR Inten    --      4.6942                 8.2279                10.5315

                     28                     29                     30
                      A                      A                      A
 Frequencies --    628.7490               686.8496               696.2242
 Red. masses --      6.4473                 5.5592                 2.6878
 Frc consts  --      1.5017                 1.5452                 0.7676
 IR Inten    --      5.9538                 2.5761                 1.5956

                     31                     32                     33
                      A                      A                      A
 Frequencies --    701.8772               706.7466               715.1355
 Red. masses --      3.1676                 3.9783                 4.1408
 Frc consts  --      0.9194                 1.1708                 1.2477
 IR Inten    --     10.0422                17.9128                13.7745

                     34                     35                     36
                      A                      A                      A
 Frequencies --    777.4659               786.0106               809.8875
 Red. masses --      2.5585                 2.0522                 1.3887
 Frc consts  --      0.9112                 0.7470                 0.5367
 IR Inten    --      1.7815                22.4501                14.9852

                     37                     38                     39
                      A                      A                      A
 Frequencies --    815.9059               819.5439               875.2475
 Red. masses --      2.1065                 2.5889                 1.5623
 Frc consts  --      0.8262                 1.0245                 0.7052
 IR Inten    --     19.1894                27.9044                22.2968

                     40                     41                     42
                      A                      A                      A
 Frequencies --    925.9100               928.4718               952.9565
 Red. masses --      1.3442                 4.0577                 2.5367
 Frc consts  --      0.6790                 2.0609                 1.3572
 IR Inten    --      0.4296                15.8752                37.1449

                     43                     44                     45
                      A                      A                      A
 Frequencies --    991.3237              1000.9051              1003.0520
 Red. masses --      2.6996                 1.2796                 8.3189
 Frc consts  --      1.5631                 0.7553                 4.9313
 IR Inten    --     63.5362                 1.3266                12.4242

                     46                     47                     48
                      A                      A                      A
 Frequencies --   1017.6341              1051.7346              1075.1209
 Red. masses --      5.7669                 1.9800                 3.0763
 Frc consts  --      3.5186                 1.2904                 2.0951
 IR Inten    --     15.0140                 8.1322                22.1122

                     49                     50                     51
                      A                      A                      A
 Frequencies --   1107.8191              1126.4356              1137.7541
 Red. masses --      2.1263                 1.7075                 1.9263
 Frc consts  --      1.5375                 1.2765                 1.4691
 IR Inten    --     11.8364                 1.1412                 6.2572

                     52                     53                     54
                      A                      A                      A
 Frequencies --   1193.9061              1202.0000              1211.5384
 Red. masses --      1.4858                 1.5143                 1.3096
 Frc consts  --      1.2478                 1.2891                 1.1326
 IR Inten    --     12.4035                13.9034                 2.2204

                     55                     56                     57
                      A                      A                      A
 Frequencies --   1262.3683              1286.4402              1296.4663
 Red. masses --      2.2979                 1.6212                 2.3707
 Frc consts  --      2.1575                 1.5807                 2.3478
 IR Inten    --    132.7993                 4.5021                38.3311

                     58                     59                     60
                      A                      A                      A
 Frequencies --   1336.3558              1350.3891              1355.2588
 Red. masses --      2.5839                 2.3548                 1.5895
 Frc consts  --      2.7187                 2.5300                 1.7201
 IR Inten    --      0.2512               155.4849                63.4526

                     61                     62                     63
                      A                      A                      A
 Frequencies --   1369.2747              1380.9191              1400.6504
 Red. masses --      2.0379                 1.4669                 2.2462
 Frc consts  --      2.2512                 1.6482                 2.5963
 IR Inten    --      8.0912               103.5156                30.8133

                     64                     65                     66
                      A                      A                      A
 Frequencies --   1426.8553              1451.6586              1463.6137
 Red. masses --      1.2915                 2.5791                 2.7054
 Frc consts  --      1.5491                 3.2022                 3.4145
 IR Inten    --      5.6306                18.1111                58.2456

                     67                     68                     69
                      A                      A                      A
 Frequencies --   1504.9546              1511.2635              1519.8779
 Red. masses --      2.1748                 1.5010                 1.9715
 Frc consts  --      2.9021                 2.0198                 2.6833
 IR Inten    --    135.0761                82.5338                73.1827

                     70                     71                     72
                      A                      A                      A
 Frequencies --   1526.7549              1540.4040              1541.4840
 Red. masses --      1.0628                 1.1911                 2.3831
 Frc consts  --      1.4596                 1.6652                 3.3364
 IR Inten    --     31.8210                47.2576               216.7429

                     73                     74                     75
                      A                      A                      A
 Frequencies --   1574.1343              1630.5320              1636.5816
 Red. masses --      3.4653                 5.9917                 4.9380
 Frc consts  --      5.0591                 9.3855                 7.7925
 IR Inten    --    191.4652               860.7254               163.8774

                     76                     77                     78
                      A                      A                      A
 Frequencies --   1661.3688              1671.4160              1748.7690
 Red. masses --      4.0075                 3.5088                 1.0639
 Frc consts  --      6.5172                 5.7753                 1.9170
 IR Inten    --    435.2797               225.8700                23.2192

                     79                     80                     81
                      A                      A                      A
 Frequencies --   2351.9414              3054.6557              3072.5270
 Red. masses --     12.6805                 1.0343                 1.0612
 Frc consts  --     41.3275                 5.6863                 5.9027
 IR Inten    --     40.3646                28.2379                15.6883

                     82                     83                     84
                      A                      A                      A
 Frequencies --   3116.1479              3126.5828              3138.6717
 Red. masses --      1.1019                 1.1035                 1.1042
 Frc consts  --      6.3044                 6.3557                 6.4092
 IR Inten    --      2.6152                33.1252                40.0643

                     85                     86                     87
                      A                      A                      A
 Frequencies --   3191.7192              3192.6846              3201.8714
 Red. masses --      1.0914                 1.0911                 1.0892
 Frc consts  --      6.5507                 6.5527                 6.5788
 IR Inten    --      7.5581                10.4669                 8.8581

                     88                     89                     90
                      A                      A                      A
 Frequencies --   3229.8760              3280.1279              3436.8212
 Red. masses --      1.0943                 1.0919                 1.0485
 Frc consts  --      6.7261                 6.9216                 7.2971
 IR Inten    --      4.3070                21.1269                 3.3014

                     91                     92                     93
                      A                      A                      A
 Frequencies --   3510.7782              3612.6952              3617.8644
 Red. masses --      1.0931                 1.0758                 1.0776
 Frc consts  --      7.9384                 8.2724                 8.3103
 IR Inten    --      0.9514                15.9415                52.0857

 - Thermochemistry -
 -------------------
 Temperature   298.150 Kelvin.  Pressure   1.00000 Atm.
 Atom     1 has atomic number  6 and mass  12.00000

 Molecular mass:   254.12799 amu.
 Principal axes and moments of inertia in atomic units:
                           1         2         3
     Eigenvalues --  2229.27318********************
           X            1.00000  -0.00059   0.00254
           Y            0.00061   0.99999  -0.00510
           Z           -0.00253   0.00510   0.99998
 This molecule is an asymmetric top.
 Rotational symmetry number  1.
 Warning -- assumption of classical behavior for rotation
           may cause significant error
 Rotational temperatures (Kelvin)      0.03885     0.00794     0.00669
 Rotational constants (GHZ):           0.80956     0.16534     0.13938
 Zero-point vibrational energy     695674.4 (Joules/Mol)
                                  166.27018 (Kcal/Mol)
 Warning -- explicit consideration of  27 degrees of freedom as
           vibrations may cause significant error
 Vibrational temperatures:     26.56    33.55    47.01   111.28   151.76
          (Kelvin)            166.81   199.85   207.15   230.49   271.98
                              283.91   320.77   330.76   356.23   385.24
                              397.35   457.78   570.73   571.93   675.12
                              694.75   699.45   709.60   757.51   820.58
                              832.63   881.03   904.63   988.22  1001.71
                             1009.84  1016.85  1028.92  1118.60  1130.89
                             1165.25  1173.91  1179.14  1259.29  1332.18
                             1335.86  1371.09  1426.29  1440.08  1443.17
                             1464.15  1513.21  1546.86  1593.90  1620.69
                             1636.97  1717.76  1729.41  1743.13  1816.27
                             1850.90  1865.33  1922.72  1942.91  1949.92
                             1970.08  1986.83  2015.22  2052.93  2088.61
                             2105.81  2165.29  2174.37  2186.77  2196.66
                             2216.30  2217.85  2264.83  2345.97  2354.68
                             2390.34  2404.79  2516.09  3383.92  4394.97
                             4420.68  4483.44  4498.46  4515.85  4592.17
                             4593.56  4606.78  4647.07  4719.37  4944.82
                             5051.23  5197.86  5205.30

 Zero-point correction=                           0.264968 (Hartree/Particle)
 Thermal correction to Energy=                    0.282650
 Thermal correction to Enthalpy=                  0.283594
 Thermal correction to Gibbs Free Energy=         0.217150
 Sum of electronic and zero-point Energies=           -832.106374
 Sum of electronic and thermal Energies=              -832.088692
 Sum of electronic and thermal Enthalpies=            -832.087748
 Sum of electronic and thermal Free Energies=         -832.154192

                     E (Thermal)             CV                S
                      KCal/Mol        Cal/Mol-Kelvin    Cal/Mol-Kelvin
 Total                  177.365             65.998            139.842
 Electronic               0.000              0.000              0.000
 Translational            0.889              2.981             42.498
 Rotational               0.889              2.981             34.110
 Vibrational            175.588             60.036             63.234
 Vibration     1          0.593              1.986              6.793
 Vibration     2          0.593              1.985              6.329
 Vibration     3          0.594              1.983              5.660
 Vibration     4          0.599              1.964              3.957
 Vibration     5          0.605              1.945              3.350
 Vibration     6          0.608              1.936              3.167
 Vibration     7          0.615              1.914              2.819
 Vibration     8          0.616              1.909              2.750
 Vibration     9          0.622              1.891              2.547
 Vibration    10          0.633              1.855              2.237
 Vibration    11          0.637              1.844              2.158
 Vibration    12          0.649              1.806              1.935
 Vibration    13          0.652              1.795              1.880
 Vibration    14          0.661              1.767              1.748
 Vibration    15          0.673              1.732              1.611
 Vibration    16          0.678              1.717              1.557
 Vibration    17          0.705              1.639              1.319
 Vibration    18          0.763              1.477              0.975
 Vibration    19          0.764              1.475              0.972
 Vibration    20          0.826              1.318              0.740
 Vibration    21          0.839              1.288              0.702
 Vibration    22          0.842              1.281              0.694
 Vibration    23          0.849              1.265              0.675
 Vibration    24          0.881              1.191              0.595
 Vibration    25          0.926              1.095              0.504
 Vibration    26          0.935              1.077              0.488
 Vibration    27          0.972              1.006              0.429

                           ! Non-Optimized Parameters !
 Normal termination of Gaussian 16 at Sun Dec 13 12:56:39 2020.

 ----------------------------------------------------------------------
 # B3LYP/6-311++G(d,p) empiricaldispersion=gd3bj scf=xqc pop=npa geom=c
 heck
 ----------------------------------------------------------------------

 --------------------------------------
 CID_80937639_JID_9573_Energie_neutraal
 --------------------------------------
 Structure from the checkpoint file:  "JID_9573.chk"
 Charge =  0 Multiplicity = 1

 SCF Done:  E(RB3LYP) =  -832.600360755     A.U. after   15 cycles
 Normal termination of Gaussian 16 at Sun Dec 13 13:03:05 2020.

 ----------------------------------------------------------------------
 # B3LYP/6-311++G(d,p) empiricaldispersion=gd3bj scf=xqc pop=npa geom=c
 heck
 ----------------------------------------------------------------------

 ------------------------------------
 CID_80937639_JID_9573_Energie_kation
 ------------------------------------
 Structure from the checkpoint file:  "JID_9573.chk"
 Charge =  1 Multiplicity = 2

 SCF Done:  E(UB3LYP) =  -832.315950458     A.U. after   23 cycles
 Normal termination of Gaussian 16 at Sun Dec 13 13:17:13 2020.
 Gaussian 16:  ES64L-G16RevA.03 25-Dec-2016

 ----------------------------------------------------------------------
 # B3LYP/6-311++G(d,p) empiricaldispersion=gd3bj scf=xqc pop=npa geom=c
 heck
 ----------------------------------------------------------------------

 -----------------------------------
 CID_80937639_JID_9573_Energie_anion
 -----------------------------------
 Structure from the checkpoint file:  "JID_9573.chk"
 Charge = -1 Multiplicity = 2

                         Standard orientation:
 ---------------------------------------------------------------------
 Center     Atomic      Atomic             Coordinates (Angstroms)
 Number     Number       Type             X           Y           Z
 ---------------------------------------------------------------------
      1          6           0       -2.590836    3.130240   -0.931613
      2          6           0       -2.699950    2.417232    0.426218
      3          6           0       -2.338987    0.958997    0.303242
      4          7           0       -1.032142    0.676530    0.240092
      5          6           0       -0.704013   -0.616898    0.071081
      6          6           0       -1.673361   -1.620148   -0.031538
      7          6           0       -3.007688   -1.207439    0.058466
      8          7           0       -3.348478    0.088103    0.219991
      9          7           0       -4.037784   -2.111731    0.002054
     10          7           0       -5.379906   -1.705441   -0.156634
     11          7           0        0.627684   -0.971785   -0.004831
     12          6           0        1.800285   -0.209590    0.048942
     13          6           0        1.838792    1.186263    0.216703
     14          6           0        3.066557    1.845112    0.255651
     15          6           0        4.270265    1.158491    0.132849
     16          6           0        4.231620   -0.234121   -0.033937
     17          6           0        3.008660   -0.911316   -0.075473
     18          6           0        5.449658   -0.978133   -0.164268
     19          7           0        6.437740   -1.582519   -0.270342
     20          1           0       -1.573214    3.048629   -1.326951
     21          1           0       -2.840400    4.192031   -0.834292
     22          1           0       -3.276507    2.683056   -1.659613
     23          1           0       -2.019436    2.888393    1.143612
     24          1           0       -3.720083    2.493429    0.812600
     25          1           0       -1.408403   -2.665070   -0.162954
     26          1           0       -3.846211   -3.016045   -0.405232
     27          1           0       -5.709138   -1.401986    0.759962
     28          1           0       -5.379573   -0.858143   -0.728219
     29          1           0        0.784004   -1.962646   -0.126769
     30          1           0        0.908801    1.725774    0.313649
     31          1           0        3.076480    2.923168    0.385954
     32          1           0        5.222723    1.675098    0.163808
     33          1           0        3.005143   -1.989926   -0.205796
 ---------------------------------------------------------------------

 SCF Done:  E(UB3LYP) =  -832.609805503     A.U. after   33 cycles
 SCF Done:  E(UB3LYP) =  -832.609805503     a.u. after    1 cycles

 The electronic state is 2-A.
 Alpha  occ. eigenvalues --  -14.26473 -14.25127 -14.24283 -14.18973 -14.18723
 Alpha  occ. eigenvalues --  -14.17161 -10.15033 -10.14432 -10.12329 -10.10197
 Alpha  occ. eigenvalues --  -10.07324 -10.07002 -10.06870 -10.06844 -10.06372
 Alpha  occ. eigenvalues --  -10.05856 -10.05263 -10.04917 -10.03120  -0.91685
 Alpha  occ. eigenvalues --   -0.87959  -0.84099  -0.77555  -0.76872  -0.73650
 Alpha  occ. eigenvalues --   -0.72069  -0.68285  -0.65331  -0.63969  -0.61861
 Alpha  occ. eigenvalues --   -0.56856  -0.54466  -0.52396  -0.50673  -0.49466
 Alpha  occ. eigenvalues --   -0.45361  -0.44654  -0.42028  -0.41257  -0.40033
 Alpha  occ. eigenvalues --   -0.38129  -0.37021  -0.36322  -0.34982  -0.33831
 Alpha  occ. eigenvalues --   -0.33634  -0.32933  -0.32386  -0.31103  -0.29632
 Alpha  occ. eigenvalues --   -0.28201  -0.26641  -0.26155  -0.25487  -0.25241
 Alpha  occ. eigenvalues --   -0.24487  -0.23052  -0.22693  -0.20942  -0.20334
 Alpha  occ. eigenvalues --   -0.20164  -0.18719  -0.16945  -0.14621  -0.13738
 Alpha  occ. eigenvalues --   -0.13592  -0.09914   0.03817
 Alpha virt. eigenvalues --    0.05922   0.06632   0.07153   0.08032   0.08684
 Alpha virt. eigenvalues --    0.08923   0.09059   0.09253   0.10504   0.10844
 Alpha virt. eigenvalues --    0.11576   0.12060   0.12223   0.12703   0.13608

  Beta  occ. eigenvalues --  -14.26472 -14.25125 -14.24316 -14.18887 -14.18788
  Beta  occ. eigenvalues --  -14.16933 -10.15045 -10.14318 -10.12123 -10.10221
  Beta  occ. eigenvalues --  -10.07318 -10.07016 -10.06845 -10.06613 -10.06279
  Beta  occ. eigenvalues --  -10.05780 -10.05297 -10.04789 -10.02798  -0.91648
  Beta  occ. eigenvalues --   -0.87861  -0.83999  -0.77226  -0.76776  -0.73391
  Beta  occ. eigenvalues --   -0.71925  -0.68179  -0.65151  -0.63528  -0.61631
  Beta  occ. eigenvalues --   -0.56669  -0.54253  -0.52175  -0.50501  -0.49191
  Beta  occ. eigenvalues --   -0.45256  -0.44588  -0.42012  -0.41172  -0.39965
  Beta  occ. eigenvalues --   -0.37992  -0.36850  -0.36138  -0.34738  -0.33761
  Beta  occ. eigenvalues --   -0.33517  -0.32727  -0.32232  -0.31030  -0.29305
  Beta  occ. eigenvalues --   -0.27975  -0.26540  -0.25435  -0.25343  -0.25152
  Beta  occ. eigenvalues --   -0.24257  -0.22786  -0.22250  -0.20509  -0.20184
  Beta  occ. eigenvalues --   -0.19831  -0.18641  -0.16339  -0.14585  -0.13359
  Beta  occ. eigenvalues --   -0.12395  -0.09063
  Beta virt. eigenvalues --    0.05956   0.06752   0.07259   0.08285   0.08615
  Beta virt. eigenvalues --    0.08916   0.09128   0.09151   0.09604   0.10397
  Beta virt. eigenvalues --    0.10788   0.11492   0.11983   0.12410   0.12675

 Mulliken charges and spin densities:
               1          2
     1  C   -0.345292  -0.104236
     2  C   -0.174230  -0.072039
     3  C   -0.476976   0.125790
     4  N   -0.090712  -0.028613
     5  C    0.486787  -0.059299
     6  C   -0.370278   0.098666
     7  C   -0.192138   0.015409
     8  N   -0.135963   0.032070
     9  N   -0.144259  -0.018459
    10  N   -0.331591   0.014361
    11  N    0.018634  -0.009970
    12  C    0.075834  -0.128872
    13  C   -0.079179   0.243127
    14  C   -0.061120   0.039166
    15  C   -0.372953   0.152452
    16  C    1.285272   0.137431
    17  C   -0.374073   0.106207
    18  C   -1.455760  -0.090338
    19  N   -0.302444   0.123566
    20  H    0.141965   0.015960
    21  H    0.020598   0.109247
    22  H    0.121454   0.006903
    23  H    0.110586   0.035393
    24  H    0.069451   0.067130
    25  H   -0.005175   0.100884
    26  H    0.190388   0.082866
    27  H    0.233507   0.019489
    28  H    0.223936   0.011347
    29  H    0.343763  -0.012218
    30  H    0.246520  -0.033459
    31  H    0.123784   0.011677
    32  H    0.129519  -0.006345
    33  H    0.090143   0.014708
 Sum of Mulliken charges =  -1.00000   1.00000

 Dipole moment (field-independent basis, Debye):
    X=             -9.5065    Y=              0.6025    Z=              0.3114  Tot=              9.5306
 Quadrupole moment (field-independent basis, Debye-Ang):
   XX=           -234.2906   YY=           -129.5620   ZZ=           -124.0438
   XY=             15.2168   XZ=              2.0802   YZ=             -1.0699

 Summary of Natural Population Analysis:

                                       Natural Population
                Natural  -----------------------------------------------
    Atom  No    Charge         Core      Valence    Rydberg      Total
 -----------------------------------------------------------------------
      C    1   -0.27860      0.99966     2.27506    0.00388     3.27860
      C    2   -0.20671      0.99960     2.19862    0.00848     3.20671
      C    3    0.26830      0.99962     1.71425    0.01783     2.73170
      N    4   -0.30224      0.99964     2.79215    0.01045     3.80224
      C    5    0.23697      0.99953     1.75018    0.01331     2.76303
      C    6   -0.17721      0.99949     2.17031    0.00742     3.17721
      C    7    0.20432      0.99954     1.78217    0.01397     2.79568
      N    8   -0.30005      0.99964     2.78881    0.01159     3.80005
      N    9   -0.22803      0.99965     2.71561    0.01277     3.72803
      N   10   -0.31887      0.99978     2.80841    0.01069     3.81887
      N   11   -0.28728      0.99963     2.77956    0.00809     3.78728
      C   12    0.07689      0.99948     1.91349    0.01014     2.92311
      C   13   -0.05668      0.99953     2.04913    0.00801     3.05668
      C   14   -0.10637      0.99958     2.09804    0.00875     3.10637
      C   15   -0.07086      0.99954     2.06298    0.00833     3.07086
      C   16   -0.05933      0.99943     2.04965    0.01025     3.05933
      C   17   -0.08264      0.99951     2.07629    0.00684     3.08264
      C   18    0.15221      0.99964     1.82977    0.01838     2.84779
      N   19   -0.17465      0.99979     2.66379    0.01108     3.67465
      H   20    0.10262      0.00000     0.39617    0.00120     0.39738
      H   21    0.09272      0.00000     0.40595    0.00133     0.40728
      H   22    0.09495      0.00000     0.40388    0.00116     0.40505
      H   23    0.10323      0.00000     0.39532    0.00145     0.39677
      H   24    0.09962      0.00000     0.39873    0.00165     0.40038
      H   25    0.09862      0.00000     0.40031    0.00108     0.40138
      H   26    0.18289      0.00000     0.31461    0.00250     0.31711
      H   27    0.17145      0.00000     0.32640    0.00215     0.32855
      H   28    0.17568      0.00000     0.32198    0.00235     0.32432
      H   29    0.18744      0.00000     0.31066    0.00190     0.31256
      H   30    0.11676      0.00000     0.38191    0.00134     0.38324
      H   31    0.09364      0.00000     0.40543    0.00093     0.40636
      H   32    0.09669      0.00000     0.40244    0.00087     0.40331
      H   33    0.09452      0.00000     0.40456    0.00093     0.40548
 =======================================================================
   * Total *   -0.00000     18.99230    47.78660    0.22110    67.00000

 Normal termination of Gaussian 16 at Sun Dec 13 13:37:46 2020.
