 Gaussian 16, Revision A.03,

 -----------------------------------------------------------
 # opt freq B3LYP/6-31G(d) empiricaldispersion=gd3bj scf=xqc
 -----------------------------------------------------------

 ------------------------------
 CID_10487252_JID_2754_neutraal
 ------------------------------
 Symbolic Z-matrix:
 Charge =  0 Multiplicity = 1

 SCF Done:  E(RB3LYP) =  -570.861048926     A.U. after   15 cycles
 SCF Done:  E(RB3LYP) =  -570.864121080     A.U. after   13 cycles
 SCF Done:  E(RB3LYP) =  -570.864428500     A.U. after   12 cycles
 SCF Done:  E(RB3LYP) =  -570.864628079     A.U. after   12 cycles
 SCF Done:  E(RB3LYP) =  -570.864634211     A.U. after   11 cycles
 SCF Done:  E(RB3LYP) =  -570.864672166     A.U. after   11 cycles
 SCF Done:  E(RB3LYP) =  -570.864679757     A.U. after   10 cycles
 SCF Done:  E(RB3LYP) =  -570.864682854     A.U. after    9 cycles
 SCF Done:  E(RB3LYP) =  -570.864683875     A.U. after    8 cycles
 SCF Done:  E(RB3LYP) =  -570.864684245     A.U. after    8 cycles
 SCF Done:  E(RB3LYP) =  -570.864684344     A.U. after    7 cycles
 Optimization completed.
    -- Stationary point found.
 Normal termination of Gaussian 16 at Wed Dec  9 17:30:03 2020.

 --------------------------------------------------------------------
 #N Geom=AllCheck Guess=TCheck SCRF=Check GenChk RB3LYP/6-31G(d) Freq
 --------------------------------------------------------------------

 Structure from the checkpoint file:  "JID_2754.chk"
 ------------------------------
 CID_10487252_JID_2754_neutraal
 ------------------------------
 Charge =  0 Multiplicity = 1

 SCF Done:  E(RB3LYP) =  -570.864684344     A.U. after    1 cycles

  Exact polarizability: 136.485  -5.971 100.241  13.000  -1.549  59.658
 Approx polarizability: 196.800 -15.161 173.618  28.298  -6.932  88.976

                      1                      2                      3
                      A                      A                      A
 Frequencies --     37.2772                56.0813                77.7352
 Red. masses --      5.8929                 7.7240                 4.3125
 Frc consts  --      0.0048                 0.0143                 0.0154
 IR Inten    --      0.3140                 5.7540                 2.2413

                      4                      5                      6
                      A                      A                      A
 Frequencies --    195.3362               227.5448               240.1034
 Red. masses --      4.3392                 3.6486                 3.8420
 Frc consts  --      0.0975                 0.1113                 0.1305
 IR Inten    --      5.8487                 3.7561                 1.2358

                      7                      8                      9
                      A                      A                      A
 Frequencies --    295.6575               305.2831               343.8121
 Red. masses --      4.7821                 1.0789                 2.9599
 Frc consts  --      0.2463                 0.0592                 0.2061
 IR Inten    --      7.5604                22.6049                 6.1192

                     10                     11                     12
                      A                      A                      A
 Frequencies --    377.9708               423.0107               460.8425
 Red. masses --      1.2379                 3.5485                 2.9540
 Frc consts  --      0.1042                 0.3741                 0.3696
 IR Inten    --    282.9334                 6.7774                13.2221

                     13                     14                     15
                      A                      A                      A
 Frequencies --    500.8023               523.5117               534.5693
 Red. masses --      2.1526                 3.3817                 4.3234
 Frc consts  --      0.3181                 0.5461                 0.7279
 IR Inten    --      1.7012                11.4752                 6.3488

                     16                     17                     18
                      A                      A                      A
 Frequencies --    570.0266               597.0015               612.6069
 Red. masses --      2.7317                 1.7664                 3.7686
 Frc consts  --      0.5230                 0.3709                 0.8333
 IR Inten    --      8.9273               217.2120                14.3045

                     19                     20                     21
                      A                      A                      A
 Frequencies --    652.4439               680.6659               700.8055
 Red. masses --      2.4776                 1.8823                 2.2673
 Frc consts  --      0.6214                 0.5138                 0.6561
 IR Inten    --    146.1226                16.0409                 1.5609

                     22                     23                     24
                      A                      A                      A
 Frequencies --    753.1063               772.1551               843.2671
 Red. masses --      5.1538                 1.3863                 1.5906
 Frc consts  --      1.7222                 0.4870                 0.6664
 IR Inten    --     12.3401                48.9926                34.8281

                     25                     26                     27
                      A                      A                      A
 Frequencies --    850.9226               870.9633               956.4511
 Red. masses --      1.4455                 3.7319                 1.3230
 Frc consts  --      0.6167                 1.6679                 0.7131
 IR Inten    --     10.5068                 3.1855                 0.6475

                     28                     29                     30
                      A                      A                      A
 Frequencies --    956.5809              1013.7778              1042.0036
 Red. masses --      2.8328                 5.8571                 2.1252
 Frc consts  --      1.5272                 3.5467                 1.3595
 IR Inten    --      7.1362                 2.6800                 1.1251

                     31                     32                     33
                      A                      A                      A
 Frequencies --   1086.3849              1110.6941              1118.1675
 Red. masses --      2.8296                 1.7405                 1.7181
 Frc consts  --      1.9677                 1.2651                 1.2656
 IR Inten    --     51.0285                 8.3910                 4.7527

                     34                     35                     36
                      A                      A                      A
 Frequencies --   1153.4940              1202.5610              1221.7157
 Red. masses --      1.3014                 1.3935                 1.6897
 Frc consts  --      1.0202                 1.1874                 1.4859
 IR Inten    --      3.2212               165.6313                94.5234

                     37                     38                     39
                      A                      A                      A
 Frequencies --   1288.2178              1336.5627              1355.4187
 Red. masses --      1.2334                 2.0580                 1.7898
 Frc consts  --      1.2060                 2.1661                 1.9373
 IR Inten    --     41.3545                58.5744                10.0956

                     40                     41                     42
                      A                      A                      A
 Frequencies --   1377.9080              1387.5760              1396.3320
 Red. masses --      2.5486                 3.9135                 1.8062
 Frc consts  --      2.8509                 4.4394                 2.0749
 IR Inten    --     41.5973                57.3791                26.4202

                     43                     44                     45
                      A                      A                      A
 Frequencies --   1508.8858              1524.6093              1548.6478
 Red. masses --      1.0885                 3.0536                 2.5542
 Frc consts  --      1.4601                 4.1819                 3.6092
 IR Inten    --      3.6683                11.9667               108.6148

                     46                     47                     48
                      A                      A                      A
 Frequencies --   1630.1579              1647.4515              1676.4245
 Red. masses --      1.4384                 4.1143                 3.0997
 Frc consts  --      2.2521                 6.5792                 5.1326
 IR Inten    --    104.2928                61.1064               117.2403

                     49                     50                     51
                      A                      A                      A
 Frequencies --   1697.4194              1817.4925              3082.4071
 Red. masses --      1.3867                 9.3176                 1.0577
 Frc consts  --      2.3540                18.1342                 5.9211
 IR Inten    --    177.6403               288.8445                25.7415

                     52                     53                     54
                      A                      A                      A
 Frequencies --   3132.9438              3182.6932              3197.9663
 Red. masses --      1.1085                 1.0869                 1.0906
 Frc consts  --      6.4103                 6.4871                 6.5717
 IR Inten    --      9.7757                 9.4589                15.0121

                     55                     56                     57
                      A                      A                      A
 Frequencies --   3201.1280              3238.0228              3552.7399
 Red. masses --      1.0935                 1.0923                 1.0479
 Frc consts  --      6.6019                 6.7475                 7.7928
 IR Inten    --     15.3175                 2.4493                13.5984

                     58                     59                     60
                      A                      A                      A
 Frequencies --   3591.6053              3651.5547              3716.6427
 Red. masses --      1.0445                 1.0981                 1.1050
 Frc consts  --      7.9388                 8.6271                 8.9928
 IR Inten    --     31.3357                 8.6679                51.0933

 - Thermochemistry -
 -------------------
 Temperature   298.150 Kelvin.  Pressure   1.00000 Atm.
 Atom     1 has atomic number  6 and mass  12.00000

 Molecular mass:   166.07423 amu.
 Principal axes and moments of inertia in atomic units:
                           1         2         3
     Eigenvalues --   802.001333610.441733950.81258
           X            0.99999   0.00338   0.00036
           Y           -0.00338   0.99999  -0.00395
           Z           -0.00037   0.00395   0.99999
 This molecule is an asymmetric top.
 Rotational symmetry number  1.
 Warning -- assumption of classical behavior for rotation
           may cause significant error
 Rotational temperatures (Kelvin)      0.10800     0.02399     0.02192
 Rotational constants (GHZ):           2.25030     0.49987     0.45680
 Zero-point vibrational energy     467178.5 (Joules/Mol)
                                  111.65833 (Kcal/Mol)
 Warning -- explicit consideration of  18 degrees of freedom as
           vibrations may cause significant error
 Vibrational temperatures:     53.63    80.69   111.84   281.05   327.39
          (Kelvin)            345.46   425.39   439.23   494.67   543.82
                              608.62   663.05   720.54   753.22   769.13
                              820.14   858.95   881.40   938.72   979.33
                             1008.30  1083.55  1110.96  1213.27  1224.29
                             1253.12  1376.12  1376.31  1458.60  1499.21
                             1563.07  1598.04  1608.79  1659.62  1730.22
                             1757.78  1853.46  1923.02  1950.15  1982.50
                             1996.41  2009.01  2170.95  2193.57  2228.16
                             2345.43  2370.32  2412.00  2442.21  2614.97
                             4434.90  4507.61  4579.19  4601.16  4605.71
                             4658.79  5111.60  5167.52  5253.77  5347.42

 Zero-point correction=                           0.177939 (Hartree/Particle)
 Thermal correction to Energy=                    0.189120
 Thermal correction to Enthalpy=                  0.190064
 Thermal correction to Gibbs Free Energy=         0.140331
 Sum of electronic and zero-point Energies=           -570.686745
 Sum of electronic and thermal Energies=              -570.675564
 Sum of electronic and thermal Enthalpies=            -570.674620
 Sum of electronic and thermal Free Energies=         -570.724354

                     E (Thermal)             CV                S
                      KCal/Mol        Cal/Mol-Kelvin    Cal/Mol-Kelvin
 Total                  118.675             43.160            104.673
 Electronic               0.000              0.000              0.000
 Translational            0.889              2.981             41.230
 Rotational               0.889              2.981             30.815
 Vibrational            116.897             37.198             32.628
 Vibration     1          0.594              1.982              5.399
 Vibration     2          0.596              1.975              4.591
 Vibration     3          0.599              1.964              3.947
 Vibration     4          0.636              1.846              2.177
 Vibration     5          0.651              1.799              1.898
 Vibration     6          0.657              1.779              1.802
 Vibration     7          0.690              1.682              1.441
 Vibration     8          0.696              1.664              1.388
 Vibration     9          0.723              1.588              1.194
 Vibration    10          0.748              1.517              1.047
 Vibration    11          0.785              1.420              0.882
 Vibration    12          0.819              1.337              0.764
 Vibration    13          0.856              1.248              0.656
 Vibration    14          0.878              1.198              0.602
 Vibration    15          0.890              1.174              0.577
 Vibration    16          0.926              1.096              0.504
 Vibration    17          0.955              1.038              0.455
 Vibration    18          0.972              1.005              0.428

 Optimization completed.
    -- Stationary point found.
 Normal termination of Gaussian 16 at Wed Dec  9 17:34:53 2020.

 ----------------------------------------------------------------------
 # B3LYP/6-311++G(d,p) empiricaldispersion=gd3bj scf=xqc pop=npa geom=c
 heck
 ----------------------------------------------------------------------

 --------------------------------------
 CID_10487252_JID_2754_Energie_neutraal
 --------------------------------------
 Structure from the checkpoint file:  "JID_2754.chk"
 Charge =  0 Multiplicity = 1

 SCF Done:  E(RB3LYP) =  -571.042816759     A.U. after   15 cycles
 Normal termination of Gaussian 16 at Wed Dec  9 17:37:19 2020.

 ----------------------------------------------------------------------
 # B3LYP/6-311++G(d,p) empiricaldispersion=gd3bj scf=xqc pop=npa geom=c
 heck
 ----------------------------------------------------------------------

 ------------------------------------
 CID_10487252_JID_2754_Energie_kation
 ------------------------------------
 Structure from the checkpoint file:  "JID_2754.chk"
 Charge =  1 Multiplicity = 2

 SCF Done:  E(UB3LYP) =  -570.753551143     A.U. after   24 cycles
 Normal termination of Gaussian 16 at Wed Dec  9 17:43:51 2020.
 Gaussian 16:  ES64L-G16RevA.03 25-Dec-2016

 ----------------------------------------------------------------------
 # B3LYP/6-311++G(d,p) empiricaldispersion=gd3bj scf=xqc pop=npa geom=c
 heck
 ----------------------------------------------------------------------

 -----------------------------------
 CID_10487252_JID_2754_Energie_anion
 -----------------------------------
 Structure from the checkpoint file:  "JID_2754.chk"
 Charge = -1 Multiplicity = 2

                         Standard orientation:
 ---------------------------------------------------------------------
 Center     Atomic      Atomic             Coordinates (Angstroms)
 Number     Number       Type             X           Y           Z
 ---------------------------------------------------------------------
      1          6           0        1.300748    1.809733   -0.130021
      2          6           0        2.529690    1.211786    0.115066
      3          6           0        2.634359   -0.191616    0.126429
      4          6           0        1.489616   -0.959052   -0.114908
      5          6           0        0.263157   -0.338707   -0.359912
      6          6           0        0.148768    1.054695   -0.369841
      7          8           0       -0.789290   -1.203337   -0.569309
      8          6           0       -2.037930   -0.641861   -0.949285
      9          6           0       -2.802211    0.021952    0.202133
     10          8           0       -3.665071    0.858825   -0.016145
     11          7           0       -2.481340   -0.455144    1.434974
     12          7           0        3.849996   -0.809406    0.428102
     13          1           0        1.228240    2.893740   -0.134169
     14          1           0        3.410377    1.819201    0.305688
     15          1           0        1.534423   -2.044205   -0.118206
     16          1           0       -0.797991    1.550948   -0.541850
     17          1           0       -1.929388    0.087795   -1.757300
     18          1           0       -2.634312   -1.481175   -1.319432
     19          1           0       -1.655482   -1.023944    1.553317
     20          1           0       -2.874518    0.009336    2.241057
     21          1           0        3.946353   -1.753053    0.074293
     22          1           0        4.669404   -0.252281    0.220730
 ---------------------------------------------------------------------

 SCF Done:  E(UB3LYP) =  -571.030958680     A.U. after   33 cycles
 SCF Done:  E(UB3LYP) =  -571.030958680     a.u. after    1 cycles

 The electronic state is 2-A.
 Alpha  occ. eigenvalues --  -19.06786 -19.00670 -14.24426 -14.20976 -10.19043
 Alpha  occ. eigenvalues --  -10.14742 -10.13895 -10.11561 -10.07971 -10.06838
 Alpha  occ. eigenvalues --  -10.06418 -10.06414  -0.98517  -0.95294  -0.82050
 Alpha  occ. eigenvalues --   -0.81552  -0.74127  -0.67270  -0.63219  -0.62011
 Alpha  occ. eigenvalues --   -0.52244  -0.51647  -0.49362  -0.46020  -0.44922
 Alpha  occ. eigenvalues --   -0.41892  -0.39734  -0.38388  -0.37432  -0.36794
 Alpha  occ. eigenvalues --   -0.34100  -0.33263  -0.32733  -0.30936  -0.29483
 Alpha  occ. eigenvalues --   -0.27943  -0.27284  -0.25741  -0.24576  -0.20609
 Alpha  occ. eigenvalues --   -0.19108  -0.17558  -0.13488  -0.10969   0.04377
 Alpha virt. eigenvalues --    0.06107   0.07286   0.07758   0.08468   0.08727
 Alpha virt. eigenvalues --    0.09386   0.10203   0.10882   0.11290   0.11655
 Alpha virt. eigenvalues --    0.13001   0.13087   0.14813   0.15052   0.15503

  Beta  occ. eigenvalues --  -19.06780 -19.00663 -14.24377 -14.20897 -10.19039
  Beta  occ. eigenvalues --  -10.14728 -10.13893 -10.11556 -10.07967 -10.06831
  Beta  occ. eigenvalues --  -10.06399 -10.06393  -0.98509  -0.95280  -0.81984
  Beta  occ. eigenvalues --   -0.81467  -0.74089  -0.67244  -0.63161  -0.61975
  Beta  occ. eigenvalues --   -0.52194  -0.51598  -0.49290  -0.45974  -0.44873
  Beta  occ. eigenvalues --   -0.41845  -0.39679  -0.38327  -0.37389  -0.36748
  Beta  occ. eigenvalues --   -0.34078  -0.33227  -0.32692  -0.30909  -0.29457
  Beta  occ. eigenvalues --   -0.27911  -0.27251  -0.25711  -0.24551  -0.20574
  Beta  occ. eigenvalues --   -0.19068  -0.17532  -0.13471  -0.10922
  Beta virt. eigenvalues --    0.06745   0.07544   0.07901   0.08400   0.08695
  Beta virt. eigenvalues --    0.09181   0.10015   0.10414   0.11140   0.11458
  Beta virt. eigenvalues --    0.12368   0.13166   0.13610   0.14787   0.15179

 Mulliken charges and spin densities:
               1          2
     1  C   -1.149860   0.838503
     2  C    1.038012  -0.980446
     3  C    0.358506  -0.544474
     4  C   -2.584086   2.324053
     5  C    0.832510  -1.091984
     6  C    2.295434  -2.138838
     7  O   -0.115200   0.019981
     8  C    0.539762  -0.855296
     9  C    0.053489  -0.089829
    10  O   -0.328128   0.015055
    11  N   -0.189699  -0.083833
    12  N   -0.173471  -0.111473
    13  H   -0.119099   0.283859
    14  H   -0.382441   0.527394
    15  H   -0.515672   0.686127
    16  H    0.366243  -0.220798
    17  H    0.091351   0.127154
    18  H   -0.056669   0.259049
    19  H    0.065388   0.210513
    20  H   -0.232034   0.526026
    21  H   -0.411220   0.663808
    22  H   -0.383117   0.635446
 Sum of Mulliken charges =  -1.00000   1.00000

 Dipole moment (field-independent basis, Debye):
    X=             -5.5699    Y=              1.7634    Z=             -1.9369  Tot=              6.1551
 Quadrupole moment (field-independent basis, Debye-Ang):
   XX=           -166.6056   YY=           -102.8286   ZZ=            -97.7898
   XY=             11.6184   XZ=              3.0663   YZ=              0.1354

 Summary of Natural Population Analysis:

                                       Natural Population
                Natural  -----------------------------------------------
    Atom  No    Charge         Core      Valence    Rydberg      Total
 -----------------------------------------------------------------------
      C    1   -0.08283      0.99958     2.07397    0.00928     3.08283
      C    2   -0.13548      0.99952     2.12546    0.01051     3.13548
      C    3    0.09606      0.99950     1.89228    0.01217     2.90394
      C    4   -0.14579      0.99947     2.13535    0.01096     3.14579
      C    5    0.16200      0.99938     1.82433    0.01429     2.83800
      C    6   -0.16977      0.99951     2.16223    0.00804     3.16977
      O    7   -0.28185      0.99986     3.27169    0.01030     4.28185
      C    8   -0.05411      0.99953     2.04199    0.01259     3.05411
      C    9    0.32183      0.99971     1.65454    0.02392     2.67817
      O   10   -0.32079      0.99988     3.31477    0.00614     4.32079
      N   11   -0.39796      0.99970     2.89008    0.00818     3.89796
      N   12   -0.39155      0.99972     2.88121    0.01063     3.89155
      H   13    0.09855      0.00000     0.40065    0.00080     0.40145
      H   14    0.10252      0.00000     0.39627    0.00121     0.39748
      H   15    0.10711      0.00000     0.39065    0.00224     0.39289
      H   16    0.10633      0.00000     0.39203    0.00164     0.39367
      H   17    0.09838      0.00000     0.40035    0.00128     0.40162
      H   18    0.10549      0.00000     0.39349    0.00102     0.39451
      H   19    0.20344      0.00000     0.29369    0.00288     0.29656
      H   20    0.19845      0.00000     0.29784    0.00371     0.30155
      H   21    0.18975      0.00000     0.30190    0.00835     0.31025
      H   22    0.19024      0.00000     0.30030    0.00945     0.30976
 =======================================================================
   * Total *   -0.00000     11.99535    31.83507    0.16958    44.00000

 Normal termination of Gaussian 16 at Wed Dec  9 17:51:08 2020.
