 Gaussian 16, Revision A.03,

 -----------------------------------------------------------
 # opt freq B3LYP/6-31G(d) empiricaldispersion=gd3bj scf=xqc
 -----------------------------------------------------------

 ------------------------------
 CID_12571312_JID_2233_neutraal
 ------------------------------
 Symbolic Z-matrix:
 Charge =  0 Multiplicity = 1

 SCF Done:  E(RB3LYP) =  -466.955693060     A.U. after   14 cycles
 SCF Done:  E(RB3LYP) =  -466.957487276     A.U. after   12 cycles
 SCF Done:  E(RB3LYP) =  -466.958040305     A.U. after   12 cycles
 SCF Done:  E(RB3LYP) =  -466.958493775     A.U. after   12 cycles
 SCF Done:  E(RB3LYP) =  -466.958640901     A.U. after   10 cycles
 SCF Done:  E(RB3LYP) =  -466.958732136     A.U. after   12 cycles
 SCF Done:  E(RB3LYP) =  -466.958850833     A.U. after   11 cycles
 SCF Done:  E(RB3LYP) =  -466.958901613     A.U. after   11 cycles
 SCF Done:  E(RB3LYP) =  -466.958918838     A.U. after    9 cycles
 SCF Done:  E(RB3LYP) =  -466.958926634     A.U. after    9 cycles
 SCF Done:  E(RB3LYP) =  -466.958927601     A.U. after    9 cycles
 SCF Done:  E(RB3LYP) =  -466.958927625     A.U. after    7 cycles
 Optimization completed.
    -- Stationary point found.
 Normal termination of Gaussian 16 at Wed Dec  9 16:55:47 2020.

 --------------------------------------------------------------------
 #N Geom=AllCheck Guess=TCheck SCRF=Check GenChk RB3LYP/6-31G(d) Freq
 --------------------------------------------------------------------

 Structure from the checkpoint file:  "JID_2233.chk"
 ------------------------------
 CID_12571312_JID_2233_neutraal
 ------------------------------
 Charge =  0 Multiplicity = 1

 SCF Done:  E(RB3LYP) =  -466.958927625     A.U. after    1 cycles

  Exact polarizability: 196.578   2.596 116.574  -0.545  -8.528  76.462
 Approx polarizability: 266.257   6.478 194.447  -3.047 -23.268 112.035

                      1                      2                      3
                      A                      A                      A
 Frequencies --     30.9249                58.3089                80.3492
 Red. masses --      2.9157                 3.0421                 2.9910
 Frc consts  --      0.0016                 0.0061                 0.0114
 IR Inten    --      0.0576                 0.0739                 0.1663

                      4                      5                      6
                      A                      A                      A
 Frequencies --    124.9928               177.2646               189.2419
 Red. masses --      2.4354                 2.8358                 1.7543
 Frc consts  --      0.0224                 0.0525                 0.0370
 IR Inten    --      0.1104                 0.1574                 0.1897

                      7                      8                      9
                      A                      A                      A
 Frequencies --    236.5761               238.5381               264.3024
 Red. masses --      1.2277                 1.4155                 1.1663
 Frc consts  --      0.0405                 0.0475                 0.0480
 IR Inten    --      0.0926                 0.1489                 0.1686

                     10                     11                     12
                      A                      A                      A
 Frequencies --    299.2211               306.2411               366.6936
 Red. masses --      2.7163                 2.9056                 3.5319
 Frc consts  --      0.1433                 0.1606                 0.2798
 IR Inten    --      0.1398                 0.0088                 0.4466

                     13                     14                     15
                      A                      A                      A
 Frequencies --    423.2022               432.8590               476.4377
 Red. masses --      3.0420                 3.1265                 2.9447
 Frc consts  --      0.3210                 0.3451                 0.3938
 IR Inten    --      0.1857                 0.1600                 1.2023

                     16                     17                     18
                      A                      A                      A
 Frequencies --    513.1574               568.0285               633.2877
 Red. masses --      2.9870                 2.3063                 3.3150
 Frc consts  --      0.4634                 0.4384                 0.7833
 IR Inten    --      0.5125                19.5373                 3.4495

                     19                     20                     21
                      A                      A                      A
 Frequencies --    664.1096               715.2207               732.1706
 Red. masses --      4.8940                 1.7624                 2.6155
 Frc consts  --      1.2717                 0.5312                 0.8261
 IR Inten    --      0.6265                 3.1397                 9.0423

                     22                     23                     24
                      A                      A                      A
 Frequencies --    780.6443               832.1494               856.4059
 Red. masses --      2.6755                 3.5751                 1.2539
 Frc consts  --      0.9607                 1.4586                 0.5418
 IR Inten    --      2.5913                 5.4805                 0.1351

                     25                     26                     27
                      A                      A                      A
 Frequencies --    869.3252               908.2857               942.5538
 Red. masses --      1.8357                 2.5616                 1.1738
 Frc consts  --      0.8174                 1.2451                 0.6144
 IR Inten    --     38.4459                 0.8119                 0.9942

                     28                     29                     30
                      A                      A                      A
 Frequencies --    951.5003               964.6150               970.6902
 Red. masses --      2.2009                 1.3595                 1.3334
 Frc consts  --      1.1740                 0.7453                 0.7403
 IR Inten    --     11.7793                 0.0059                 0.6580

                     31                     32                     33
                      A                      A                      A
 Frequencies --    975.4055              1001.5677              1041.1632
 Red. masses --      1.4344                 1.2116                 2.9463
 Frc consts  --      0.8041                 0.7161                 1.8818
 IR Inten    --      0.0146                 0.7521                 3.1634

                     34                     35                     36
                      A                      A                      A
 Frequencies --   1072.0951              1085.8100              1106.0314
 Red. masses --      1.4939                 1.5679                 1.6766
 Frc consts  --      1.0117                 1.0891                 1.2084
 IR Inten    --      5.4212                16.6033                 2.3754

                     37                     38                     39
                      A                      A                      A
 Frequencies --   1135.2151              1150.0917              1189.9863
 Red. masses --      2.3031                 1.4666                 1.8142
 Frc consts  --      1.7487                 1.1429                 1.5136
 IR Inten    --      0.6550                 6.4705                 0.9050

                     40                     41                     42
                      A                      A                      A
 Frequencies --   1220.9189              1231.9430              1250.9473
 Red. masses --      1.3596                 1.8391                 2.0104
 Frc consts  --      1.1941                 1.6445                 1.8536
 IR Inten    --      0.6454                 0.2848                 0.4876

                     43                     44                     45
                      A                      A                      A
 Frequencies --   1289.6916              1330.7562              1360.9629
 Red. masses --      1.4134                 2.0424                 1.8812
 Frc consts  --      1.3851                 2.1311                 2.0529
 IR Inten    --      0.2028                 8.4818                 0.9570

                     46                     47                     48
                      A                      A                      A
 Frequencies --   1363.3773              1398.9950              1426.0891
 Red. masses --      1.3240                 1.7173                 1.2288
 Frc consts  --      1.4501                 1.9803                 1.4724
 IR Inten    --      2.9571                 5.7281                 2.8226

                     49                     50                     51
                      A                      A                      A
 Frequencies --   1428.5764              1445.6652              1456.9865
 Red. masses --      1.2468                 1.2703                 1.6890
 Frc consts  --      1.4992                 1.5641                 2.1125
 IR Inten    --      8.5658                 1.4613                 1.7671

                     52                     53                     54
                      A                      A                      A
 Frequencies --   1473.0332              1517.3914              1519.1266
 Red. masses --      1.8432                 1.0443                 1.0611
 Frc consts  --      2.3565                 1.4167                 1.4427
 IR Inten    --     13.7191                 0.0228                 3.9665

                     55                     56                     57
                      A                      A                      A
 Frequencies --   1521.1501              1522.6430              1532.4796
 Red. masses --      1.0485                 1.0630                 1.0489
 Frc consts  --      1.4294                 1.4521                 1.4513
 IR Inten    --      2.0748                 5.7747                 8.5212

                     58                     59                     60
                      A                      A                      A
 Frequencies --   1537.6366              1565.5138              1620.2589
 Red. masses --      1.0756                 2.3679                 5.8102
 Frc consts  --      1.4983                 3.4192                 8.9870
 IR Inten    --      2.6473                16.0517                 0.1186

                     61                     62                     63
                      A                      A                      A
 Frequencies --   1674.1987              1725.0492              3029.3958
 Red. masses --      5.7608                 6.4134                 1.0453
 Frc consts  --      9.5137                11.2445                 5.6521
 IR Inten    --      1.1791                 1.6619                30.5174

                     64                     65                     66
                      A                      A                      A
 Frequencies --   3033.3491              3044.2591              3048.4526
 Red. masses --      1.0843                 1.0347                 1.0353
 Frc consts  --      5.8779                 5.6497                 5.6685
 IR Inten    --     18.1602                26.1628                36.0740

                     67                     68                     69
                      A                      A                      A
 Frequencies --   3082.3090              3108.5642              3114.9579
 Red. masses --      1.0925                 1.1026                 1.1018
 Frc consts  --      6.1156                 6.2775                 6.2985
 IR Inten    --     28.8706                 0.0004                88.5975

                     70                     71                     72
                      A                      A                      A
 Frequencies --   3121.4046              3123.1270              3130.4699
 Red. masses --      1.1028                 1.1023                 1.0947
 Frc consts  --      6.3305                 6.3348                 6.3206
 IR Inten    --     24.2867                33.4828                 6.0135

                     73                     74                     75
                      A                      A                      A
 Frequencies --   3141.8322              3164.3316              3174.4905
 Red. masses --      1.0875                 1.0935                 1.0869
 Frc consts  --      6.3245                 6.4513                 6.4533
 IR Inten    --      6.0304                49.6150                30.6041

                     76                     77                     78
                      A                      A                      A
 Frequencies --   3175.9739              3193.0431              3219.3428
 Red. masses --      1.0883                 1.0938                 1.0917
 Frc consts  --      6.4678                 6.5706                 6.6663
 IR Inten    --      6.0227                27.0267                11.2784

 - Thermochemistry -
 -------------------
 Temperature   298.150 Kelvin.  Pressure   1.00000 Atm.
 Atom     1 has atomic number  6 and mass  12.00000

 Molecular mass:   160.12520 amu.
 Principal axes and moments of inertia in atomic units:
                           1         2         3
     Eigenvalues --   731.033554225.234314477.22493
           X            0.99997   0.00765   0.00036
           Y           -0.00765   0.99996   0.00440
           Z           -0.00033  -0.00440   0.99999
 This molecule is an asymmetric top.
 Rotational symmetry number  1.
 Warning -- assumption of classical behavior for rotation
           may cause significant error
 Rotational temperatures (Kelvin)      0.11848     0.02050     0.01935
 Rotational constants (GHZ):           2.46875     0.42713     0.40309
 Zero-point vibrational energy     650070.8 (Joules/Mol)
                                  155.37066 (Kcal/Mol)
 Warning -- explicit consideration of  17 degrees of freedom as
           vibrations may cause significant error
 Vibrational temperatures:     44.49    83.89   115.60   179.84   255.04
          (Kelvin)            272.28   340.38   343.20   380.27   430.51
                              440.61   527.59   608.89   622.79   685.49
                              738.32   817.27   911.16   955.51  1029.04
                             1053.43  1123.17  1197.28  1232.18  1250.77
                             1306.82  1356.12  1369.00  1387.87  1396.61
                             1403.39  1441.03  1498.00  1542.51  1562.24
                             1591.33  1633.32  1654.73  1712.12  1756.63
                             1772.49  1799.83  1855.58  1914.66  1958.12
                             1961.60  2012.84  2051.82  2055.40  2079.99
                             2096.28  2119.37  2183.19  2185.68  2188.60
                             2190.74  2204.90  2212.32  2252.43  2331.19
                             2408.80  2481.96  4358.62  4364.31  4380.01
                             4386.04  4434.76  4472.53  4481.73  4491.00
                             4493.48  4504.05  4520.40  4552.77  4567.38
                             4569.52  4594.08  4631.92

 Zero-point correction=                           0.247599 (Hartree/Particle)
 Thermal correction to Energy=                    0.260000
 Thermal correction to Enthalpy=                  0.260945
 Thermal correction to Gibbs Free Energy=         0.208546
 Sum of electronic and zero-point Energies=           -466.711329
 Sum of electronic and thermal Energies=              -466.698927
 Sum of electronic and thermal Enthalpies=            -466.697983
 Sum of electronic and thermal Free Energies=         -466.750381

                     E (Thermal)             CV                S
                      KCal/Mol        Cal/Mol-Kelvin    Cal/Mol-Kelvin
 Total                  163.153             47.094            110.281
 Electronic               0.000              0.000              0.000
 Translational            0.889              2.981             41.121
 Rotational               0.889              2.981             31.004
 Vibrational            161.375             41.133             38.156
 Vibration     1          0.594              1.984              5.769
 Vibration     2          0.596              1.974              4.514
 Vibration     3          0.600              1.962              3.882
 Vibration     4          0.610              1.928              3.022
 Vibration     5          0.628              1.870              2.357
 Vibration     6          0.633              1.855              2.235
 Vibration     7          0.655              1.785              1.828
 Vibration     8          0.657              1.782              1.814
 Vibration     9          0.671              1.738              1.633
 Vibration    10          0.692              1.675              1.421
 Vibration    11          0.697              1.662              1.383
 Vibration    12          0.740              1.541              1.094
 Vibration    13          0.785              1.420              0.881
 Vibration    14          0.794              1.399              0.849
 Vibration    15          0.833              1.302              0.720
 Vibration    16          0.868              1.221              0.626
 Vibration    17          0.924              1.100              0.508

                           ! Non-Optimized Parameters !
 Normal termination of Gaussian 16 at Wed Dec  9 17:02:10 2020.

 ----------------------------------------------------------------------
 # B3LYP/6-311++G(d,p) empiricaldispersion=gd3bj scf=xqc pop=npa geom=c
 heck
 ----------------------------------------------------------------------

 --------------------------------------
 CID_12571312_JID_2233_Energie_neutraal
 --------------------------------------
 Structure from the checkpoint file:  "JID_2233.chk"
 Charge =  0 Multiplicity = 1

 SCF Done:  E(RB3LYP) =  -467.081826217     A.U. after   14 cycles
 Normal termination of Gaussian 16 at Wed Dec  9 17:05:20 2020.

 ----------------------------------------------------------------------
 # B3LYP/6-311++G(d,p) empiricaldispersion=gd3bj scf=xqc pop=npa geom=c
 heck
 ----------------------------------------------------------------------

 ------------------------------------
 CID_12571312_JID_2233_Energie_kation
 ------------------------------------
 Structure from the checkpoint file:  "JID_2233.chk"
 Charge =  1 Multiplicity = 2

 SCF Done:  E(UB3LYP) =  -466.795652905     A.U. after   21 cycles
 Normal termination of Gaussian 16 at Wed Dec  9 17:11:39 2020.
 Gaussian 16:  ES64L-G16RevA.03 25-Dec-2016

 ----------------------------------------------------------------------
 # B3LYP/6-311++G(d,p) empiricaldispersion=gd3bj scf=xqc pop=npa geom=c
 heck
 ----------------------------------------------------------------------

 -----------------------------------
 CID_12571312_JID_2233_Energie_anion
 -----------------------------------
 Structure from the checkpoint file:  "JID_2233.chk"
 Charge = -1 Multiplicity = 2

                         Standard orientation:
 ---------------------------------------------------------------------
 Center     Atomic      Atomic             Coordinates (Angstroms)
 Number     Number       Type             X           Y           Z
 ---------------------------------------------------------------------
      1          6           0        3.977048    1.222020    0.390689
      2          6           0        3.900848   -0.237862    0.045387
      3          6           0        2.801748   -0.982104   -0.160176
      4          6           0        1.392999   -0.557194   -0.153013
      5          6           0        0.408370   -1.459159    0.289236
      6          6           0       -0.935422   -1.106240    0.320622
      7          6           0       -1.360708    0.160449   -0.104879
      8          6           0       -0.387430    1.049430   -0.571027
      9          6           0        0.961872    0.701810   -0.601008
     10          6           0       -2.827220    0.552694   -0.075536
     11          6           0       -3.673271   -0.347404   -0.991858
     12          6           0       -3.381699    0.555520    1.359168
     13          1           0        3.034992    1.597447    0.799485
     14          1           0        4.228629    1.835640   -0.486323
     15          1           0        4.767161    1.396127    1.130902
     16          1           0        4.859009   -0.753321   -0.012887
     17          1           0        2.950001   -2.049437   -0.323931
     18          1           0        0.711879   -2.448507    0.623331
     19          1           0       -1.664998   -1.828342    0.678135
     20          1           0       -0.692660    2.030296   -0.928695
     21          1           0        1.682187    1.402890   -1.007925
     22          1           0       -2.897043    1.578705   -0.461043
     23          1           0       -3.654767   -1.388116   -0.648010
     24          1           0       -4.718691   -0.017540   -1.001589
     25          1           0       -3.296078   -0.328748   -2.019732
     26          1           0       -2.797458    1.218351    2.006069
     27          1           0       -4.424821    0.892525    1.371356
     28          1           0       -3.350159   -0.449732    1.795235
 ---------------------------------------------------------------------

 SCF Done:  E(UB3LYP) =  -467.066439571     A.U. after   33 cycles
 SCF Done:  E(UB3LYP) =  -467.066439571     a.u. after    1 cycles

 The electronic state is 2-A.
 Alpha  occ. eigenvalues --  -10.07584 -10.06819 -10.06571 -10.06307 -10.06297
 Alpha  occ. eigenvalues --  -10.06292 -10.06229 -10.06197 -10.06182 -10.05971
 Alpha  occ. eigenvalues --  -10.05842 -10.05611  -0.75484  -0.70793  -0.67898
 Alpha  occ. eigenvalues --   -0.63868  -0.62851  -0.58328  -0.57934  -0.51650
 Alpha  occ. eigenvalues --   -0.49853  -0.46259  -0.44137  -0.38298  -0.37737
 Alpha  occ. eigenvalues --   -0.35132  -0.34679  -0.32689  -0.32260  -0.31421
 Alpha  occ. eigenvalues --   -0.31256  -0.30730  -0.28957  -0.28624  -0.27157
 Alpha  occ. eigenvalues --   -0.25861  -0.24481  -0.24232  -0.23595  -0.22204
 Alpha  occ. eigenvalues --   -0.21666  -0.17435  -0.14754  -0.11512   0.04648
 Alpha virt. eigenvalues --    0.06191   0.06987   0.07654   0.08308   0.08585
 Alpha virt. eigenvalues --    0.08864   0.09288   0.09650   0.10221   0.10749
 Alpha virt. eigenvalues --    0.11772   0.11955   0.12279   0.12852   0.13290

  Beta  occ. eigenvalues --  -10.07581 -10.06762 -10.06482 -10.06299 -10.06283
  Beta  occ. eigenvalues --  -10.06281 -10.06220 -10.06142 -10.06103 -10.05957
  Beta  occ. eigenvalues --  -10.05819 -10.05571  -0.75381  -0.70682  -0.67791
  Beta  occ. eigenvalues --   -0.63788  -0.62737  -0.58262  -0.57849  -0.51532
  Beta  occ. eigenvalues --   -0.49788  -0.46157  -0.44036  -0.38230  -0.37662
  Beta  occ. eigenvalues --   -0.35055  -0.34614  -0.32630  -0.32207  -0.31338
  Beta  occ. eigenvalues --   -0.31162  -0.30655  -0.28895  -0.28583  -0.27084
  Beta  occ. eigenvalues --   -0.25705  -0.24426  -0.24151  -0.23518  -0.22155
  Beta  occ. eigenvalues --   -0.21602  -0.17132  -0.14575  -0.11099
  Beta virt. eigenvalues --    0.06734   0.07201   0.07646   0.08116   0.08818
  Beta virt. eigenvalues --    0.08951   0.09258   0.09361   0.09993   0.10735
  Beta virt. eigenvalues --    0.10936   0.12048   0.12106   0.12483   0.13240

 Mulliken charges and spin densities:
               1          2
     1  C    0.523707  -1.372111
     2  C    0.161868  -0.163121
     3  C   -0.051115  -0.642635
     4  C    1.257087   0.262046
     5  C   -0.256092   0.085736
     6  C   -0.258450  -0.236618
     7  C    2.293049  -1.347249
     8  C   -0.872234   0.354402
     9  C   -0.919776   0.125009
    10  C   -1.955171   2.054857
    11  C    0.351857  -1.022799
    12  C    0.815936  -1.491413
    13  H    0.090175   0.043334
    14  H   -0.051920   0.201252
    15  H   -0.174737   0.310246
    16  H   -0.460917   0.620508
    17  H   -0.024698   0.177534
    18  H   -0.284759   0.440320
    19  H    0.064948   0.056024
    20  H   -0.238719   0.385588
    21  H    0.044518   0.097871
    22  H   -0.111188   0.280521
    23  H   -0.112475   0.255723
    24  H   -0.295923   0.438445
    25  H    0.051990   0.076221
    26  H    0.012154   0.119484
    27  H   -0.442447   0.590286
    28  H   -0.156668   0.300540
 Sum of Mulliken charges =  -1.00000   1.00000

 Dipole moment (field-independent basis, Debye):
    X=              0.3473    Y=              0.0056    Z=             -0.6740  Tot=              0.7583
 Quadrupole moment (field-independent basis, Debye-Ang):
   XX=           -175.4330   YY=           -104.2035   ZZ=           -102.7174
   XY=              5.9188   XZ=              3.6982   YZ=             -1.5907

 Summary of Natural Population Analysis:

                                       Natural Population
                Natural  -----------------------------------------------
    Atom  No    Charge         Core      Valence    Rydberg      Total
 -----------------------------------------------------------------------
      C    1   -0.31051      0.99965     2.30403    0.00683     3.31051
      C    2   -0.06627      0.99955     2.05745    0.00927     3.06627
      C    3   -0.10610      0.99951     2.09531    0.01128     3.10610
      C    4   -0.03435      0.99950     2.02476    0.01009     3.03435
      C    5   -0.08467      0.99953     2.07586    0.00928     3.08467
      C    6   -0.10440      0.99951     2.09661    0.00828     3.10440
      C    7    0.00287      0.99949     1.98642    0.01122     2.99713
      C    8   -0.10326      0.99951     2.09554    0.00821     3.10326
      C    9   -0.08672      0.99953     2.07914    0.00805     3.08672
      C   10   -0.11999      0.99959     2.10957    0.01083     3.11999
      C   11   -0.27870      0.99965     2.27313    0.00592     3.27870
      C   12   -0.27938      0.99965     2.27388    0.00586     3.27938
      H   13    0.10536      0.00000     0.39358    0.00106     0.39464
      H   14    0.10150      0.00000     0.39751    0.00099     0.39850
      H   15    0.10193      0.00000     0.39688    0.00119     0.39807
      H   16    0.09104      0.00000     0.40741    0.00155     0.40896
      H   17    0.09669      0.00000     0.40169    0.00163     0.40331
      H   18    0.09682      0.00000     0.40183    0.00135     0.40318
      H   19    0.09859      0.00000     0.40031    0.00110     0.40141
      H   20    0.09690      0.00000     0.40161    0.00149     0.40310
      H   21    0.09927      0.00000     0.39922    0.00151     0.40073
      H   22    0.09456      0.00000     0.40338    0.00206     0.40544
      H   23    0.09614      0.00000     0.40278    0.00108     0.40386
      H   24    0.09762      0.00000     0.40143    0.00096     0.40238
      H   25    0.09949      0.00000     0.39963    0.00088     0.40051
      H   26    0.10032      0.00000     0.39878    0.00090     0.39968
      H   27    0.09959      0.00000     0.39866    0.00175     0.40041
      H   28    0.09566      0.00000     0.40323    0.00111     0.40434
 =======================================================================
   * Total *    0.00000     11.99467    31.87963    0.12570    44.00000

 Normal termination of Gaussian 16 at Wed Dec  9 17:21:16 2020.
