 Gaussian 16, Revision A.03,

 -----------------------------------------------------------
 # opt freq B3LYP/6-31G(d) empiricaldispersion=gd3bj scf=xqc
 -----------------------------------------------------------

 ------------------------------
 CID_13273096_JID_2925_neutraal
 ------------------------------
 Symbolic Z-matrix:
 Charge =  0 Multiplicity = 1

 SCF Done:  E(RB3LYP) =  -611.475830058     A.U. after   13 cycles
 SCF Done:  E(RB3LYP) =  -611.479110928     A.U. after   11 cycles
 SCF Done:  E(RB3LYP) =  -611.478129275     A.U. after   12 cycles
 SCF Done:  E(RB3LYP) =  -611.480262608     A.U. after   11 cycles
 SCF Done:  E(RB3LYP) =  -611.480682084     A.U. after   11 cycles
 SCF Done:  E(RB3LYP) =  -611.480956834     A.U. after   11 cycles
 SCF Done:  E(RB3LYP) =  -611.481097573     A.U. after   10 cycles
 SCF Done:  E(RB3LYP) =  -611.481278218     A.U. after   11 cycles
 SCF Done:  E(RB3LYP) =  -611.481508820     A.U. after   11 cycles
 SCF Done:  E(RB3LYP) =  -611.481568709     A.U. after   11 cycles
 SCF Done:  E(RB3LYP) =  -611.491006700     A.U. after   10 cycles
 SCF Done:  E(RB3LYP) =  -611.491013433     A.U. after    9 cycles
 SCF Done:  E(RB3LYP) =  -611.491015473     A.U. after    8 cycles
 SCF Done:  E(RB3LYP) =  -611.491015776     A.U. after    7 cycles
 SCF Done:  E(RB3LYP) =  -611.491015877     A.U. after    7 cycles
 SCF Done:  E(RB3LYP) =  -611.491015885     A.U. after    6 cycles
 Optimization completed.
    -- Stationary point found.
 Normal termination of Gaussian 16 at Wed Dec  9 18:29:30 2020.

 --------------------------------------------------------------------
 #N Geom=AllCheck Guess=TCheck SCRF=Check GenChk RB3LYP/6-31G(d) Freq
 --------------------------------------------------------------------

 Structure from the checkpoint file:  "JID_2925.chk"
 ------------------------------
 CID_13273096_JID_2925_neutraal
 ------------------------------
 Charge =  0 Multiplicity = 1

 SCF Done:  E(RB3LYP) =  -611.491015885     A.U. after    1 cycles

  Exact polarizability: 109.684   3.178  98.134  -1.705  -3.854  86.145
 Approx polarizability: 135.014   5.099 136.855  -1.540  -3.609 125.557

                      1                      2                      3
                      A                      A                      A
 Frequencies --     28.0958                37.1424                77.9946
 Red. masses --      3.4283                 4.4560                 3.9334
 Frc consts  --      0.0016                 0.0036                 0.0141
 IR Inten    --      0.5226                 0.4718                 2.1451

                      4                      5                      6
                      A                      A                      A
 Frequencies --     92.0266               131.1557               158.8528
 Red. masses --      2.4752                 1.7829                 2.6115
 Frc consts  --      0.0124                 0.0181                 0.0388
 IR Inten    --      6.8787                16.7619                17.0780

                      7                      8                      9
                      A                      A                      A
 Frequencies --    194.5803               213.0733               258.1025
 Red. masses --      3.1300                 3.3282                 1.7899
 Frc consts  --      0.0698                 0.0890                 0.0703
 IR Inten    --     14.4402                 2.4133                 0.7446

                     10                     11                     12
                      A                      A                      A
 Frequencies --    307.1662               328.5757               355.2752
 Red. masses --      6.1736                 2.6679                 2.1831
 Frc consts  --      0.3432                 0.1697                 0.1624
 IR Inten    --      0.1977                 2.5381                 3.2235

                     13                     14                     15
                      A                      A                      A
 Frequencies --    400.4391               424.1585               432.9478
 Red. masses --      4.2577                 1.7871                 1.2052
 Frc consts  --      0.4023                 0.1894                 0.1331
 IR Inten    --     12.0375                 4.4866                84.7066

                     16                     17                     18
                      A                      A                      A
 Frequencies --    463.3221               498.2459               512.4528
 Red. masses --      2.4061                 2.7218                 5.2262
 Frc consts  --      0.3043                 0.3981                 0.8086
 IR Inten    --     53.2766                 0.6941                 6.0304

                     19                     20                     21
                      A                      A                      A
 Frequencies --    626.3625               644.0816               820.6106
 Red. masses --      2.7604                 2.0064                 3.3974
 Frc consts  --      0.6381                 0.4904                 1.3479
 IR Inten    --      3.4054                 8.5183                10.5701

                     22                     23                     24
                      A                      A                      A
 Frequencies --    866.7544               875.1017               892.1302
 Red. masses --      2.8419                 1.6168                 2.9275
 Frc consts  --      1.2579                 0.7295                 1.3728
 IR Inten    --     11.9802                 0.9377                28.1820

                     25                     26                     27
                      A                      A                      A
 Frequencies --    917.0380               942.4943               963.9542
 Red. masses --      2.2745                 2.6961                 2.4858
 Frc consts  --      1.1269                 1.4110                 1.3609
 IR Inten    --     14.2895                 3.6818                 7.4995

                     28                     29                     30
                      A                      A                      A
 Frequencies --    992.8110              1032.5058              1057.8891
 Red. masses --      2.7435                 2.5786                 2.2444
 Frc consts  --      1.5933                 1.6196                 1.4799
 IR Inten    --     42.7545                20.7507                 6.6194

                     31                     32                     33
                      A                      A                      A
 Frequencies --   1062.8576              1109.5118              1115.9498
 Red. masses --      2.4321                 1.7264                 2.5574
 Frc consts  --      1.6188                 1.2521                 1.8764
 IR Inten    --     32.0321                 4.6035                66.4805

                     34                     35                     36
                      A                      A                      A
 Frequencies --   1133.8994              1154.9251              1159.8099
 Red. masses --      2.0207                 5.4091                 2.2417
 Frc consts  --      1.5308                 4.2509                 1.7766
 IR Inten    --     53.0394               102.6500                 8.8710

                     37                     38                     39
                      A                      A                      A
 Frequencies --   1179.7257              1198.1559              1245.1601
 Red. masses --      2.7812                 2.2446                 1.0821
 Frc consts  --      2.2806                 1.8985                 0.9885
 IR Inten    --     43.9291                 1.0068                 5.4469

                     40                     41                     42
                      A                      A                      A
 Frequencies --   1252.9368              1262.2708              1283.5338
 Red. masses --      1.4922                 1.2459                 1.2170
 Frc consts  --      1.3801                 1.1696                 1.1813
 IR Inten    --     86.0639                20.4422                 9.8402

                     43                     44                     45
                      A                      A                      A
 Frequencies --   1294.5805              1327.0461              1339.4615
 Red. masses --      1.3275                 1.3970                 1.4238
 Frc consts  --      1.3109                 1.4495                 1.5051
 IR Inten    --      1.6509                19.2231                20.3922

                     46                     47                     48
                      A                      A                      A
 Frequencies --   1341.9793              1352.4133              1374.6486
 Red. masses --      1.1449                 1.1994                 1.3831
 Frc consts  --      1.2148                 1.2925                 1.5399
 IR Inten    --      3.9229                 0.1189                31.2611

                     49                     50                     51
                      A                      A                      A
 Frequencies --   1378.9709              1406.4808              1410.2943
 Red. masses --      1.2778                 1.3394                 1.3207
 Frc consts  --      1.4316                 1.5610                 1.5477
 IR Inten    --      1.0688                 9.7693                20.2381

                     52                     53                     54
                      A                      A                      A
 Frequencies --   1429.4582              1441.6052              1450.6567
 Red. masses --      1.4410                 1.3531                 1.4842
 Frc consts  --      1.7349                 1.6568                 1.8402
 IR Inten    --      8.7222                 8.2342                 5.3409

                     55                     56                     57
                      A                      A                      A
 Frequencies --   1457.9318              1508.8414              1512.4317
 Red. masses --      1.3368                 1.0826                 1.0885
 Frc consts  --      1.6742                 1.4522                 1.4669
 IR Inten    --     58.3804                 1.5833                 1.1300

                     58                     59                     60
                      A                      A                      A
 Frequencies --   1518.3490              1525.7290              1532.6968
 Red. masses --      1.0873                 1.1087                 1.0969
 Frc consts  --      1.4768                 1.5206                 1.5182
 IR Inten    --      5.8002                 5.4044                 8.2991

                     61                     62                     63
                      A                      A                      A
 Frequencies --   1537.4843              1688.1821              2935.5322
 Red. masses --      1.0949                 1.0668                 1.0728
 Frc consts  --      1.5250                 1.7913                 5.4469
 IR Inten    --     20.4351                14.8032                29.4993

                     64                     65                     66
                      A                      A                      A
 Frequencies --   2942.6834              2974.8784              2994.5456
 Red. masses --      1.0720                 1.0714                 1.0698
 Frc consts  --      5.4695                 5.5866                 5.6523
 IR Inten    --     76.7419                76.3166                17.4373

                     67                     68                     69
                      A                      A                      A
 Frequencies --   3000.8484              3053.1629              3073.4178
 Red. masses --      1.0701                 1.0580                 1.0835
 Frc consts  --      5.6776                 5.8110                 6.0302
 IR Inten    --    109.0163                22.0430                18.1560

                     70                     71                     72
                      A                      A                      A
 Frequencies --   3079.8798              3093.6398              3099.4157
 Red. masses --      1.0898                 1.0885                 1.0900
 Frc consts  --      6.0909                 6.1380                 6.1691
 IR Inten    --     20.9922                23.7111                65.4304

                     73                     74                     75
                      A                      A                      A
 Frequencies --   3105.7411              3113.4550              3115.8106
 Red. masses --      1.1099                 1.0938                 1.0950
 Frc consts  --      6.3077                 6.2469                 6.2633
 IR Inten    --     42.0861                50.3683                34.5088

                     76                     77                     78
                      A                      A                      A
 Frequencies --   3410.3077              3506.1158              3713.3239
 Red. masses --      1.0477                 1.0962                 1.0652
 Frc consts  --      7.1789                 7.9393                 8.6541
 IR Inten    --      3.9792                 0.3763                33.0903

 - Thermochemistry -
 -------------------
 Temperature   298.150 Kelvin.  Pressure   1.00000 Atm.
 Atom     1 has atomic number  6 and mass  12.00000

 Molecular mass:   176.11609 amu.
 Principal axes and moments of inertia in atomic units:
                           1         2         3
     Eigenvalues --  1132.290163888.329084388.45807
           X            0.99996   0.00917   0.00089
           Y           -0.00914   0.99961  -0.02646
           Z           -0.00113   0.02645   0.99965
 This molecule is an asymmetric top.
 Rotational symmetry number  1.
 Warning -- assumption of classical behavior for rotation
           may cause significant error
 Rotational temperatures (Kelvin)      0.07649     0.02228     0.01974
 Rotational constants (GHZ):           1.59389     0.46414     0.41125
 Zero-point vibrational energy     650446.0 (Joules/Mol)
                                  155.46032 (Kcal/Mol)
 Warning -- explicit consideration of  18 degrees of freedom as
           vibrations may cause significant error
 Vibrational temperatures:     40.42    53.44   112.22   132.41   188.70
          (Kelvin)            228.55   279.96   306.56   371.35   441.94
                              472.75   511.16   576.14   610.27   622.92
                              666.62   716.86   737.31   901.20   926.69
                             1180.68  1247.07  1259.08  1283.58  1319.41
                             1356.04  1386.92  1428.43  1485.55  1522.07
                             1529.22  1596.34  1605.60  1631.43  1661.68
                             1668.71  1697.36  1723.88  1791.51  1802.70
                             1816.13  1846.72  1862.61  1909.32  1927.19
                             1930.81  1945.82  1977.81  1984.03  2023.61
                             2029.10  2056.67  2074.15  2087.17  2097.64
                             2170.89  2176.05  2184.57  2195.18  2205.21
                             2212.10  2428.92  4223.58  4233.87  4280.19
                             4308.48  4317.55  4392.82  4421.96  4431.26
                             4451.06  4459.37  4468.47  4479.57  4482.96
                             4906.67  5044.52  5342.64

 Zero-point correction=                           0.247742 (Hartree/Particle)
 Thermal correction to Energy=                    0.260585
 Thermal correction to Enthalpy=                  0.261530
 Thermal correction to Gibbs Free Energy=         0.207136
 Sum of electronic and zero-point Energies=           -611.243274
 Sum of electronic and thermal Energies=              -611.230430
 Sum of electronic and thermal Enthalpies=            -611.229486
 Sum of electronic and thermal Free Energies=         -611.283880

                     E (Thermal)             CV                S
                      KCal/Mol        Cal/Mol-Kelvin    Cal/Mol-Kelvin
 Total                  163.520             47.122            114.480
 Electronic               0.000              0.000              0.000
 Translational            0.889              2.981             41.405
 Rotational               0.889              2.981             31.336
 Vibrational            161.742             41.160             41.739
 Vibration     1          0.593              1.984              5.960
 Vibration     2          0.594              1.982              5.406
 Vibration     3          0.599              1.964              3.941
 Vibration     4          0.602              1.955              3.617
 Vibration     5          0.612              1.922              2.929
 Vibration     6          0.621              1.893              2.563
 Vibration     7          0.635              1.847              2.184
 Vibration     8          0.644              1.821              2.017
 Vibration     9          0.667              1.749              1.675
 Vibration    10          0.697              1.660              1.378
 Vibration    11          0.712              1.618              1.267
 Vibration    12          0.731              1.564              1.143
 Vibration    13          0.766              1.469              0.961
 Vibration    14          0.786              1.418              0.878
 Vibration    15          0.794              1.398              0.849
 Vibration    16          0.821              1.331              0.756
 Vibration    17          0.854              1.254              0.663
 Vibration    18          0.868              1.222              0.628

 Optimization completed.
    -- Stationary point found.
 Normal termination of Gaussian 16 at Wed Dec  9 18:36:15 2020.

 ----------------------------------------------------------------------
 # B3LYP/6-311++G(d,p) empiricaldispersion=gd3bj scf=xqc pop=npa geom=c
 heck
 ----------------------------------------------------------------------

 --------------------------------------
 CID_13273096_JID_2925_Energie_neutraal
 --------------------------------------
 Structure from the checkpoint file:  "JID_2925.chk"
 Charge =  0 Multiplicity = 1

 SCF Done:  E(RB3LYP) =  -611.688296679     A.U. after   13 cycles
 Normal termination of Gaussian 16 at Wed Dec  9 18:39:02 2020.

 ----------------------------------------------------------------------
 # B3LYP/6-311++G(d,p) empiricaldispersion=gd3bj scf=xqc pop=npa geom=c
 heck
 ----------------------------------------------------------------------

 ------------------------------------
 CID_13273096_JID_2925_Energie_kation
 ------------------------------------
 Structure from the checkpoint file:  "JID_2925.chk"
 Charge =  1 Multiplicity = 2

 SCF Done:  E(UB3LYP) =  -611.385502380     A.U. after   24 cycles
 Normal termination of Gaussian 16 at Wed Dec  9 18:46:07 2020.
 Gaussian 16:  ES64L-G16RevA.03 25-Dec-2016

 ----------------------------------------------------------------------
 # B3LYP/6-311++G(d,p) empiricaldispersion=gd3bj scf=xqc pop=npa geom=c
 heck
 ----------------------------------------------------------------------

 -----------------------------------
 CID_13273096_JID_2925_Energie_anion
 -----------------------------------
 Structure from the checkpoint file:  "JID_2925.chk"
 Charge = -1 Multiplicity = 2

                         Standard orientation:
 ---------------------------------------------------------------------
 Center     Atomic      Atomic             Coordinates (Angstroms)
 Number     Number       Type             X           Y           Z
 ---------------------------------------------------------------------
      1          6           0        1.693454    1.129590   -0.419208
      2          6           0        2.825550    0.388485   -1.123371
      3          8           0        3.552031   -0.427520   -0.216165
      4          6           0        2.689539   -1.364871    0.412733
      5          6           0        1.557492   -0.663987    1.156807
      6          7           0        0.798371    0.168607    0.225341
      7          6           0       -0.359321    0.803215    0.848316
      8          6           0       -1.454096    1.165821   -0.169512
      9          6           0       -2.008231   -0.064396   -0.880266
     10          8           0       -2.685520   -0.820955    0.128176
     11          7           0       -3.376410   -1.921795   -0.493557
     12          8           0       -2.500295    1.885712    0.473765
     13          1           0        2.122897    1.835467    0.318353
     14          1           0        1.134126    1.717778   -1.154472
     15          1           0        2.406426   -0.228389   -1.935294
     16          1           0        3.544075    1.094084   -1.550230
     17          1           0        3.310021   -1.942922    1.103693
     18          1           0        2.260959   -2.047848   -0.339165
     19          1           0        1.985731   -0.067996    1.986195
     20          1           0        0.884188   -1.411580    1.592202
     21          1           0       -0.791057    0.095947    1.564158
     22          1           0       -0.089041    1.714825    1.410152
     23          1           0       -1.047122    1.840875   -0.930582
     24          1           0       -2.720612    0.229079   -1.660125
     25          1           0       -1.196431   -0.651986   -1.323519
     26          1           0       -2.982211   -2.740414   -0.024089
     27          1           0       -4.327564   -1.834016   -0.129234
     28          1           0       -3.044159    1.208381    0.910257
 ---------------------------------------------------------------------

 SCF Done:  E(UB3LYP) =  -611.674467025     A.U. after   30 cycles

 The electronic state is 2-A.
 Alpha  occ. eigenvalues --  -19.04608 -19.03345 -19.02297 -14.23744 -14.21478
 Alpha  occ. eigenvalues --  -10.12491 -10.12464 -10.11960 -10.10777 -10.10364
 Alpha  occ. eigenvalues --  -10.09755 -10.09367  -0.96265  -0.95060  -0.92489
 Alpha  occ. eigenvalues --   -0.83368  -0.72251  -0.68061  -0.65888  -0.60077
 Alpha  occ. eigenvalues --   -0.56282  -0.54926  -0.49404  -0.47196  -0.42341
 Alpha  occ. eigenvalues --   -0.41036  -0.40365  -0.39067  -0.38580  -0.37605
 Alpha  occ. eigenvalues --   -0.37097  -0.35522  -0.33556  -0.32852  -0.32263
 Alpha  occ. eigenvalues --   -0.31474  -0.29959  -0.28143  -0.26866  -0.26631
 Alpha  occ. eigenvalues --   -0.25868  -0.23162  -0.21976  -0.18595  -0.17105
 Alpha  occ. eigenvalues --   -0.16766  -0.15712  -0.13051   0.04685
 Alpha virt. eigenvalues --    0.06333   0.07319   0.08039   0.08795   0.09526
 Alpha virt. eigenvalues --    0.09928   0.10495   0.10617   0.11502   0.12485
 Alpha virt. eigenvalues --    0.13142   0.13320   0.13598   0.14022   0.15167

  Beta  occ. eigenvalues --  -19.04590 -19.03339 -19.02290 -14.23659 -14.21468
  Beta  occ. eigenvalues --  -10.12476 -10.12457 -10.11940 -10.10767 -10.10353
  Beta  occ. eigenvalues --  -10.09736 -10.09360  -0.96226  -0.95045  -0.92468
  Beta  occ. eigenvalues --   -0.83345  -0.72101  -0.68033  -0.65845  -0.60035
  Beta  occ. eigenvalues --   -0.56237  -0.54887  -0.49368  -0.47153  -0.42282
  Beta  occ. eigenvalues --   -0.40995  -0.40298  -0.39035  -0.38544  -0.37574
  Beta  occ. eigenvalues --   -0.37060  -0.35491  -0.33518  -0.32826  -0.32239
  Beta  occ. eigenvalues --   -0.31426  -0.29920  -0.28111  -0.26840  -0.26599
  Beta  occ. eigenvalues --   -0.25843  -0.23139  -0.21951  -0.18576  -0.17071
  Beta  occ. eigenvalues --   -0.16733  -0.15634  -0.13004
  Beta virt. eigenvalues --    0.06737   0.07746   0.08135   0.08221   0.09199
  Beta virt. eigenvalues --    0.10066   0.10457   0.10690   0.10885   0.11931
  Beta virt. eigenvalues --    0.12727   0.13234   0.13717   0.13854   0.14264

 Mulliken charges and spin densities:
               1          2
     1  C   -0.237542   0.051006
     2  C    0.381620  -0.790554
     3  O   -0.189564   0.065822
     4  C    0.453545  -0.897410
     5  C    0.131080  -0.222588
     6  N    0.135229   0.098792
     7  C   -0.398206  -0.139531
     8  C   -0.392202   0.175794
     9  C    0.438514  -0.795000
    10  O   -0.242303   0.129497
    11  N    0.068179  -0.437737
    12  O   -0.194926   0.011155
    13  H    0.039615   0.093664
    14  H   -0.098034   0.207577
    15  H   -0.014030   0.149206
    16  H   -0.103574   0.273596
    17  H   -0.200196   0.383869
    18  H   -0.073438   0.215917
    19  H    0.029204   0.097473
    20  H   -0.318284   0.476488
    21  H   -0.056560   0.283596
    22  H    0.091585   0.008653
    23  H    0.078416   0.106716
    24  H    0.049631   0.109425
    25  H    0.132824   0.061493
    26  H   -0.292405   0.550730
    27  H   -0.415110   0.674244
    28  H    0.196932   0.058106
 Sum of Mulliken charges =  -1.00000   1.00000

 Dipole moment (field-independent basis, Debye):
    X=              4.5631    Y=              5.4727    Z=             -0.8097  Tot=              7.1713
 Quadrupole moment (field-independent basis, Debye-Ang):
   XX=           -152.7778   YY=           -121.7518   ZZ=           -100.9668
   XY=            -11.5712   XZ=              0.6933   YZ=              2.9667

 Summary of Natural Population Analysis:

                                       Natural Population
                Natural  -----------------------------------------------
    Atom  No    Charge         Core      Valence    Rydberg      Total
 -----------------------------------------------------------------------
      C    1   -0.09925      0.99961     2.08814    0.01150     3.09925
      C    2   -0.01182      0.99957     2.00060    0.01165     3.01182
      O    3   -0.29949      0.99989     3.29009    0.00951     4.29949
      C    4   -0.01487      0.99957     2.00131    0.01399     3.01487
      C    5   -0.09792      0.99961     2.08608    0.01222     3.09792
      N    6   -0.28558      0.99970     2.77309    0.01279     3.78558
      C    7   -0.09551      0.99959     2.08301    0.01291     3.09551
      C    8    0.05073      0.99955     1.93573    0.01399     2.94927
      C    9   -0.01569      0.99956     2.00327    0.01285     3.01569
      O   10   -0.25399      0.99990     3.23926    0.01484     4.25399
      N   11   -0.25001      0.99976     2.73882    0.01143     3.75001
      O   12   -0.37375      0.99990     3.36741    0.00644     4.37375
      H   13    0.08140      0.00000     0.41703    0.00157     0.41860
      H   14    0.09803      0.00000     0.40037    0.00160     0.40197
      H   15    0.08031      0.00000     0.41792    0.00176     0.41969
      H   16    0.09068      0.00000     0.40802    0.00130     0.40932
      H   17    0.09224      0.00000     0.40648    0.00128     0.40776
      H   18    0.08198      0.00000     0.41619    0.00182     0.41802
      H   19    0.07984      0.00000     0.41871    0.00146     0.42016
      H   20    0.10589      0.00000     0.39219    0.00191     0.39411
      H   21    0.10383      0.00000     0.39410    0.00207     0.39617
      H   22    0.08590      0.00000     0.41273    0.00138     0.41410
      H   23    0.08595      0.00000     0.41266    0.00139     0.41405
      H   24    0.08586      0.00000     0.41266    0.00148     0.41414
      H   25    0.09326      0.00000     0.40446    0.00228     0.40674
      H   26    0.17538      0.00000     0.31447    0.01015     0.32462
      H   27    0.17255      0.00000     0.31834    0.00911     0.32745
      H   28    0.23404      0.00000     0.26278    0.00317     0.26596
 =======================================================================
   * Total *    0.00000     11.99624    35.81592    0.18784    48.00000

 Normal termination of Gaussian 16 at Wed Dec  9 18:54:53 2020.
