 Gaussian 16, Revision A.03,

 -----------------------------------------------------------
 # opt freq B3LYP/6-31G(d) empiricaldispersion=gd3bj scf=xqc
 -----------------------------------------------------------

 -------------------------------
 CID_131244704_JID_2660_neutraal
 -------------------------------
 Symbolic Z-matrix:
 Charge =  0 Multiplicity = 1

 SCF Done:  E(RB3LYP) =  -912.245911717     A.U. after   15 cycles
 SCF Done:  E(RB3LYP) =  -912.250563150     A.U. after   13 cycles
 SCF Done:  E(RB3LYP) =  -912.252115249     A.U. after   12 cycles
 SCF Done:  E(RB3LYP) =  -912.253425462     A.U. after   12 cycles
 SCF Done:  E(RB3LYP) =  -912.253905719     A.U. after   12 cycles
 SCF Done:  E(RB3LYP) =  -912.254091381     A.U. after   13 cycles
 SCF Done:  E(RB3LYP) =  -912.254611237     A.U. after   12 cycles
 SCF Done:  E(RB3LYP) =  -912.254865135     A.U. after   13 cycles
 SCF Done:  E(RB3LYP) =  -912.254882530     A.U. after   11 cycles
 SCF Done:  E(RB3LYP) =  -912.254935037     A.U. after   10 cycles
 SCF Done:  E(RB3LYP) =  -912.254950704     A.U. after    9 cycles
 SCF Done:  E(RB3LYP) =  -912.254952161     A.U. after    8 cycles
 SCF Done:  E(RB3LYP) =  -912.254953088     A.U. after    8 cycles
 SCF Done:  E(RB3LYP) =  -912.254953307     A.U. after    8 cycles
 SCF Done:  E(RB3LYP) =  -912.254953366     A.U. after    7 cycles
 SCF Done:  E(RB3LYP) =  -912.254953395     A.U. after    7 cycles
 Optimization completed.
    -- Stationary point found.
 Normal termination of Gaussian 16 at Wed Dec  9 18:11:37 2020.

 --------------------------------------------------------------------
 #N Geom=AllCheck Guess=TCheck SCRF=Check GenChk RB3LYP/6-31G(d) Freq
 --------------------------------------------------------------------

 Structure from the checkpoint file:  "JID_2660.chk"
 -------------------------------
 CID_131244704_JID_2660_neutraal
 -------------------------------
 Charge =  0 Multiplicity = 1

 SCF Done:  E(RB3LYP) =  -912.254953395     A.U. after    1 cycles

  Exact polarizability: 113.042   0.485 144.635   6.360   0.735  89.701
 Approx polarizability: 142.408  12.055 242.113  15.035   3.334 142.145

                      1                      2                      3
                      A                      A                      A
 Frequencies --     35.7990                48.2510                67.9140
 Red. masses --      4.5364                 4.0928                 4.8309
 Frc consts  --      0.0034                 0.0056                 0.0131
 IR Inten    --      2.2913                 2.0001                 1.6145

                      4                      5                      6
                      A                      A                      A
 Frequencies --     85.8511               112.0658               129.9382
 Red. masses --      4.2049                 3.2745                 2.5693
 Frc consts  --      0.0183                 0.0242                 0.0256
 IR Inten    --      4.8247                 1.0343                 0.6899

                      7                      8                      9
                      A                      A                      A
 Frequencies --    151.7296               199.8666               213.1811
 Red. masses --      2.0561                 2.3632                 1.1547
 Frc consts  --      0.0279                 0.0556                 0.0309
 IR Inten    --      1.0253                 0.4150                 0.1468

                     10                     11                     12
                      A                      A                      A
 Frequencies --    234.0766               280.8432               296.9787
 Red. masses --      1.6498                 3.8388                 3.6449
 Frc consts  --      0.0533                 0.1784                 0.1894
 IR Inten    --      1.8485                 5.6676                 3.7233

                     13                     14                     15
                      A                      A                      A
 Frequencies --    323.4213               338.5349               390.2912
 Red. masses --      5.3249                 2.9393                 3.2563
 Frc consts  --      0.3282                 0.1985                 0.2922
 IR Inten    --      5.9308                 1.4450                 8.8139

                     16                     17                     18
                      A                      A                      A
 Frequencies --    432.1666               489.0130               523.0480
 Red. masses --      3.8644                 4.1073                 3.6694
 Frc consts  --      0.4252                 0.5787                 0.5915
 IR Inten    --      4.3082                10.7606                 6.6340

                     19                     20                     21
                      A                      A                      A
 Frequencies --    592.3805               631.5891               644.8093
 Red. masses --      1.7099                 2.4174                 5.4988
 Frc consts  --      0.3535                 0.5682                 1.3470
 IR Inten    --     67.7960                75.3862                 8.5628

                     22                     23                     24
                      A                      A                      A
 Frequencies --    655.6758               693.8163               781.5739
 Red. masses --      1.2930                 2.3069                 2.0324
 Frc consts  --      0.3275                 0.6543                 0.7315
 IR Inten    --    135.9597                 2.9026                82.6815

                     25                     26                     27
                      A                      A                      A
 Frequencies --    791.5337               850.2218               884.6318
 Red. masses --      1.3278                 2.1073                 2.3610
 Frc consts  --      0.4902                 0.8975                 1.0886
 IR Inten    --     54.1372                14.6822                 2.8549

                     28                     29                     30
                      A                      A                      A
 Frequencies --    892.9192               939.4218               980.2233
 Red. masses --      2.2240                 2.4843                 1.8598
 Frc consts  --      1.0448                 1.2918                 1.0529
 IR Inten    --     15.1042                 9.1610                 3.7678

                     31                     32                     33
                      A                      A                      A
 Frequencies --   1021.6768              1061.0447              1090.1075
 Red. masses --      1.1045                 4.5489                 1.5278
 Frc consts  --      0.6793                 3.0173                 1.0697
 IR Inten    --     37.6696                45.8658                 3.7889

                     34                     35                     36
                      A                      A                      A
 Frequencies --   1118.3289              1128.9995              1140.1814
 Red. masses --      2.3382                 2.1703                 2.2940
 Frc consts  --      1.7229                 1.6299                 1.7570
 IR Inten    --     54.7839                42.8692                 1.8826

                     37                     38                     39
                      A                      A                      A
 Frequencies --   1196.9381              1246.3413              1318.5567
 Red. masses --      2.2650                 2.7841                 1.3015
 Frc consts  --      1.9119                 2.5481                 1.3332
 IR Inten    --     10.9115               128.1973                 5.6810

                     40                     41                     42
                      A                      A                      A
 Frequencies --   1334.1474              1341.7451              1357.2310
 Red. masses --      4.4018                 1.2535                 1.2592
 Frc consts  --      4.6162                 1.3296                 1.3666
 IR Inten    --    270.3013                31.5436                13.8991

                     43                     44                     45
                      A                      A                      A
 Frequencies --   1396.8738              1436.1351              1440.8354
 Red. masses --      1.4525                 1.2551                 1.2508
 Frc consts  --      1.6699                 1.5252                 1.5299
 IR Inten    --     33.5900                 6.9904                14.1841

                     46                     47                     48
                      A                      A                      A
 Frequencies --   1451.8927              1482.8921              1496.7526
 Red. masses --      1.4165                 1.1418                 1.7824
 Frc consts  --      1.7592                 1.4792                 2.3526
 IR Inten    --     29.5319                19.8842                69.2892

                     49                     50                     51
                      A                      A                      A
 Frequencies --   1504.5072              1514.4968              1521.2869
 Red. masses --      1.0458                 1.0667                 1.0585
 Frc consts  --      1.3947                 1.4415                 1.4433
 IR Inten    --      7.3831                12.3639                 0.9893

                     52                     53                     54
                      A                      A                      A
 Frequencies --   1528.9173              1542.6063              1593.1214
 Red. masses --      1.1504                 1.2328                 1.6114
 Frc consts  --      1.5844                 1.7285                 2.4096
 IR Inten    --     15.9636                28.0948               187.6378

                     55                     56                     57
                      A                      A                      A
 Frequencies --   1722.8200              1790.1547              3041.0882
 Red. masses --      5.7042                 8.0667                 1.0370
 Frc consts  --      9.9754                15.2309                 5.6506
 IR Inten    --     28.6108               356.6103                13.8492

                     58                     59                     60
                      A                      A                      A
 Frequencies --   3059.4039              3092.1691              3093.2796
 Red. masses --      1.0352                 1.0698                 1.0990
 Frc consts  --      5.7087                 6.0265                 6.1957
 IR Inten    --     17.1327                22.4478                14.1583

                     61                     62                     63
                      A                      A                      A
 Frequencies --   3127.9896              3131.8116              3133.2279
 Red. masses --      1.1025                 1.1018                 1.1000
 Frc consts  --      6.3557                 6.3672                 6.3627
 IR Inten    --      9.3034                16.8594                34.0777

                     64                     65                     66
                      A                      A                      A
 Frequencies --   3160.9359              3190.3152              3204.9383
 Red. masses --      1.0999                 1.0919                 1.0873
 Frc consts  --      6.4752                 6.5480                 6.5802
 IR Inten    --     20.0594                 3.7014                 4.4435

                     67                     68                     69
                      A                      A                      A
 Frequencies --   3529.0558              3555.1891              3603.3093
 Red. masses --      1.0764                 1.0768                 1.0767
 Frc consts  --      7.8982                 8.0186                 8.2367
 IR Inten    --     14.1988                32.0275                36.4246

 - Thermochemistry -
 -------------------
 Temperature   298.150 Kelvin.  Pressure   1.00000 Atm.
 Atom     1 has atomic number  6 and mass  12.00000

 Molecular mass:   187.07793 amu.
 Principal axes and moments of inertia in atomic units:
                           1         2         3
     Eigenvalues --  2104.752592789.368524025.50639
           X            0.98379  -0.17931   0.00097
           Y            0.17926   0.98363   0.01813
           Z           -0.00421  -0.01766   0.99984
 This molecule is an asymmetric top.
 Rotational symmetry number  1.
 Warning -- assumption of classical behavior for rotation
           may cause significant error
 Rotational temperatures (Kelvin)      0.04115     0.03105     0.02152
 Rotational constants (GHZ):           0.85746     0.64701     0.44833
 Zero-point vibrational energy     546652.0 (Joules/Mol)
                                  130.65295 (Kcal/Mol)
 Warning -- explicit consideration of  19 degrees of freedom as
           vibrations may cause significant error
 Vibrational temperatures:     51.51    69.42    97.71   123.52   161.24
          (Kelvin)            186.95   218.31   287.56   306.72   336.78
                              404.07   427.29   465.33   487.08   561.54
                              621.79   703.58   752.55   852.30   908.72
                              927.74   943.37   998.25  1124.51  1138.84
                             1223.28  1272.79  1284.71  1351.62  1410.32
                             1469.97  1526.61  1568.42  1609.03  1624.38
                             1640.47  1722.13  1793.21  1897.11  1919.54
                             1930.47  1952.75  2009.79  2066.28  2073.04
                             2088.95  2133.55  2153.49  2164.65  2179.02
                             2188.79  2199.77  2219.47  2292.15  2478.75
                             2575.63  4375.45  4401.80  4448.94  4450.54
                             4500.48  4505.98  4508.02  4547.88  4590.15
                             4611.19  5077.52  5115.12  5184.36

 Zero-point correction=                           0.208209 (Hartree/Particle)
 Thermal correction to Energy=                    0.222030
 Thermal correction to Enthalpy=                  0.222974
 Thermal correction to Gibbs Free Energy=         0.166600
 Sum of electronic and zero-point Energies=           -912.046745
 Sum of electronic and thermal Energies=              -912.032924
 Sum of electronic and thermal Enthalpies=            -912.031979
 Sum of electronic and thermal Free Energies=         -912.088353

                     E (Thermal)             CV                S
                      KCal/Mol        Cal/Mol-Kelvin    Cal/Mol-Kelvin
 Total                  139.326             49.180            118.648
 Electronic               0.000              0.000              0.000
 Translational            0.889              2.981             41.585
 Rotational               0.889              2.981             31.536
 Vibrational            137.548             43.218             45.527
 Vibration     1          0.594              1.982              5.479
 Vibration     2          0.595              1.978              4.888
 Vibration     3          0.598              1.970              4.213
 Vibration     4          0.601              1.959              3.752
 Vibration     5          0.607              1.939              3.233
 Vibration     6          0.612              1.923              2.947
 Vibration     7          0.619              1.901              2.650
 Vibration     8          0.638              1.840              2.134
 Vibration     9          0.644              1.821              2.016
 Vibration    10          0.654              1.789              1.847
 Vibration    11          0.681              1.709              1.529
 Vibration    12          0.691              1.679              1.434
 Vibration    13          0.708              1.629              1.293
 Vibration    14          0.719              1.599              1.219
 Vibration    15          0.758              1.491              0.999
 Vibration    16          0.793              1.400              0.852
 Vibration    17          0.845              1.274              0.686
 Vibration    18          0.878              1.199              0.603
 Vibration    19          0.950              1.048              0.463

 Optimization completed.
    -- Stationary point found.
 Normal termination of Gaussian 16 at Wed Dec  9 18:18:05 2020.

 ----------------------------------------------------------------------
 # B3LYP/6-311++G(d,p) empiricaldispersion=gd3bj scf=xqc pop=npa geom=c
 heck
 ----------------------------------------------------------------------

 ---------------------------------------
 CID_131244704_JID_2660_Energie_neutraal
 ---------------------------------------
 Structure from the checkpoint file:  "JID_2660.chk"
 Charge =  0 Multiplicity = 1

 SCF Done:  E(RB3LYP) =  -912.438823810     A.U. after   15 cycles
 Normal termination of Gaussian 16 at Wed Dec  9 18:20:55 2020.

 ----------------------------------------------------------------------
 # B3LYP/6-311++G(d,p) empiricaldispersion=gd3bj scf=xqc pop=npa geom=c
 heck
 ----------------------------------------------------------------------

 -------------------------------------
 CID_131244704_JID_2660_Energie_kation
 -------------------------------------
 Structure from the checkpoint file:  "JID_2660.chk"
 Charge =  1 Multiplicity = 2

 SCF Done:  E(UB3LYP) =  -912.136005706     A.U. after   30 cycles
 Normal termination of Gaussian 16 at Wed Dec  9 18:27:12 2020.
 Gaussian 16:  ES64L-G16RevA.03 25-Dec-2016

 ----------------------------------------------------------------------
 # B3LYP/6-311++G(d,p) empiricaldispersion=gd3bj scf=xqc pop=npa geom=c
 heck
 ----------------------------------------------------------------------

 ------------------------------------
 CID_131244704_JID_2660_Energie_anion
 ------------------------------------
 Structure from the checkpoint file:  "JID_2660.chk"
 Charge = -1 Multiplicity = 2

                         Standard orientation:
 ---------------------------------------------------------------------
 Center     Atomic      Atomic             Coordinates (Angstroms)
 Number     Number       Type             X           Y           Z
 ---------------------------------------------------------------------
      1          6           0        3.209189   -1.333318    0.332878
      2          6           0        2.121664   -0.830886    1.283832
      3          7           0        1.551847    0.464892    0.880867
      4          6           0        0.974861    0.793786   -0.302650
      5         16           0        0.928576    2.378567   -0.861492
      6          7           0        0.402145   -0.199079   -1.063481
      7          7           0       -0.097354   -1.387304   -0.528093
      8          6           0       -1.479308   -1.610859   -0.364169
      9          8           0       -1.895816   -2.754071   -0.467840
     10          6           0       -2.360498   -0.464183   -0.054026
     11          6           0       -2.033617    0.596717    0.696158
     12          6           0       -2.971799    1.704246    1.053707
     13          1           0        2.813078   -1.478284   -0.677160
     14          1           0        3.607270   -2.290471    0.686901
     15          1           0        4.035121   -0.617582    0.267613
     16          1           0        1.319395   -1.562561    1.378521
     17          1           0        2.536241   -0.670572    2.283430
     18          1           0        1.980290    1.278144    1.303995
     19          1           0       -0.080299    0.165841   -1.878384
     20          1           0        0.358661   -2.218601   -0.895153
     21          1           0       -3.380468   -0.600631   -0.405247
     22          1           0       -1.029648    0.678666    1.103709
     23          1           0       -3.078445    1.790223    2.142958
     24          1           0       -2.567134    2.660801    0.699273
     25          1           0       -3.964169    1.557936    0.616710
 ---------------------------------------------------------------------

 SCF Done:  E(UB3LYP) =  -912.441178267     A.U. after   31 cycles

 The electronic state is 2-A.
 Alpha  occ. eigenvalues --  -88.67083 -18.95231 -14.25604 -14.23822 -14.23251
 Alpha  occ. eigenvalues --  -10.16477 -10.12701 -10.10359 -10.07008 -10.04900
 Alpha  occ. eigenvalues --  -10.03539 -10.03129  -7.75863  -5.72282  -5.71676
 Alpha  occ. eigenvalues --   -5.71415  -0.92357  -0.88810  -0.83133  -0.72459
 Alpha  occ. eigenvalues --   -0.66953  -0.65892  -0.59694  -0.58171  -0.53468
 Alpha  occ. eigenvalues --   -0.50101  -0.48405  -0.44950  -0.42717  -0.39410
 Alpha  occ. eigenvalues --   -0.38482  -0.35672  -0.34583  -0.32232  -0.30934
 Alpha  occ. eigenvalues --   -0.30056  -0.29500  -0.28970  -0.27518  -0.26977
 Alpha  occ. eigenvalues --   -0.26202  -0.25263  -0.25046  -0.22304  -0.17268
 Alpha  occ. eigenvalues --   -0.15005  -0.13970  -0.12437  -0.10767  -0.09722
 Alpha  occ. eigenvalues --    0.04490
 Alpha virt. eigenvalues --    0.06473   0.08269   0.08848   0.09601   0.10179
 Alpha virt. eigenvalues --    0.10465   0.11187   0.12093   0.12534   0.12826
 Alpha virt. eigenvalues --    0.13165   0.13945   0.14254   0.15239   0.15945

  Beta  occ. eigenvalues --  -88.67072 -18.94960 -14.25557 -14.23804 -14.23220
  Beta  occ. eigenvalues --  -10.16364 -10.12463 -10.10320 -10.06996 -10.04924
  Beta  occ. eigenvalues --  -10.03195 -10.03114  -7.75854  -5.72279  -5.71642
  Beta  occ. eigenvalues --   -5.71409  -0.92090  -0.88474  -0.83004  -0.72318
  Beta  occ. eigenvalues --   -0.66531  -0.65770  -0.59556  -0.57984  -0.53380
  Beta  occ. eigenvalues --   -0.49962  -0.47957  -0.44604  -0.42554  -0.39309
  Beta  occ. eigenvalues --   -0.38397  -0.35463  -0.34491  -0.32089  -0.30602
  Beta  occ. eigenvalues --   -0.29638  -0.29224  -0.28868  -0.27045  -0.26610
  Beta  occ. eigenvalues --   -0.25997  -0.24966  -0.24799  -0.22084  -0.16927
  Beta  occ. eigenvalues --   -0.14441  -0.13348  -0.11606  -0.10582  -0.09647
  Beta virt. eigenvalues --    0.07086   0.08342   0.08960   0.09631   0.09883
  Beta virt. eigenvalues --    0.10361   0.11142   0.11336   0.12190   0.12844
  Beta virt. eigenvalues --    0.12863   0.13149   0.14072   0.14220   0.15378

 Mulliken charges and spin densities:
               1          2
     1  C   -0.137753  -0.303991
     2  C    0.323116  -0.552973
     3  N   -0.052863   0.084433
     4  C    0.110467  -0.039992
     5  S   -0.691593  -0.223239
     6  N   -0.006996   0.061832
     7  N   -0.183761  -0.057597
     8  C   -0.242701   0.149852
     9  O   -0.379219   0.092743
    10  C   -0.260317   0.062235
    11  C    0.370003   0.233898
    12  C   -0.478230  -0.212192
    13  H    0.081399   0.047454
    14  H   -0.006203   0.143976
    15  H    0.146155  -0.010198
    16  H    0.314232  -0.113968
    17  H   -0.986045   1.160029
    18  H    0.142091   0.155036
    19  H    0.211946   0.055042
    20  H    0.279802   0.006865
    21  H    0.142224   0.001956
    22  H    0.007817   0.144824
    23  H    0.116002   0.011953
    24  H    0.057222   0.097549
    25  H    0.123206   0.004473
 Sum of Mulliken charges =  -1.00000   1.00000

 Dipole moment (field-independent basis, Debye):
    X=              0.8806    Y=             -0.4188    Z=             -1.9799  Tot=              2.2070
 Quadrupole moment (field-independent basis, Debye-Ang):
   XX=           -115.3814   YY=           -121.4028   ZZ=           -105.4879
   XY=            -13.3941   XZ=             -8.6675   YZ=              4.4492

 Summary of Natural Population Analysis:

                                       Natural Population
                Natural  -----------------------------------------------
    Atom  No    Charge         Core      Valence    Rydberg      Total
 -----------------------------------------------------------------------
      C    1   -0.29244      0.99966     2.28761    0.00517     3.29244
      C    2   -0.09126      0.99962     2.08041    0.01123     3.09126
      N    3   -0.31333      0.99963     2.79825    0.01545     3.81333
      C    4    0.16791      0.99965     1.80790    0.02455     2.83209
      S    5   -0.15386      4.99956     3.14173    0.01257     8.15386
      N    6   -0.23028      0.99962     2.71724    0.01341     3.73028
      N    7   -0.24761      0.99967     2.73496    0.01298     3.74761
      C    8    0.35665      0.99965     1.62144    0.02226     2.64335
      O    9   -0.29718      0.99988     3.29135    0.00595     4.29718
      C   10   -0.17741      0.99947     2.16827    0.00967     3.17741
      C   11    0.01582      0.99955     1.97634    0.00829     2.98418
      C   12   -0.30398      0.99965     2.29942    0.00490     3.30398
      H   13    0.09912      0.00000     0.39973    0.00115     0.40088
      H   14    0.09840      0.00000     0.40084    0.00075     0.40160
      H   15    0.09835      0.00000     0.40086    0.00079     0.40165
      H   16    0.10595      0.00000     0.39259    0.00146     0.39405
      H   17    0.09966      0.00000     0.39627    0.00406     0.40034
      H   18    0.19908      0.00000     0.29855    0.00236     0.30092
      H   19    0.19426      0.00000     0.30350    0.00225     0.30574
      H   20    0.18307      0.00000     0.31441    0.00252     0.31693
      H   21    0.09656      0.00000     0.40227    0.00117     0.40344
      H   22    0.09119      0.00000     0.40636    0.00245     0.40881
      H   23    0.09963      0.00000     0.39924    0.00113     0.40037
      H   24    0.10867      0.00000     0.38984    0.00149     0.39133
      H   25    0.09302      0.00000     0.40592    0.00106     0.40698
 =======================================================================
   * Total *   -0.00000     15.99562    33.83532    0.16906    50.00000

 Normal termination of Gaussian 16 at Wed Dec  9 18:33:19 2020.
