 Gaussian 16, Revision A.03,

 -----------------------------------------------------------
 # opt freq B3LYP/6-31G(d) empiricaldispersion=gd3bj scf=xqc
 -----------------------------------------------------------

 -------------------------------
 CID_103464300_JID_6559_neutraal
 -------------------------------
 Symbolic Z-matrix:
 Charge =  0 Multiplicity = 1

 SCF Done:  E(RB3LYP) =  -677.385972651     A.U. after   14 cycles
 SCF Done:  E(RB3LYP) =  -677.388510328     A.U. after   12 cycles
 SCF Done:  E(RB3LYP) =  -677.386831864     A.U. after   12 cycles
 SCF Done:  E(RB3LYP) =  -677.388281318     A.U. after   12 cycles
 SCF Done:  E(RB3LYP) =  -677.389328937     A.U. after    8 cycles
 SCF Done:  E(RB3LYP) =  -677.389440099     A.U. after   12 cycles
 SCF Done:  E(RB3LYP) =  -677.389716308     A.U. after   11 cycles
 SCF Done:  E(RB3LYP) =  -677.389749527     A.U. after    9 cycles
 SCF Done:  E(RB3LYP) =  -677.389756357     A.U. after    9 cycles
 SCF Done:  E(RB3LYP) =  -677.389758113     A.U. after    8 cycles
 SCF Done:  E(RB3LYP) =  -677.389758547     A.U. after    7 cycles
 SCF Done:  E(RB3LYP) =  -677.389758651     A.U. after    7 cycles
 Optimization completed.
    -- Stationary point found.
 Normal termination of Gaussian 16 at Thu Dec 10 23:38:15 2020.

 --------------------------------------------------------------------
 #N Geom=AllCheck Guess=TCheck SCRF=Check GenChk RB3LYP/6-31G(d) Freq
 --------------------------------------------------------------------

 Structure from the checkpoint file:  "JID_6559.chk"
 -------------------------------
 CID_103464300_JID_6559_neutraal
 -------------------------------
 Charge =  0 Multiplicity = 1

 SCF Done:  E(RB3LYP) =  -677.389758651     A.U. after    1 cycles

  Exact polarizability: 181.064  -1.618 155.956  -5.716  -1.484 114.515
 Approx polarizability: 241.529   2.765 229.913 -12.989  -3.666 179.189

                      1                      2                      3
                      A                      A                      A
 Frequencies --     39.8445                51.0995                92.2764
 Red. masses --      3.2602                 4.5523                 3.1056
 Frc consts  --      0.0030                 0.0070                 0.0156
 IR Inten    --      0.1712                 0.2334                 0.4524

                      4                      5                      6
                      A                      A                      A
 Frequencies --    112.9711               148.2303               161.2340
 Red. masses --      3.0167                 3.5433                 3.6304
 Frc consts  --      0.0227                 0.0459                 0.0556
 IR Inten    --      0.3922                 0.4807                 0.6887

                      7                      8                      9
                      A                      A                      A
 Frequencies --    199.8212               214.2197               238.7578
 Red. masses --      1.7697                 2.6839                 1.2204
 Frc consts  --      0.0416                 0.0726                 0.0410
 IR Inten    --      0.1613                 0.1716                 0.1103

                     10                     11                     12
                      A                      A                      A
 Frequencies --    257.0336               260.7990               276.8848
 Red. masses --      2.5406                 1.9931                 1.3471
 Frc consts  --      0.0989                 0.0799                 0.0608
 IR Inten    --      1.5819                 5.0814                 1.1144

                     13                     14                     15
                      A                      A                      A
 Frequencies --    299.6274               309.9225               312.6217
 Red. masses --      2.1005                 1.9268                 2.1492
 Frc consts  --      0.1111                 0.1090                 0.1238
 IR Inten    --      0.4772                 1.5939                 3.4851

                     16                     17                     18
                      A                      A                      A
 Frequencies --    316.3086               336.9587               370.8424
 Red. masses --      1.3071                 1.3265                 2.3665
 Frc consts  --      0.0771                 0.0887                 0.1917
 IR Inten    --      0.3665                92.8072                 9.8346

                     19                     20                     21
                      A                      A                      A
 Frequencies --    402.7530               435.9053               447.3640
 Red. masses --      2.3103                 4.3745                 2.6035
 Frc consts  --      0.2208                 0.4897                 0.3070
 IR Inten    --      2.3019                 5.7132                 1.4999

                     22                     23                     24
                      A                      A                      A
 Frequencies --    479.2614               486.6519               492.9678
 Red. masses --      2.3754                 3.2006                 2.6251
 Frc consts  --      0.3215                 0.4466                 0.3759
 IR Inten    --      0.3530                 7.2105                 1.0043

                     25                     26                     27
                      A                      A                      A
 Frequencies --    552.0505               626.9724               642.3589
 Red. masses --      3.0301                 4.2080                 3.6701
 Frc consts  --      0.5441                 0.9746                 0.8923
 IR Inten    --      1.1764                 2.6175                 2.5070

                     28                     29                     30
                      A                      A                      A
 Frequencies --    674.1756               710.7065               728.8526
 Red. masses --      2.9333                 1.3548                 3.1020
 Frc consts  --      0.7855                 0.4032                 0.9709
 IR Inten    --      3.2622                39.4819                 1.3258

                     31                     32                     33
                      A                      A                      A
 Frequencies --    750.8798               791.7508               799.0753
 Red. masses --      2.7527                 2.7289                 1.3896
 Frc consts  --      0.9144                 1.0079                 0.5228
 IR Inten    --      2.5446                11.4069                 5.5637

                     34                     35                     36
                      A                      A                      A
 Frequencies --    833.2134               882.7394               883.5563
 Red. masses --      1.2576                 2.0169                 1.8268
 Frc consts  --      0.5144                 0.9260                 0.8402
 IR Inten    --      1.9876                 2.0243                 2.8717

                     37                     38                     39
                      A                      A                      A
 Frequencies --    909.4354               919.5058               925.0165
 Red. masses --      2.1833                 2.0028                 1.9483
 Frc consts  --      1.0639                 0.9977                 0.9822
 IR Inten    --      1.4795                 3.6614                 6.7220

                     40                     41                     42
                      A                      A                      A
 Frequencies --    960.8422               969.8092               975.5237
 Red. masses --      1.5496                 2.6658                 1.6397
 Frc consts  --      0.8429                 1.4773                 0.9194
 IR Inten    --      0.8709                11.2500                 1.3924

                     43                     44                     45
                      A                      A                      A
 Frequencies --   1025.3141              1031.6632              1044.7668
 Red. masses --      1.3282                 1.6774                 3.0031
 Frc consts  --      0.8227                 1.0519                 1.9313
 IR Inten    --      0.9807                 2.3003                47.7774

                     46                     47                     48
                      A                      A                      A
 Frequencies --   1065.2121              1078.0205              1085.5813
 Red. masses --      1.5593                 1.9255                 2.0302
 Frc consts  --      1.0425                 1.3184                 1.4096
 IR Inten    --     26.3957                32.2556                 0.3208

                     49                     50                     51
                      A                      A                      A
 Frequencies --   1102.1527              1108.0050              1123.7240
 Red. masses --      1.7994                 1.6938                 2.3626
 Frc consts  --      1.2878                 1.2252                 1.7577
 IR Inten    --      1.9222                 8.8035                15.7004

                     52                     53                     54
                      A                      A                      A
 Frequencies --   1160.0658              1174.7205              1210.4140
 Red. masses --      1.3498                 1.8104                 1.7160
 Frc consts  --      1.0703                 1.4719                 1.4813
 IR Inten    --     12.2371                10.7098                 1.6664

                     55                     56                     57
                      A                      A                      A
 Frequencies --   1222.4104              1236.6350              1250.0174
 Red. masses --      1.8275                 2.0515                 1.7184
 Frc consts  --      1.6089                 1.8484                 1.5820
 IR Inten    --     10.9589                 1.2242                22.1412

                     58                     59                     60
                      A                      A                      A
 Frequencies --   1269.5598              1278.5065              1291.0091
 Red. masses --      2.2152                 1.3080                 1.3758
 Frc consts  --      2.1036                 1.2597                 1.3510
 IR Inten    --      2.8086                 2.9719                 8.8522

                     61                     62                     63
                      A                      A                      A
 Frequencies --   1313.5927              1338.8503              1345.7068
 Red. masses --      1.7346                 1.6949                 1.3302
 Frc consts  --      1.7635                 1.7900                 1.4193
 IR Inten    --      6.1159                59.7439                 1.8853

                     64                     65                     66
                      A                      A                      A
 Frequencies --   1375.6044              1380.5036              1391.1293
 Red. masses --      1.5912                 1.5525                 1.4188
 Frc consts  --      1.7740                 1.7432                 1.6177
 IR Inten    --      3.6405                18.8214                 7.4643

                     67                     68                     69
                      A                      A                      A
 Frequencies --   1394.5191              1405.4703              1411.5542
 Red. masses --      1.5452                 1.4156                 1.8213
 Frc consts  --      1.7705                 1.6475                 2.1381
 IR Inten    --      2.0526                19.7842                19.0004

                     70                     71                     72
                      A                      A                      A
 Frequencies --   1429.3453              1435.1717              1445.5195
 Red. masses --      1.2861                 1.8271                 1.2658
 Frc consts  --      1.5481                 2.2173                 1.5584
 IR Inten    --      6.6372                18.3360                 6.4330

                     73                     74                     75
                      A                      A                      A
 Frequencies --   1449.2661              1454.1516              1495.9401
 Red. masses --      1.5879                 1.2856                 3.7634
 Frc consts  --      1.9650                 1.6017                 4.9620
 IR Inten    --     53.2266                 7.4327                11.1787

                     76                     77                     78
                      A                      A                      A
 Frequencies --   1507.2826              1511.8688              1517.3051
 Red. masses --      1.2438                 1.1071                 1.0643
 Frc consts  --      1.6648                 1.4910                 1.4436
 IR Inten    --      9.4173                 4.9609                 1.6475

                     79                     80                     81
                      A                      A                      A
 Frequencies --   1518.7261              1519.8463              1525.5029
 Red. masses --      1.1414                 1.0915                 1.0677
 Frc consts  --      1.5511                 1.4855                 1.4640
 IR Inten    --      6.8570                 0.8850                 0.4726

                     82                     83                     84
                      A                      A                      A
 Frequencies --   1526.7190              1535.0216              1538.1774
 Red. masses --      1.1582                 1.0699                 1.4531
 Frc consts  --      1.5905                 1.4853                 2.0256
 IR Inten    --      3.7417                 6.0877                20.8394

                     85                     86                     87
                      A                      A                      A
 Frequencies --   1538.8485              1544.0804              1549.4762
 Red. masses --      1.1033                 1.3548                 1.0640
 Frc consts  --      1.5394                 1.9032                 1.5050
 IR Inten    --     25.6762                28.1270                 5.7961

                     88                     89                     90
                      A                      A                      A
 Frequencies --   1618.0986              3022.8470              3023.9928
 Red. masses --      6.5802                 1.0692                 1.0622
 Frc consts  --     10.1508                 5.7565                 5.7230
 IR Inten    --      4.9330                35.8828                26.5576

                     91                     92                     93
                      A                      A                      A
 Frequencies --   3034.3106              3038.6437              3040.0818
 Red. masses --      1.0788                 1.0614                 1.0732
 Frc consts  --      5.8522                 5.7740                 5.8437
 IR Inten    --     28.8359                25.4304                21.4968

                     94                     95                     96
                      A                      A                      A
 Frequencies --   3042.5994              3047.5670              3054.2265
 Red. masses --      1.0374                 1.0405                 1.0854
 Frc consts  --      5.6584                 5.6936                 5.9657
 IR Inten    --     22.1448                23.2168                49.8081

                     97                     98                     99
                      A                      A                      A
 Frequencies --   3057.0750              3063.7181              3076.4524
 Red. masses --      1.0416                 1.0606                 1.0991
 Frc consts  --      5.7355                 5.8656                 6.1288
 IR Inten    --     17.4425                42.4637                15.6021

                    100                    101                    102
                      A                      A                      A
 Frequencies --   3088.4837              3096.4043              3104.5683
 Red. masses --      1.1022                 1.0965                 1.1016
 Frc consts  --      6.1947                 6.1942                 6.2559
 IR Inten    --     53.4353                62.9314                10.2256

                    103                    104                    105
                      A                      A                      A
 Frequencies --   3109.0988              3115.6113              3115.7752
 Red. masses --      1.1015                 1.1015                 1.1020
 Frc consts  --      6.2732                 6.2997                 6.3031
 IR Inten    --     23.1259                48.5971                27.5339

                    106                    107                    108
                      A                      A                      A
 Frequencies --   3121.8298              3127.9882              3132.5570
 Red. masses --      1.1002                 1.1014                 1.1006
 Frc consts  --      6.3176                 6.3492                 6.3635
 IR Inten    --     35.9151                40.8098                35.6465

                    109                    110                    111
                      A                      A                      A
 Frequencies --   3259.7055              3282.2922              3720.9667
 Red. masses --      1.0901                 1.1024                 1.0657
 Frc consts  --      6.8244                 6.9976                 8.6936
 IR Inten    --      2.3291                 4.2835                 6.2660

 - Thermochemistry -
 -------------------
 Temperature   298.150 Kelvin.  Pressure   1.00000 Atm.
 Atom     1 has atomic number  6 and mass  12.00000

 Molecular mass:   221.17796 amu.
 Principal axes and moments of inertia in atomic units:
                           1         2         3
     Eigenvalues --  1950.550785287.714646320.03029
           X            0.99995  -0.00896   0.00418
           Y            0.00899   0.99994  -0.00636
           Z           -0.00412   0.00640   0.99997
 This molecule is an asymmetric top.
 Rotational symmetry number  1.
 Warning -- assumption of classical behavior for rotation
           may cause significant error
 Rotational temperatures (Kelvin)      0.04440     0.01638     0.01370
 Rotational constants (GHZ):           0.92525     0.34131     0.28556
 Zero-point vibrational energy     926105.0 (Joules/Mol)
                                  221.34442 (Kcal/Mol)
 Warning -- explicit consideration of  25 degrees of freedom as
           vibrations may cause significant error
 Vibrational temperatures:     57.33    73.52   132.77   162.54   213.27
          (Kelvin)            231.98   287.50   308.21   343.52   369.81
                              375.23   398.38   431.10   445.91   449.79
                              455.10   484.81   533.56   579.47   627.17
                              643.66   689.55   700.18   709.27   794.28
                              902.07   924.21   969.99  1022.55  1048.66
                             1080.35  1139.15  1149.69  1198.81  1270.07
                             1271.24  1308.47  1322.96  1330.89  1382.44
                             1395.34  1403.56  1475.20  1484.33  1503.19
                             1532.60  1551.03  1561.91  1585.75  1594.17
                             1616.79  1669.08  1690.16  1741.52  1758.78
                             1779.24  1798.50  1826.61  1839.49  1857.47
                             1889.97  1926.31  1936.17  1979.19  1986.24
                             2001.52  2006.40  2022.16  2030.91  2056.51
                             2064.89  2079.78  2085.17  2092.20  2152.32
                             2168.64  2175.24  2183.06  2185.11  2186.72
                             2194.86  2196.61  2208.55  2213.09  2214.06
                             2221.59  2229.35  2328.08  4349.20  4350.85
                             4365.70  4371.93  4374.00  4377.62  4384.77
                             4394.35  4398.45  4408.01  4426.33  4443.64
                             4455.04  4466.78  4473.30  4482.67  4482.91
                             4491.62  4500.48  4507.05  4689.99  4722.49
                             5353.64

 Zero-point correction=                           0.352735 (Hartree/Particle)
 Thermal correction to Energy=                    0.368958
 Thermal correction to Enthalpy=                  0.369903
 Thermal correction to Gibbs Free Energy=         0.310288
 Sum of electronic and zero-point Energies=           -677.037024
 Sum of electronic and thermal Energies=              -677.020800
 Sum of electronic and thermal Enthalpies=            -677.019856
 Sum of electronic and thermal Free Energies=         -677.079471

                     E (Thermal)             CV                S
                      KCal/Mol        Cal/Mol-Kelvin    Cal/Mol-Kelvin
 Total                  231.525             64.824            125.470
 Electronic               0.000              0.000              0.000
 Translational            0.889              2.981             42.084
 Rotational               0.889              2.981             32.544
 Vibrational            229.747             58.863             50.842
 Vibration     1          0.594              1.981              5.267
 Vibration     2          0.595              1.977              4.774
 Vibration     3          0.602              1.955              3.611
 Vibration     4          0.607              1.939              3.217
 Vibration     5          0.618              1.905              2.695
 Vibration     6          0.622              1.890              2.535
 Vibration     7          0.638              1.840              2.135
 Vibration     8          0.644              1.819              2.007
 Vibration     9          0.657              1.781              1.812
 Vibration    10          0.667              1.751              1.682
 Vibration    11          0.669              1.744              1.656
 Vibration    12          0.678              1.716              1.553
 Vibration    13          0.692              1.674              1.419
 Vibration    14          0.699              1.655              1.363
 Vibration    15          0.701              1.650              1.348
 Vibration    16          0.703              1.642              1.329
 Vibration    17          0.718              1.602              1.227
 Vibration    18          0.743              1.532              1.076
 Vibration    19          0.768              1.464              0.953
 Vibration    20          0.796              1.392              0.840
 Vibration    21          0.806              1.367              0.804
 Vibration    22          0.836              1.296              0.712
 Vibration    23          0.843              1.280              0.692
 Vibration    24          0.849              1.266              0.676
 Vibration    25          0.907              1.135              0.540

                           ! Non-Optimized Parameters !
 Normal termination of Gaussian 16 at Thu Dec 10 23:52:56 2020.

 ----------------------------------------------------------------------
 # B3LYP/6-311++G(d,p) empiricaldispersion=gd3bj scf=xqc pop=npa geom=c
 heck
 ----------------------------------------------------------------------

 ---------------------------------------
 CID_103464300_JID_6559_Energie_neutraal
 ---------------------------------------
 Structure from the checkpoint file:  "JID_6559.chk"
 Charge =  0 Multiplicity = 1

 SCF Done:  E(RB3LYP) =  -677.580978100     A.U. after   14 cycles
 Normal termination of Gaussian 16 at Thu Dec 10 23:59:28 2020.

 ----------------------------------------------------------------------
 # B3LYP/6-311++G(d,p) empiricaldispersion=gd3bj scf=xqc pop=npa geom=c
 heck
 ----------------------------------------------------------------------

 -------------------------------------
 CID_103464300_JID_6559_Energie_kation
 -------------------------------------
 Structure from the checkpoint file:  "JID_6559.chk"
 Charge =  1 Multiplicity = 2

 SCF Done:  E(UB3LYP) =  -677.307951317     A.U. after   23 cycles
 Normal termination of Gaussian 16 at Fri Dec 11 00:13:36 2020.
 Gaussian 16:  ES64L-G16RevA.03 25-Dec-2016

 ----------------------------------------------------------------------
 # B3LYP/6-311++G(d,p) empiricaldispersion=gd3bj scf=xqc pop=npa geom=c
 heck
 ----------------------------------------------------------------------

 ------------------------------------
 CID_103464300_JID_6559_Energie_anion
 ------------------------------------
 Structure from the checkpoint file:  "JID_6559.chk"
 Charge = -1 Multiplicity = 2

                         Standard orientation:
 ---------------------------------------------------------------------
 Center     Atomic      Atomic             Coordinates (Angstroms)
 Number     Number       Type             X           Y           Z
 ---------------------------------------------------------------------
      1          6           0        2.429793    2.297182    0.637633
      2          6           0        2.246738    0.859218    1.134989
      3          6           0        2.665855   -0.261151    0.154025
      4          6           0        4.057565    0.015911   -0.440596
      5          6           0        2.712788   -1.588484    0.927845
      6          6           0        1.677455   -0.368926   -1.038079
      7          7           0        0.318521   -0.772623   -0.707194
      8          6           0       -0.084452   -2.087617   -0.546306
      9          6           0       -1.422592   -2.105373   -0.228538
     10          6           0       -1.861538   -0.748640   -0.197705
     11          6           0       -0.773512    0.051981   -0.499235
     12          6           0       -0.806033    1.543819   -0.626711
     13          6           0       -2.273578    2.007067   -0.718775
     14          6           0       -3.148354    1.310113    0.333033
     15          6           0       -3.232163   -0.204933    0.082914
     16          8           0       -3.875015   -0.888474    1.164407
     17          1           0        3.488475    2.550758    0.521959
     18          1           0        1.998892    3.006552    1.352683
     19          1           0        1.940981    2.471026   -0.326522
     20          1           0        2.829426    0.735640    2.057570
     21          1           0        1.200072    0.690870    1.417197
     22          1           0        4.792149    0.181442    0.355811
     23          1           0        4.401217   -0.835855   -1.039369
     24          1           0        4.059898    0.899994   -1.087333
     25          1           0        1.755283   -1.805657    1.410386
     26          1           0        2.956310   -2.428418    0.265580
     27          1           0        3.483947   -1.544346    1.705323
     28          1           0        1.626291    0.588985   -1.563353
     29          1           0        2.071001   -1.100419   -1.753091
     30          1           0        0.623268   -2.892228   -0.679074
     31          1           0       -2.028886   -2.981102   -0.043012
     32          1           0       -0.249922    1.885506   -1.510492
     33          1           0       -0.330785    2.027952    0.237718
     34          1           0       -2.661988    1.777646   -1.720161
     35          1           0       -2.323485    3.095374   -0.599386
     36          1           0       -2.715781    1.470912    1.331581
     37          1           0       -4.158979    1.732059    0.350122
     38          1           0       -3.898490   -0.385559   -0.771590
     39          1           0       -3.216247   -0.945984    1.875594
 ---------------------------------------------------------------------

 SCF Done:  E(UB3LYP) =  -677.569144295     A.U. after   31 cycles

 The electronic state is 2-A.
 Alpha  occ. eigenvalues --  -19.03021 -14.26288 -10.13029 -10.11222 -10.09889
 Alpha  occ. eigenvalues --  -10.09285 -10.09087 -10.08175 -10.07899 -10.07432
 Alpha  occ. eigenvalues --  -10.06675 -10.06215 -10.06118 -10.06013 -10.05979
 Alpha  occ. eigenvalues --  -10.05737  -0.93136  -0.88782  -0.74603  -0.72648
 Alpha  occ. eigenvalues --   -0.68990  -0.65018  -0.63604  -0.62116  -0.59404
 Alpha  occ. eigenvalues --   -0.58444  -0.53884  -0.52754  -0.50343  -0.48270
 Alpha  occ. eigenvalues --   -0.45947  -0.42911  -0.41747  -0.38677  -0.38202
 Alpha  occ. eigenvalues --   -0.37452  -0.36331  -0.35620  -0.34870  -0.33924
 Alpha  occ. eigenvalues --   -0.32960  -0.31818  -0.31263  -0.31078  -0.29753
 Alpha  occ. eigenvalues --   -0.28840  -0.28437  -0.28349  -0.27379  -0.26852
 Alpha  occ. eigenvalues --   -0.26564  -0.25477  -0.25250  -0.24476  -0.23210
 Alpha  occ. eigenvalues --   -0.22746  -0.22506  -0.22029  -0.18728  -0.13970
 Alpha  occ. eigenvalues --   -0.11364   0.04194
 Alpha virt. eigenvalues --    0.06312   0.07075   0.07141   0.08179   0.08442
 Alpha virt. eigenvalues --    0.08611   0.09121   0.09351   0.10449   0.10592
 Alpha virt. eigenvalues --    0.11139   0.11270   0.11474   0.11876   0.12670

  Beta  occ. eigenvalues --  -19.03016 -14.26286 -10.13027 -10.11197 -10.09884
  Beta  occ. eigenvalues --  -10.09278 -10.09087 -10.08152 -10.07881 -10.07421
  Beta  occ. eigenvalues --  -10.06658 -10.06196 -10.06118 -10.05978 -10.05972
  Beta  occ. eigenvalues --  -10.05700  -0.93126  -0.88772  -0.74584  -0.72626
  Beta  occ. eigenvalues --   -0.68972  -0.64987  -0.63566  -0.62094  -0.59354
  Beta  occ. eigenvalues --   -0.58399  -0.53840  -0.52686  -0.50303  -0.48253
  Beta  occ. eigenvalues --   -0.45909  -0.42868  -0.41709  -0.38647  -0.38175
  Beta  occ. eigenvalues --   -0.37427  -0.36311  -0.35592  -0.34844  -0.33897
  Beta  occ. eigenvalues --   -0.32932  -0.31777  -0.31238  -0.31059  -0.29727
  Beta  occ. eigenvalues --   -0.28808  -0.28395  -0.28325  -0.27353  -0.26820
  Beta  occ. eigenvalues --   -0.26523  -0.25443  -0.25222  -0.24450  -0.23185
  Beta  occ. eigenvalues --   -0.22707  -0.22485  -0.21996  -0.18718  -0.13959
  Beta  occ. eigenvalues --   -0.11345
  Beta virt. eigenvalues --    0.06359   0.07041   0.07464   0.07734   0.08610
  Beta virt. eigenvalues --    0.08824   0.08984   0.09441   0.09740   0.10808
  Beta virt. eigenvalues --    0.10907   0.11349   0.11521   0.11812   0.12141

 Mulliken charges and spin densities:
               1          2
     1  C    0.558735  -1.309604
     2  C   -0.649425   0.508055
     3  C   -1.342727   2.277890
     4  C    0.921261  -1.537670
     5  C    0.558752  -1.170638
     6  C    1.208642  -2.128351
     7  N    0.323526   0.187262
     8  C    0.090430  -0.174895
     9  C   -0.094045   0.181641
    10  C   -0.197979   0.448963
    11  C   -0.502552   0.400246
    12  C    0.186229  -0.485318
    13  C    0.165741  -0.760984
    14  C    0.042381  -0.119906
    15  C   -0.607104  -0.604532
    16  O   -0.177910   0.012653
    17  H   -0.330059   0.478656
    18  H   -0.313975   0.472361
    19  H   -0.183471   0.344317
    20  H   -0.072783   0.243777
    21  H   -0.112423   0.280093
    22  H   -0.225169   0.389758
    23  H   -0.246530   0.387739
    24  H   -0.301510   0.452870
    25  H    0.096117   0.069632
    26  H    0.023542   0.135396
    27  H   -0.153030   0.290756
    28  H    0.134490   0.031956
    29  H   -0.186295   0.402898
    30  H   -0.079089   0.218409
    31  H    0.099745   0.058495
    32  H   -0.347300   0.520011
    33  H    0.735143  -0.568624
    34  H    0.053934   0.079211
    35  H   -0.446302   0.636528
    36  H   -0.108648   0.260641
    37  H    0.112432   0.045875
    38  H    0.136443   0.039204
    39  H    0.230783   0.005224
 Sum of Mulliken charges =  -1.00000   1.00000

 Dipole moment (field-independent basis, Debye):
    X=             -4.7628    Y=             -3.3646    Z=              0.6173  Tot=              5.8640
 Quadrupole moment (field-independent basis, Debye-Ang):
   XX=           -186.0036   YY=           -151.9037   ZZ=           -137.5274
   XY=             -4.1025   XZ=              3.7494   YZ=             -1.1309

 Summary of Natural Population Analysis:

                                       Natural Population
                Natural  -----------------------------------------------
    Atom  No    Charge         Core      Valence    Rydberg      Total
 -----------------------------------------------------------------------
      C    1   -0.28929      0.99966     2.28390    0.00573     3.28929
      C    2   -0.19023      0.99959     2.18067    0.00998     3.19023
      C    3   -0.04874      0.99957     2.03609    0.01309     3.04874
      C    4   -0.28806      0.99962     2.28048    0.00796     3.28806
      C    5   -0.28613      0.99962     2.27892    0.00759     3.28613
      C    6   -0.08005      0.99955     2.06740    0.01310     3.08005
      N    7   -0.20480      0.99962     2.69407    0.01112     3.70480
      C    8   -0.01646      0.99956     2.00537    0.01153     3.01646
      C    9   -0.14209      0.99952     2.13356    0.00901     3.14209
      C   10   -0.08137      0.99944     2.07287    0.00906     3.08137
      C   11    0.08758      0.99945     1.90131    0.01166     2.91242
      C   12   -0.20498      0.99959     2.19671    0.00867     3.20498
      C   13   -0.18452      0.99964     2.17626    0.00862     3.18452
      C   14   -0.19734      0.99962     2.18724    0.01048     3.19734
      C   15    0.06299      0.99950     1.92402    0.01349     2.93701
      O   16   -0.37187      0.99990     3.36547    0.00649     4.37187
      H   17    0.09955      0.00000     0.39921    0.00124     0.40045
      H   18    0.10153      0.00000     0.39738    0.00109     0.39847
      H   19    0.09646      0.00000     0.40173    0.00181     0.40354
      H   20    0.09815      0.00000     0.40069    0.00115     0.40185
      H   21    0.09894      0.00000     0.39931    0.00176     0.40106
      H   22    0.10302      0.00000     0.39571    0.00128     0.39698
      H   23    0.10137      0.00000     0.39720    0.00143     0.39863
      H   24    0.10360      0.00000     0.39499    0.00142     0.39640
      H   25    0.10441      0.00000     0.39435    0.00124     0.39559
      H   26    0.09777      0.00000     0.40122    0.00101     0.40223
      H   27    0.10171      0.00000     0.39735    0.00095     0.39829
      H   28    0.10638      0.00000     0.39187    0.00174     0.39362
      H   29    0.10237      0.00000     0.39605    0.00158     0.39763
      H   30    0.10079      0.00000     0.39826    0.00095     0.39921
      H   31    0.10582      0.00000     0.39340    0.00079     0.39418
      H   32    0.10599      0.00000     0.39237    0.00165     0.39401
      H   33    0.10526      0.00000     0.39272    0.00202     0.39474
      H   34    0.09417      0.00000     0.40459    0.00124     0.40583
      H   35    0.10190      0.00000     0.39690    0.00120     0.39810
      H   36    0.09497      0.00000     0.40364    0.00139     0.40503
      H   37    0.09994      0.00000     0.39909    0.00097     0.40006
      H   38    0.08520      0.00000     0.41348    0.00132     0.41480
      H   39    0.22607      0.00000     0.27103    0.00290     0.27393
 =======================================================================
   * Total *    0.00000     15.99344    44.81686    0.18970    61.00000

 Normal termination of Gaussian 16 at Fri Dec 11 00:32:46 2020.
