 Gaussian 16, Revision A.03,

 -----------------------------------------------------------
 # opt freq B3LYP/6-31G(d) empiricaldispersion=gd3bj scf=xqc
 -----------------------------------------------------------

 -------------------------------
 CID_107908350_JID_2273_neutraal
 -------------------------------
 Symbolic Z-matrix:
 Charge =  0 Multiplicity = 1

 SCF Done:  E(RB3LYP) =  -522.488137855     A.U. after   13 cycles
 SCF Done:  E(RB3LYP) =  -522.491490236     A.U. after   11 cycles
 SCF Done:  E(RB3LYP) =  -522.492131509     A.U. after   11 cycles
 SCF Done:  E(RB3LYP) =  -522.492693315     A.U. after   12 cycles
 SCF Done:  E(RB3LYP) =  -522.492781003     A.U. after   11 cycles
 SCF Done:  E(RB3LYP) =  -522.492809490     A.U. after   12 cycles
 SCF Done:  E(RB3LYP) =  -522.493179438     A.U. after   10 cycles
 SCF Done:  E(RB3LYP) =  -522.492718052     A.U. after   11 cycles
 SCF Done:  E(RB3LYP) =  -522.493246847     A.U. after   13 cycles
 SCF Done:  E(RB3LYP) =  -522.492576676     A.U. after   13 cycles
 SCF Done:  E(RB3LYP) =  -522.494074186     A.U. after   12 cycles
 SCF Done:  E(RB3LYP) =  -522.494107174     A.U. after   11 cycles
 SCF Done:  E(RB3LYP) =  -522.494115988     A.U. after    9 cycles
 SCF Done:  E(RB3LYP) =  -522.494118392     A.U. after    8 cycles
 SCF Done:  E(RB3LYP) =  -522.494119243     A.U. after    8 cycles
 SCF Done:  E(RB3LYP) =  -522.494119432     A.U. after    7 cycles
 Optimization completed.
    -- Stationary point found.
 Normal termination of Gaussian 16 at Wed Dec  9 17:08:08 2020.

 --------------------------------------------------------------------
 #N Geom=AllCheck Guess=TCheck SCRF=Check GenChk RB3LYP/6-31G(d) Freq
 --------------------------------------------------------------------

 Structure from the checkpoint file:  "JID_2273.chk"
 -------------------------------
 CID_107908350_JID_2273_neutraal
 -------------------------------
 Charge =  0 Multiplicity = 1

 SCF Done:  E(RB3LYP) =  -522.494119432     A.U. after    1 cycles

  Exact polarizability: 136.251   9.388 110.238   7.128   1.646  94.054
 Approx polarizability: 172.042  18.452 159.779   9.315   5.189 141.990

                      1                      2                      3
                      A                      A                      A
 Frequencies --     24.5827                45.4758                58.2325
 Red. masses --      4.0081                 3.6087                 3.5214
 Frc consts  --      0.0014                 0.0044                 0.0070
 IR Inten    --      0.2019                 0.5597                 0.4065

                      4                      5                      6
                      A                      A                      A
 Frequencies --    102.0483               107.5876               171.8181
 Red. masses --      3.7553                 3.0076                 3.5195
 Frc consts  --      0.0230                 0.0205                 0.0612
 IR Inten    --      2.7802                 0.8391                 0.4842

                      7                      8                      9
                      A                      A                      A
 Frequencies --    210.9580               256.4519               271.7716
 Red. masses --      2.0471                 2.0750                 2.4136
 Frc consts  --      0.0537                 0.0804                 0.1050
 IR Inten    --     15.7179                 8.9487                 3.3550

                     10                     11                     12
                      A                      A                      A
 Frequencies --    299.9993               329.5334               374.9489
 Red. masses --      1.3613                 1.8871                 1.9451
 Frc consts  --      0.0722                 0.1207                 0.1611
 IR Inten    --     56.2185                39.9540                 2.4971

                     13                     14                     15
                      A                      A                      A
 Frequencies --    405.6630               460.9403               465.1039
 Red. masses --      2.0288                 2.0998                 2.4763
 Frc consts  --      0.1967                 0.2629                 0.3156
 IR Inten    --      4.6524                 0.2897                 3.0053

                     16                     17                     18
                      A                      A                      A
 Frequencies --    508.0341               555.9718               590.5715
 Red. masses --      2.5094                 2.6825                 3.2734
 Frc consts  --      0.3816                 0.4885                 0.6727
 IR Inten    --      2.9240                 1.9360                 3.2742

                     19                     20                     21
                      A                      A                      A
 Frequencies --    707.2337               711.2268               745.6897
 Red. masses --      1.5676                 1.7579                 1.6920
 Frc consts  --      0.4620                 0.5239                 0.5543
 IR Inten    --     67.7426                 4.7419                 1.5339

                     22                     23                     24
                      A                      A                      A
 Frequencies --    749.0936               805.4386               846.3068
 Red. masses --      1.4129                 2.5147                 3.3761
 Frc consts  --      0.4671                 0.9612                 1.4247
 IR Inten    --     25.3814                11.5484                 5.1195

                     25                     26                     27
                      A                      A                      A
 Frequencies --    866.1203               899.9563               902.4415
 Red. masses --      1.6986                 1.9500                 1.7661
 Frc consts  --      0.7508                 0.9305                 0.8474
 IR Inten    --     10.8333                15.6744                 6.8508

                     28                     29                     30
                      A                      A                      A
 Frequencies --    928.9720               939.8445               992.1187
 Red. masses --      2.1552                 2.2206                 1.9219
 Frc consts  --      1.0958                 1.1557                 1.1146
 IR Inten    --      6.4949                14.8117                 6.6816

                     31                     32                     33
                      A                      A                      A
 Frequencies --   1004.0391              1010.7712              1032.4229
 Red. masses --      1.2585                 1.5727                 2.5864
 Frc consts  --      0.7475                 0.9467                 1.6243
 IR Inten    --      4.7710                13.3127                 3.3862

                     34                     35                     36
                      A                      A                      A
 Frequencies --   1065.9782              1074.0269              1094.5542
 Red. masses --      1.6652                 1.7940                 2.5257
 Frc consts  --      1.1148                 1.2193                 1.7828
 IR Inten    --      1.0560                11.1131               109.3316

                     37                     38                     39
                      A                      A                      A
 Frequencies --   1105.7482              1116.4521              1125.4989
 Red. masses --      2.5733                 2.1424                 1.7196
 Frc consts  --      1.8538                 1.5734                 1.2834
 IR Inten    --     17.3814                 6.8851                 5.4832

                     40                     41                     42
                      A                      A                      A
 Frequencies --   1157.5364              1170.0910              1184.2491
 Red. masses --      2.8811                 1.0826                 1.1352
 Frc consts  --      2.2744                 0.8733                 0.9380
 IR Inten    --     44.4050                 0.5846                 5.9019

                     43                     44                     45
                      A                      A                      A
 Frequencies --   1216.4749              1227.0202              1269.3356
 Red. masses --      1.4478                 1.3642                 1.2335
 Frc consts  --      1.2623                 1.2101                 1.1710
 IR Inten    --      8.0667                10.8975                 4.5291

                     46                     47                     48
                      A                      A                      A
 Frequencies --   1280.2047              1297.7968              1327.0946
 Red. masses --      1.2380                 1.2028                 1.1695
 Frc consts  --      1.1954                 1.1936                 1.2136
 IR Inten    --      6.3375                 2.6798                 1.7970

                     49                     50                     51
                      A                      A                      A
 Frequencies --   1356.4519              1374.5977              1379.2760
 Red. masses --      1.4865                 1.4131                 1.3768
 Frc consts  --      1.6114                 1.5732                 1.5432
 IR Inten    --      4.6507                 1.5662                 6.9237

                     52                     53                     54
                      A                      A                      A
 Frequencies --   1388.8875              1392.8057              1399.7157
 Red. masses --      1.4219                 1.4908                 1.3832
 Frc consts  --      1.6160                 1.7039                 1.5967
 IR Inten    --      2.1872                 0.1279                 2.8909

                     55                     56                     57
                      A                      A                      A
 Frequencies --   1406.2097              1409.3332              1423.8704
 Red. masses --      1.3825                 1.2181                 1.3477
 Frc consts  --      1.6107                 1.4254                 1.6099
 IR Inten    --     16.0834                18.1700                16.3981

                     58                     59                     60
                      A                      A                      A
 Frequencies --   1439.4345              1442.1567              1501.3682
 Red. masses --      1.4980                 1.2876                 1.0934
 Frc consts  --      1.8287                 1.5779                 1.4522
 IR Inten    --      0.3274                38.3032                 1.1918

                     61                     62                     63
                      A                      A                      A
 Frequencies --   1504.6011              1510.1374              1512.5670
 Red. masses --      1.1408                 1.0919                 1.0987
 Frc consts  --      1.5216                 1.4671                 1.4810
 IR Inten    --     18.0582                 0.5776                10.0398

                     64                     65                     66
                      A                      A                      A
 Frequencies --   1518.6322              1527.3304              1533.1665
 Red. masses --      1.1281                 1.0979                 1.1112
 Frc consts  --      1.5328                 1.5090                 1.5390
 IR Inten    --     17.2154                13.9745                 5.0087

                     67                     68                     69
                      A                      A                      A
 Frequencies --   1540.9467              1726.5776              2992.8680
 Red. masses --      1.0859                 6.3092                 1.0726
 Frc consts  --      1.5191                11.0814                 5.6608
 IR Inten    --      1.4348                 3.9054                55.3627

                     70                     71                     72
                      A                      A                      A
 Frequencies --   3004.8348              3024.2361              3029.7628
 Red. masses --      1.0701                 1.0660                 1.0716
 Frc consts  --      5.6925                 5.7441                 5.7958
 IR Inten    --     36.0440                26.9041                13.7461

                     73                     74                     75
                      A                      A                      A
 Frequencies --   3032.5053              3040.4797              3044.3996
 Red. masses --      1.0647                 1.0727                 1.0651
 Frc consts  --      5.7688                 5.8427                 5.8162
 IR Inten    --     56.6334                17.8426                 6.6633

                     76                     77                     78
                      A                      A                      A
 Frequencies --   3044.8921              3055.8075              3065.9253
 Red. masses --      1.0753                 1.0827                 1.0959
 Frc consts  --      5.8740                 5.9569                 6.0695
 IR Inten    --     32.0807                55.5773                40.4520

                     79                     80                     81
                      A                      A                      A
 Frequencies --   3079.0491              3086.4496              3087.3399
 Red. masses --      1.0984                 1.1012                 1.1016
 Frc consts  --      6.1355                 6.1807                 6.1866
 IR Inten    --     78.2670                69.1357                39.0769

                     82                     83                     84
                      A                      A                      A
 Frequencies --   3102.9214              3105.4074              3150.5830
 Red. masses --      1.0932                 1.0971                 1.0849
 Frc consts  --      6.2017                 6.2334                 6.3450
 IR Inten    --     42.4525                33.8561                15.7728

                     85                     86                     87
                      A                      A                      A
 Frequencies --   3177.8079              3521.9945              3753.3294
 Red. masses --      1.0950                 1.0737                 1.0660
 Frc consts  --      6.5152                 7.8473                 8.8479
 IR Inten    --     37.4051                 0.0984                 6.9023

 - Thermochemistry -
 -------------------
 Temperature   298.150 Kelvin.  Pressure   1.00000 Atm.
 Atom     1 has atomic number  6 and mass  12.00000

 Molecular mass:   169.14666 amu.
 Principal axes and moments of inertia in atomic units:
                           1         2         3
     Eigenvalues --   958.429364280.680314555.34470
           X            0.99997   0.00159   0.00792
           Y           -0.00173   0.99985   0.01727
           Z           -0.00789  -0.01729   0.99982
 This molecule is an asymmetric top.
 Rotational symmetry number  1.
 Warning -- assumption of classical behavior for rotation
           may cause significant error
 Rotational temperatures (Kelvin)      0.09037     0.02023     0.01901
 Rotational constants (GHZ):           1.88302     0.42160     0.39618
 Zero-point vibrational energy     746362.6 (Joules/Mol)
                                  178.38495 (Kcal/Mol)
 Warning -- explicit consideration of  18 degrees of freedom as
           vibrations may cause significant error
 Vibrational temperatures:     35.37    65.43    83.78   146.82   154.79
          (Kelvin)            247.21   303.52   368.98   391.02   431.63
                              474.13   539.47   583.66   663.19   669.18
                              730.95   799.92   849.70  1017.55  1023.30
                             1072.88  1077.78  1158.85  1217.65  1246.15
                             1294.84  1298.41  1336.58  1352.23  1427.44
                             1444.59  1454.27  1485.43  1533.70  1545.29
                             1574.82  1590.92  1606.33  1619.34  1665.44
                             1683.50  1703.87  1750.24  1765.41  1826.29
                             1841.93  1867.24  1909.39  1951.63  1977.74
                             1984.47  1998.30  2003.94  2013.88  2023.22
                             2027.72  2048.63  2071.03  2074.94  2160.13
                             2164.79  2172.75  2176.25  2184.97  2197.49
                             2205.88  2217.08  2484.16  4306.07  4323.29
                             4351.20  4359.15  4363.10  4374.57  4380.21
                             4380.92  4396.63  4411.18  4430.06  4440.71
                             4441.99  4464.41  4467.99  4532.99  4572.16
                             5067.36  5400.20

 Zero-point correction=                           0.284275 (Hartree/Particle)
 Thermal correction to Energy=                    0.297074
 Thermal correction to Enthalpy=                  0.298018
 Thermal correction to Gibbs Free Energy=         0.243792
 Sum of electronic and zero-point Energies=           -522.209845
 Sum of electronic and thermal Energies=              -522.197045
 Sum of electronic and thermal Enthalpies=            -522.196101
 Sum of electronic and thermal Free Energies=         -522.250328

                     E (Thermal)             CV                S
                      KCal/Mol        Cal/Mol-Kelvin    Cal/Mol-Kelvin
 Total                  186.417             48.685            114.129
 Electronic               0.000              0.000              0.000
 Translational            0.889              2.981             41.285
 Rotational               0.889              2.981             31.303
 Vibrational            184.639             42.724             41.541
 Vibration     1          0.593              1.985              6.225
 Vibration     2          0.595              1.979              5.005
 Vibration     3          0.596              1.974              4.516
 Vibration     4          0.604              1.948              3.415
 Vibration     5          0.606              1.943              3.312
 Vibration     6          0.626              1.877              2.416
 Vibration     7          0.643              1.824              2.035
 Vibration     8          0.666              1.752              1.686
 Vibration     9          0.675              1.725              1.585
 Vibration    10          0.693              1.674              1.417
 Vibration    11          0.712              1.617              1.262
 Vibration    12          0.746              1.523              1.059
 Vibration    13          0.771              1.458              0.942
 Vibration    14          0.819              1.337              0.763
 Vibration    15          0.823              1.327              0.751
 Vibration    16          0.863              1.232              0.638
 Vibration    17          0.911              1.127              0.532
 Vibration    18          0.948              1.052              0.466

                           ! Non-Optimized Parameters !
 Normal termination of Gaussian 16 at Wed Dec  9 17:16:36 2020.

 ----------------------------------------------------------------------
 # B3LYP/6-311++G(d,p) empiricaldispersion=gd3bj scf=xqc pop=npa geom=c
 heck
 ----------------------------------------------------------------------

 ---------------------------------------
 CID_107908350_JID_2273_Energie_neutraal
 ---------------------------------------
 Structure from the checkpoint file:  "JID_2273.chk"
 Charge =  0 Multiplicity = 1

 SCF Done:  E(RB3LYP) =  -522.654435751     A.U. after   14 cycles
 Normal termination of Gaussian 16 at Wed Dec  9 17:20:37 2020.

 ----------------------------------------------------------------------
 # B3LYP/6-311++G(d,p) empiricaldispersion=gd3bj scf=xqc pop=npa geom=c
 heck
 ----------------------------------------------------------------------

 -------------------------------------
 CID_107908350_JID_2273_Energie_kation
 -------------------------------------
 Structure from the checkpoint file:  "JID_2273.chk"
 Charge =  1 Multiplicity = 2

 SCF Done:  E(UB3LYP) =  -522.361904562     A.U. after   20 cycles
 Normal termination of Gaussian 16 at Wed Dec  9 17:28:23 2020.
 Gaussian 16:  ES64L-G16RevA.03 25-Dec-2016

 ----------------------------------------------------------------------
 # B3LYP/6-311++G(d,p) empiricaldispersion=gd3bj scf=xqc pop=npa geom=c
 heck
 ----------------------------------------------------------------------

 ------------------------------------
 CID_107908350_JID_2273_Energie_anion
 ------------------------------------
 Structure from the checkpoint file:  "JID_2273.chk"
 Charge = -1 Multiplicity = 2

                         Standard orientation:
 ---------------------------------------------------------------------
 Center     Atomic      Atomic             Coordinates (Angstroms)
 Number     Number       Type             X           Y           Z
 ---------------------------------------------------------------------
      1          6           0       -3.063333    0.264503   -1.085247
      2          6           0       -3.351940   -1.097634   -0.439915
      3          6           0       -2.267943   -1.515043    0.520720
      4          6           0       -1.326313   -0.685743    0.985541
      5          6           0       -1.211645    0.762340    0.559633
      6          6           0       -2.540608    1.254338   -0.039919
      7          7           0       -0.108585    0.981887   -0.402651
      8          6           0        1.170316    1.414347    0.149538
      9          6           0        1.923600    0.426905    1.063325
     10          6           0        2.253859   -0.926419    0.416486
     11          6           0        3.112609   -0.826196   -0.847011
     12          8           0        4.364149   -0.183827   -0.626487
     13          1           0       -3.965201    0.651491   -1.573087
     14          1           0       -2.305611    0.148871   -1.871622
     15          1           0       -4.309639   -1.057433    0.103569
     16          1           0       -3.484741   -1.869401   -1.210103
     17          1           0       -2.280853   -2.551152    0.857450
     18          1           0       -0.573712   -1.061148    1.676112
     19          1           0       -0.980862    1.377436    1.439287
     20          1           0       -2.379157    2.242269   -0.482038
     21          1           0       -3.282102    1.360248    0.764627
     22          1           0        0.015696    0.148858   -0.971377
     23          1           0        1.810161    1.689553   -0.700376
     24          1           0        0.993144    2.344839    0.703555
     25          1           0        2.856016    0.904416    1.397908
     26          1           0        1.338174    0.254812    1.975097
     27          1           0        2.782221   -1.549679    1.148016
     28          1           0        1.325062   -1.455162    0.163617
     29          1           0        3.359184   -1.830506   -1.205385
     30          1           0        2.553870   -0.326672   -1.655247
     31          1           0        4.183638    0.747373   -0.428460
 ---------------------------------------------------------------------

 SCF Done:  E(UB3LYP) =  -522.640599199     A.U. after   32 cycles

 The electronic state is 2-A.
 Alpha  occ. eigenvalues --  -19.02516 -14.19453 -10.11826 -10.09854 -10.09166
 Alpha  occ. eigenvalues --  -10.06931 -10.06887 -10.06800 -10.06604 -10.06414
 Alpha  occ. eigenvalues --  -10.06348 -10.05942  -0.92578  -0.80827  -0.72554
 Alpha  occ. eigenvalues --   -0.68547  -0.64238  -0.63568  -0.60165  -0.54241
 Alpha  occ. eigenvalues --   -0.51632  -0.49864  -0.47106  -0.42669  -0.41432
 Alpha  occ. eigenvalues --   -0.40346  -0.37249  -0.36064  -0.35772  -0.33916
 Alpha  occ. eigenvalues --   -0.33377  -0.32100  -0.31427  -0.30050  -0.29469
 Alpha  occ. eigenvalues --   -0.28573  -0.27631  -0.26112  -0.25122  -0.24323
 Alpha  occ. eigenvalues --   -0.23156  -0.22392  -0.21675  -0.21364  -0.18113
 Alpha  occ. eigenvalues --   -0.15867  -0.11796   0.04386
 Alpha virt. eigenvalues --    0.06184   0.07291   0.07408   0.08462   0.08942
 Alpha virt. eigenvalues --    0.09148   0.09907   0.10018   0.10659   0.11294
 Alpha virt. eigenvalues --    0.11493   0.11607   0.12233   0.13227   0.13395

  Beta  occ. eigenvalues --  -19.02484 -14.19447 -10.11810 -10.09844 -10.09139
  Beta  occ. eigenvalues --  -10.06908 -10.06872 -10.06790 -10.06579 -10.06400
  Beta  occ. eigenvalues --  -10.06337 -10.05930  -0.92510  -0.80808  -0.72520
  Beta  occ. eigenvalues --   -0.68506  -0.64202  -0.63525  -0.60109  -0.54179
  Beta  occ. eigenvalues --   -0.51580  -0.49821  -0.47045  -0.42627  -0.41381
  Beta  occ. eigenvalues --   -0.40286  -0.37202  -0.36033  -0.35718  -0.33877
  Beta  occ. eigenvalues --   -0.33340  -0.32056  -0.31395  -0.30017  -0.29436
  Beta  occ. eigenvalues --   -0.28544  -0.27594  -0.26079  -0.25086  -0.24284
  Beta  occ. eigenvalues --   -0.23125  -0.22362  -0.21641  -0.21328  -0.18075
  Beta  occ. eigenvalues --   -0.15842  -0.11780
  Beta virt. eigenvalues --    0.06543   0.07303   0.07749   0.07976   0.08996
  Beta virt. eigenvalues --    0.09383   0.09564   0.10227   0.10332   0.10868
  Beta virt. eigenvalues --    0.11642   0.11710   0.12061   0.12568   0.13434

 Mulliken charges and spin densities:
               1          2
     1  C   -1.089787   1.000361
     2  C    2.093368  -2.892253
     3  C    0.080122   0.149005
     4  C   -0.149774  -0.373261
     5  C   -0.858008   0.839226
     6  C    0.533360  -1.042781
     7  N    0.111094   0.041340
     8  C    0.560282  -0.911791
     9  C   -0.053595  -0.175883
    10  C   -0.539971   0.323206
    11  C    0.904634  -1.374075
    12  O   -0.276860   0.041280
    13  H   -0.150124   0.319849
    14  H   -0.144501   0.277696
    15  H   -0.078655   0.220901
    16  H   -0.342854   0.494908
    17  H   -0.649245   0.832232
    18  H   -0.055413   0.184762
    19  H    0.033994   0.151371
    20  H    0.090035   0.078352
    21  H   -0.214616   0.326963
    22  H    0.469065  -0.311490
    23  H   -0.110416   0.265620
    24  H   -0.474409   0.639717
    25  H   -0.267831   0.431265
    26  H   -0.162900   0.299227
    27  H   -0.154586   0.324049
    28  H    0.080711   0.082312
    29  H    0.066765   0.097665
    30  H   -0.248408   0.407238
    31  H   -0.001481   0.252990
 Sum of Mulliken charges =  -1.00000   1.00000

 Dipole moment (field-independent basis, Debye):
    X=             -0.0890    Y=              0.2765    Z=             -0.4871  Tot=              0.5672
 Quadrupole moment (field-independent basis, Debye-Ang):
   XX=           -160.3932   YY=           -119.2375   ZZ=           -109.7427
   XY=             -9.7449   XZ=             -1.5052   YZ=             -0.2137

 Summary of Natural Population Analysis:

                                       Natural Population
                Natural  -----------------------------------------------
    Atom  No    Charge         Core      Valence    Rydberg      Total
 -----------------------------------------------------------------------
      C    1   -0.19160      0.99963     2.18302    0.00894     3.19160
      C    2   -0.20802      0.99962     2.19933    0.00907     3.20802
      C    3   -0.08664      0.99953     2.07622    0.01089     3.08664
      C    4   -0.10942      0.99950     2.09903    0.01089     3.10942
      C    5   -0.02722      0.99956     2.01370    0.01395     3.02722
      C    6   -0.18627      0.99961     2.17841    0.00824     3.18627
      N    7   -0.34235      0.99974     2.83042    0.01218     3.84235
      C    8   -0.08710      0.99962     2.07409    0.01339     3.08710
      C    9   -0.20582      0.99962     2.19637    0.00983     3.20582
      C   10   -0.20803      0.99962     2.20078    0.00763     3.20803
      C   11   -0.00936      0.99960     1.99792    0.01184     3.00936
      O   12   -0.37059      0.99990     3.36384    0.00684     4.37059
      H   13    0.09846      0.00000     0.40044    0.00110     0.40154
      H   14    0.09481      0.00000     0.40360    0.00159     0.40519
      H   15    0.10123      0.00000     0.39725    0.00153     0.39877
      H   16    0.10339      0.00000     0.39506    0.00155     0.39661
      H   17    0.09736      0.00000     0.40120    0.00144     0.40264
      H   18    0.09852      0.00000     0.39978    0.00170     0.40148
      H   19    0.09814      0.00000     0.40007    0.00180     0.40186
      H   20    0.10284      0.00000     0.39567    0.00150     0.39716
      H   21    0.09386      0.00000     0.40482    0.00131     0.40614
      H   22    0.17278      0.00000     0.32345    0.00377     0.32722
      H   23    0.09041      0.00000     0.40822    0.00138     0.40959
      H   24    0.09471      0.00000     0.40373    0.00156     0.40529
      H   25    0.09802      0.00000     0.40016    0.00182     0.40198
      H   26    0.09920      0.00000     0.39923    0.00156     0.40080
      H   27    0.09943      0.00000     0.39936    0.00121     0.40057
      H   28    0.10101      0.00000     0.39732    0.00167     0.39899
      H   29    0.08517      0.00000     0.41354    0.00129     0.41483
      H   30    0.07398      0.00000     0.42449    0.00153     0.42602
      H   31    0.22909      0.00000     0.26705    0.00387     0.27091
 =======================================================================
   * Total *    0.00000     11.99556    34.84757    0.15687    47.00000

 Normal termination of Gaussian 16 at Wed Dec  9 17:41:19 2020.
