 Gaussian 16, Revision A.03,

 -----------------------------------------------------------
 # opt freq B3LYP/6-31G(d) empiricaldispersion=gd3bj scf=xqc
 -----------------------------------------------------------

 -------------------------------
 CID_116239337_JID_1487_neutraal
 -------------------------------
 Symbolic Z-matrix:
 Charge =  0 Multiplicity = 1

 SCF Done:  E(RB3LYP) =  -844.490744748     A.U. after   13 cycles
 SCF Done:  E(RB3LYP) =  -844.493488203     A.U. after   11 cycles
 SCF Done:  E(RB3LYP) =  -844.487308419     A.U. after   12 cycles
 SCF Done:  E(RB3LYP) =  -844.493170178     A.U. after   10 cycles
 SCF Done:  E(RB3LYP) =  -844.494265961     A.U. after    8 cycles
 SCF Done:  E(RB3LYP) =  -844.495342293     A.U. after   11 cycles
 SCF Done:  E(RB3LYP) =  -844.495646123     A.U. after   11 cycles
 SCF Done:  E(RB3LYP) =  -844.495816078     A.U. after   10 cycles
 SCF Done:  E(RB3LYP) =  -844.495920345     A.U. after   10 cycles
 SCF Done:  E(RB3LYP) =  -844.495931585     A.U. after   10 cycles
 SCF Done:  E(RB3LYP) =  -844.495943323     A.U. after   10 cycles
 SCF Done:  E(RB3LYP) =  -844.495946877     A.U. after    8 cycles
 SCF Done:  E(RB3LYP) =  -844.495949303     A.U. after    8 cycles
 SCF Done:  E(RB3LYP) =  -844.495949959     A.U. after    8 cycles
 SCF Done:  E(RB3LYP) =  -844.495950120     A.U. after    7 cycles
 SCF Done:  E(RB3LYP) =  -844.495950170     A.U. after    6 cycles
 Optimization completed.
    -- Stationary point found.
 Normal termination of Gaussian 16 at Tue Dec  8 20:13:57 2020.

 --------------------------------------------------------------------
 #N Geom=AllCheck Guess=TCheck SCRF=Check GenChk RB3LYP/6-31G(d) Freq
 --------------------------------------------------------------------

 Structure from the checkpoint file:  "JID_1487.chk"
 -------------------------------
 CID_116239337_JID_1487_neutraal
 -------------------------------
 Charge =  0 Multiplicity = 1

 SCF Done:  E(RB3LYP) =  -844.495950170     A.U. after    1 cycles

  Exact polarizability: 126.544   3.972 116.430   3.147  -0.669  93.928
 Approx polarizability: 154.573   3.064 164.662   8.098  -1.440 146.773

                      1                      2                      3
                      A                      A                      A
 Frequencies --     25.0606                45.3018                67.9314
 Red. masses --      3.2715                 3.1296                 3.3995
 Frc consts  --      0.0012                 0.0038                 0.0092
 IR Inten    --      0.1986                 3.0077                 1.5134

                      4                      5                      6
                      A                      A                      A
 Frequencies --     76.3607               111.0490               136.3177
 Red. masses --      2.9919                 3.6930                 3.0980
 Frc consts  --      0.0103                 0.0268                 0.0339
 IR Inten    --      0.1027                 2.8685                 0.7792

                      7                      8                      9
                      A                      A                      A
 Frequencies --    169.7023               185.6336               208.8822
 Red. masses --      1.1376                 3.8439                 1.1656
 Frc consts  --      0.0193                 0.0780                 0.0300
 IR Inten    --      1.5138                 1.6542                 0.4042

                     10                     11                     12
                      A                      A                      A
 Frequencies --    238.0380               256.1775               277.7089
 Red. masses --      1.1439                 2.9373                 2.4015
 Frc consts  --      0.0382                 0.1136                 0.1091
 IR Inten    --      0.3876                 1.0325                 1.0720

                     13                     14                     15
                      A                      A                      A
 Frequencies --    292.4220               341.7541               378.6388
 Red. masses --      2.4640                 2.2980                 2.1611
 Frc consts  --      0.1241                 0.1581                 0.1825
 IR Inten    --      0.1712                 1.3383                 1.5174

                     16                     17                     18
                      A                      A                      A
 Frequencies --    399.2554               425.6154               471.2683
 Red. masses --      2.3636                 2.2581                 2.9905
 Frc consts  --      0.2220                 0.2410                 0.3913
 IR Inten    --      1.8002                 0.6168                 2.2684

                     19                     20                     21
                      A                      A                      A
 Frequencies --    510.2135               599.6601               645.1966
 Red. masses --      2.7011                 1.1286                 3.7924
 Frc consts  --      0.4143                 0.2391                 0.9301
 IR Inten    --      2.1936                63.3698                 8.5182

                     22                     23                     24
                      A                      A                      A
 Frequencies --    680.7360               721.7843               779.6680
 Red. masses --      3.4708                 5.5301                 1.7942
 Frc consts  --      0.9476                 1.6975                 0.6426
 IR Inten    --      5.8935                 4.1982                91.8501

                     25                     26                     27
                      A                      A                      A
 Frequencies --    810.0327               858.8097               899.5940
 Red. masses --      1.4760                 1.9177                 2.4322
 Frc consts  --      0.5706                 0.8333                 1.1597
 IR Inten    --     32.4475                24.6277                 3.0885

                     28                     29                     30
                      A                      A                      A
 Frequencies --    935.0149               940.9621               945.2904
 Red. masses --      1.9800                 1.4907                 1.4239
 Frc consts  --      1.0199                 0.7776                 0.7496
 IR Inten    --      6.5026                 3.8409                 3.1621

                     31                     32                     33
                      A                      A                      A
 Frequencies --    970.7417               976.9594               990.6703
 Red. masses --      1.6148                 1.4510                 1.1948
 Frc consts  --      0.8965                 0.8159                 0.6909
 IR Inten    --     14.2737                 3.4250                 4.2898

                     34                     35                     36
                      A                      A                      A
 Frequencies --   1027.3497              1045.0622              1074.8988
 Red. masses --      1.5457                 2.0720                 1.8796
 Frc consts  --      0.9612                 1.3333                 1.2795
 IR Inten    --     28.5166                19.0281                 6.0989

                     37                     38                     39
                      A                      A                      A
 Frequencies --   1103.2504              1145.0591              1154.3883
 Red. masses --      2.9657                 2.1423                 1.9358
 Frc consts  --      2.1268                 1.6550                 1.5199
 IR Inten    --     52.2314                59.1662                12.1195

                     40                     41                     42
                      A                      A                      A
 Frequencies --   1184.3087              1206.8498              1229.9989
 Red. masses --      2.0205                 1.7043                 1.3371
 Frc consts  --      1.6697                 1.4625                 1.1919
 IR Inten    --      2.0237                 2.1075                10.3779

                     43                     44                     45
                      A                      A                      A
 Frequencies --   1256.9600              1283.5911              1318.7741
 Red. masses --      1.2989                 1.3889                 1.3106
 Frc consts  --      1.2091                 1.3483                 1.3429
 IR Inten    --     16.3178                27.1167                 3.8743

                     46                     47                     48
                      A                      A                      A
 Frequencies --   1325.3308              1354.1729              1365.3560
 Red. masses --      1.4137                 1.2287                 1.3883
 Frc consts  --      1.4630                 1.3275                 1.5249
 IR Inten    --      9.4988                19.1940                 2.9304

                     49                     50                     51
                      A                      A                      A
 Frequencies --   1392.8142              1401.1904              1415.1006
 Red. masses --      1.1668                 1.2721                 1.3136
 Frc consts  --      1.3336                 1.4716                 1.5499
 IR Inten    --      4.4611                 9.6445                12.8786

                     52                     53                     54
                      A                      A                      A
 Frequencies --   1418.4130              1426.1252              1448.4014
 Red. masses --      1.3352                 1.2642                 1.2342
 Frc consts  --      1.5827                 1.5149                 1.5255
 IR Inten    --      6.5886                 5.0164                10.6183

                     55                     56                     57
                      A                      A                      A
 Frequencies --   1469.6377              1484.8643              1498.6215
 Red. masses --      1.2463                 1.0886                 1.0691
 Frc consts  --      1.5859                 1.4141                 1.4147
 IR Inten    --    113.2245                 7.3174                17.8411

                     58                     59                     60
                      A                      A                      A
 Frequencies --   1504.6134              1509.7821              1513.9761
 Red. masses --      1.0846                 1.1940                 1.0618
 Frc consts  --      1.4467                 1.6035                 1.4339
 IR Inten    --      2.5482                14.3949                12.1530

                     61                     62                     63
                      A                      A                      A
 Frequencies --   1519.5113              1520.7728              1528.8905
 Red. masses --      1.0601                 1.0487                 1.0657
 Frc consts  --      1.4421                 1.4290                 1.4677
 IR Inten    --      5.0806                 0.4344                 8.7364

                     64                     65                     66
                      A                      A                      A
 Frequencies --   1541.6231              1545.1843              3001.0621
 Red. masses --      1.0731                 1.0576                 1.0815
 Frc consts  --      1.5027                 1.4877                 5.7389
 IR Inten    --     10.4635                13.4658                17.3113

                     67                     68                     69
                      A                      A                      A
 Frequencies --   3019.0328              3036.0522              3040.9320
 Red. masses --      1.0669                 1.0778                 1.0399
 Frc consts  --      5.7296                 5.8532                 5.6657
 IR Inten    --     26.1331                33.2618                28.2053

                     70                     71                     72
                      A                      A                      A
 Frequencies --   3042.4779              3047.9135              3065.1455
 Red. masses --      1.0623                 1.0465                 1.0389
 Frc consts  --      5.7936                 5.7281                 5.7506
 IR Inten    --     35.2449                63.3392                21.0883

                     73                     74                     75
                      A                      A                      A
 Frequencies --   3067.2761              3086.7215              3092.7719
 Red. masses --      1.0521                 1.0954                 1.1017
 Frc consts  --      5.8321                 6.1493                 6.2087
 IR Inten    --     28.4246                22.6991                25.3925

                     76                     77                     78
                      A                      A                      A
 Frequencies --   3100.4826              3107.8295              3117.6632
 Red. masses --      1.1003                 1.0992                 1.1012
 Frc consts  --      6.2316                 6.2555                 6.3062
 IR Inten    --     11.9460                66.2203                59.4262

                     79                     80                     81
                      A                      A                      A
 Frequencies --   3118.9508              3148.0690              3155.3293
 Red. masses --      1.1058                 1.1049                 1.0982
 Frc consts  --      6.3379                 6.4516                 6.4418
 IR Inten    --     18.5008                 9.3254                13.9637

                     82                     83                     84
                      A                      A                      A
 Frequencies --   3159.2894              3505.4523              3583.1571
 Red. masses --      1.1047                 1.0733                 1.0644
 Frc consts  --      6.4967                 7.7706                 8.0514
 IR Inten    --     11.2058                 1.5446               113.0015

 - Thermochemistry -
 -------------------
 Temperature   298.150 Kelvin.  Pressure   1.00000 Atm.
 Atom     1 has atomic number  6 and mass  12.00000

 Molecular mass:   177.11874 amu.
 Principal axes and moments of inertia in atomic units:
                           1         2         3
     Eigenvalues --  1235.698023874.503454696.01411
           X            0.99964   0.02476  -0.01026
           Y           -0.02467   0.99966   0.00843
           Z            0.01046  -0.00818   0.99991
 This molecule is an asymmetric top.
 Rotational symmetry number  1.
 Warning -- assumption of classical behavior for rotation
           may cause significant error
 Rotational temperatures (Kelvin)      0.07009     0.02235     0.01844
 Rotational constants (GHZ):           1.46050     0.46580     0.38431
 Zero-point vibrational energy     712274.1 (Joules/Mol)
                                  170.23760 (Kcal/Mol)
 Warning -- explicit consideration of  20 degrees of freedom as
           vibrations may cause significant error
 Vibrational temperatures:     36.06    65.18    97.74   109.87   159.77
          (Kelvin)            196.13   244.16   267.09   300.53   342.48
                              368.58   399.56   420.73   491.71   544.78
                              574.44   612.37   678.05   734.08   862.78
                              928.29   979.43  1038.49  1121.77  1165.46
                             1235.64  1294.32  1345.28  1353.83  1360.06
                             1396.68  1405.63  1425.35  1478.13  1503.61
                             1546.54  1587.33  1647.48  1660.91  1703.96
                             1736.39  1769.69  1808.49  1846.80  1897.42
                             1906.86  1948.35  1964.44  2003.95  2016.00
                             2036.01  2040.78  2051.88  2083.93  2114.48
                             2136.39  2156.18  2164.80  2172.24  2178.27
                             2186.24  2188.05  2199.73  2218.05  2223.18
                             4317.86  4343.71  4368.20  4375.22  4377.45
                             4385.27  4410.06  4413.13  4441.10  4449.81
                             4460.90  4471.47  4485.62  4487.47  4529.37
                             4539.82  4545.51  5043.56  5155.36

 Zero-point correction=                           0.271291 (Hartree/Particle)
 Thermal correction to Energy=                    0.285596
 Thermal correction to Enthalpy=                  0.286540
 Thermal correction to Gibbs Free Energy=         0.229116
 Sum of electronic and zero-point Energies=           -844.224659
 Sum of electronic and thermal Energies=              -844.210354
 Sum of electronic and thermal Enthalpies=            -844.209410
 Sum of electronic and thermal Free Energies=         -844.266834

                     E (Thermal)             CV                S
                      KCal/Mol        Cal/Mol-Kelvin    Cal/Mol-Kelvin
 Total                  179.214             51.880            120.860
 Electronic               0.000              0.000              0.000
 Translational            0.889              2.981             41.422
 Rotational               0.889              2.981             31.486
 Vibrational            177.437             45.919             47.952
 Vibration     1          0.593              1.985              6.186
 Vibration     2          0.595              1.979              5.013
 Vibration     3          0.598              1.970              4.212
 Vibration     4          0.599              1.965              3.982
 Vibration     5          0.607              1.940              3.250
 Vibration     6          0.614              1.917              2.855
 Vibration     7          0.625              1.880              2.439
 Vibration     8          0.632              1.859              2.271
 Vibration     9          0.642              1.827              2.053
 Vibration    10          0.656              1.782              1.817
 Vibration    11          0.666              1.752              1.688
 Vibration    12          0.679              1.715              1.548
 Vibration    13          0.688              1.688              1.460
 Vibration    14          0.721              1.592              1.204
 Vibration    15          0.749              1.516              1.045
 Vibration    16          0.765              1.472              0.965
 Vibration    17          0.787              1.415              0.873
 Vibration    18          0.828              1.314              0.734
 Vibration    19          0.865              1.227              0.633
 Vibration    20          0.958              1.033              0.450

                           ! Non-Optimized Parameters !
 Normal termination of Gaussian 16 at Tue Dec  8 20:21:31 2020.

 ----------------------------------------------------------------------
 # B3LYP/6-311++G(d,p) empiricaldispersion=gd3bj scf=xqc pop=npa geom=c
 heck
 ----------------------------------------------------------------------

 ---------------------------------------
 CID_116239337_JID_1487_Energie_neutraal
 ---------------------------------------
 Structure from the checkpoint file:  "JID_1487.chk"
 Charge =  0 Multiplicity = 1

 SCF Done:  E(RB3LYP) =  -844.664464440     A.U. after   13 cycles
 Normal termination of Gaussian 16 at Tue Dec  8 20:25:13 2020.

 ----------------------------------------------------------------------
 # B3LYP/6-311++G(d,p) empiricaldispersion=gd3bj scf=xqc pop=npa geom=c
 heck
 ----------------------------------------------------------------------

 -------------------------------------
 CID_116239337_JID_1487_Energie_kation
 -------------------------------------
 Structure from the checkpoint file:  "JID_1487.chk"
 Charge =  1 Multiplicity = 2

 SCF Done:  E(UB3LYP) =  -844.361714792     A.U. after   22 cycles
 Normal termination of Gaussian 16 at Tue Dec  8 20:35:28 2020.
 Gaussian 16:  ES64L-G16RevA.03 25-Dec-2016

 ----------------------------------------------------------------------
 # B3LYP/6-311++G(d,p) empiricaldispersion=gd3bj scf=xqc pop=npa geom=c
 heck
 ----------------------------------------------------------------------

 ------------------------------------
 CID_116239337_JID_1487_Energie_anion
 ------------------------------------
 Structure from the checkpoint file:  "JID_1487.chk"
 Charge = -1 Multiplicity = 2

                         Standard orientation:
 ---------------------------------------------------------------------
 Center     Atomic      Atomic             Coordinates (Angstroms)
 Number     Number       Type             X           Y           Z
 ---------------------------------------------------------------------
      1          6           0        2.045319    1.953418    0.496019
      2          6           0        2.313581    0.660270   -0.285570
      3          6           0        3.782677    0.592974   -0.717870
      4          6           0        1.941155   -0.597398    0.533238
      5          6           0        0.439738   -0.715499    0.856940
      6          7           0       -0.280388   -1.082982   -0.366393
      7          6           0       -1.575169   -1.722956   -0.173743
      8          6           0       -2.675186   -0.867332    0.473277
      9         16           0       -3.164276    0.599866   -0.523069
     10          6           0       -2.129040    1.913068    0.214878
     11          8           0        2.335557   -1.790002   -0.129139
     12          1           0        2.615908    1.962541    1.433753
     13          1           0        0.988857    2.086819    0.751757
     14          1           0        2.355608    2.828336   -0.085869
     15          1           0        1.695948    0.663787   -1.197640
     16          1           0        4.442676    0.617637    0.159345
     17          1           0        3.982961   -0.332712   -1.261125
     18          1           0        4.042525    1.445702   -1.355577
     19          1           0        2.500645   -0.559806    1.478549
     20          1           0        0.314532   -1.543476    1.563585
     21          1           0        0.059433    0.191836    1.348506
     22          1           0       -0.393745   -0.277707   -0.979045
     23          1           0       -1.928055   -2.066945   -1.152443
     24          1           0       -1.418242   -2.616545    0.445342
     25          1           0       -3.583336   -1.468980    0.587442
     26          1           0       -2.385875   -0.525157    1.472696
     27          1           0       -2.261788    1.949397    1.300183
     28          1           0       -1.069944    1.790116   -0.021112
     29          1           0       -2.473629    2.859110   -0.210492
     30          1           0        1.563742   -2.000198   -0.693899
 ---------------------------------------------------------------------

 SCF Done:  E(UB3LYP) =  -844.650087223     A.U. after   30 cycles

 The electronic state is 2-A.
 Alpha  occ. eigenvalues --  -88.74061 -19.01165 -14.21472 -10.11858 -10.10605
 Alpha  occ. eigenvalues --  -10.09904 -10.09725 -10.09139 -10.07693 -10.05942
 Alpha  occ. eigenvalues --  -10.05904  -7.82656  -5.79058  -5.78686  -5.78025
 Alpha  occ. eigenvalues --   -0.92177  -0.81931  -0.70768  -0.69896  -0.64623
 Alpha  occ. eigenvalues --   -0.61039  -0.58531  -0.55061  -0.52811  -0.48797
 Alpha  occ. eigenvalues --   -0.46810  -0.41338  -0.39278  -0.37864  -0.36302
 Alpha  occ. eigenvalues --   -0.35292  -0.33813  -0.33398  -0.32684  -0.32118
 Alpha  occ. eigenvalues --   -0.30981  -0.29957  -0.28976  -0.28419  -0.27306
 Alpha  occ. eigenvalues --   -0.25678  -0.25209  -0.24528  -0.23724  -0.21800
 Alpha  occ. eigenvalues --   -0.21064  -0.17220  -0.15086  -0.12683   0.04560
 Alpha virt. eigenvalues --    0.06389   0.07393   0.07532   0.08952   0.09279
 Alpha virt. eigenvalues --    0.09587   0.09883   0.10241   0.11429   0.12001
 Alpha virt. eigenvalues --    0.12198   0.12387   0.12641   0.13354   0.13951

  Beta  occ. eigenvalues --  -88.74055 -19.01162 -14.21468 -10.11851 -10.10589
  Beta  occ. eigenvalues --  -10.09875 -10.09703 -10.09076 -10.07686 -10.05902
  Beta  occ. eigenvalues --  -10.05891  -7.82650  -5.79051  -5.78671  -5.78021
  Beta  occ. eigenvalues --   -0.92168  -0.81913  -0.70738  -0.69858  -0.64572
  Beta  occ. eigenvalues --   -0.60989  -0.58472  -0.54998  -0.52758  -0.48725
  Beta  occ. eigenvalues --   -0.46763  -0.41315  -0.39226  -0.37840  -0.36275
  Beta  occ. eigenvalues --   -0.35255  -0.33776  -0.33344  -0.32630  -0.32063
  Beta  occ. eigenvalues --   -0.30935  -0.29925  -0.28952  -0.28384  -0.27274
  Beta  occ. eigenvalues --   -0.25627  -0.25179  -0.24504  -0.23684  -0.21778
  Beta  occ. eigenvalues --   -0.21001  -0.17209  -0.15073  -0.12656
  Beta virt. eigenvalues --    0.06884   0.07301   0.07962   0.08065   0.09345
  Beta virt. eigenvalues --    0.09711   0.09972   0.10344   0.10733   0.11730
  Beta virt. eigenvalues --    0.12206   0.12449   0.12663   0.12964   0.13576

 Mulliken charges and spin densities:
               1          2
     1  C    0.939393  -1.552593
     2  C   -0.668706   1.170510
     3  C   -0.129775  -0.454639
     4  C    0.982793  -1.536109
     5  C   -0.475122  -0.045754
     6  N   -0.284894   0.081113
     7  C    0.254371  -0.574395
     8  C    0.139186  -0.353263
     9  S   -0.323081   0.499575
    10  C    0.697585  -1.349575
    11  O   -0.211569   0.020884
    12  H   -0.227107   0.366573
    13  H   -0.637247   0.731898
    14  H   -0.272073   0.421255
    15  H   -0.038603   0.191860
    16  H    0.064392   0.060423
    17  H    0.111449   0.041464
    18  H   -0.049501   0.179847
    19  H   -0.098909   0.309303
    20  H   -0.294042   0.497069
    21  H    0.488694  -0.369883
    22  H    0.213544   0.031546
    23  H   -0.022457   0.180396
    24  H   -0.084874   0.222119
    25  H   -0.591128   0.844340
    26  H   -0.235360   0.405890
    27  H   -0.586999   0.794259
    28  H    0.360669  -0.277526
    29  H   -0.289721   0.465563
    30  H    0.269091  -0.002150
 Sum of Mulliken charges =  -1.00000   1.00000

 Dipole moment (field-independent basis, Debye):
    X=              2.0613    Y=             -2.7942    Z=             -3.8281  Tot=              5.1683
 Quadrupole moment (field-independent basis, Debye-Ang):
   XX=           -146.6807   YY=           -132.9785   ZZ=           -113.5130
   XY=              0.1825   XZ=              5.8922   YZ=             -0.0933

 Summary of Natural Population Analysis:

                                       Natural Population
                Natural  -----------------------------------------------
    Atom  No    Charge         Core      Valence    Rydberg      Total
 -----------------------------------------------------------------------
      C    1   -0.28680      0.99965     2.28042    0.00674     3.28680
      C    2   -0.12433      0.99960     2.11465    0.01009     3.12433
      C    3   -0.28374      0.99965     2.27908    0.00501     3.28374
      C    4    0.06367      0.99954     1.92103    0.01576     2.93633
      C    5   -0.10277      0.99960     2.09174    0.01143     3.10277
      N    6   -0.35770      0.99974     2.84622    0.01173     3.85770
      C    7   -0.08854      0.99961     2.07503    0.01390     3.08854
      C    8   -0.26079      0.99959     2.24985    0.01135     3.26079
      S    9    0.07655      4.99964     2.90482    0.01899     7.92345
      C   10   -0.34606      0.99962     2.33977    0.00667     3.34606
      O   11   -0.38154      0.99990     3.37515    0.00650     4.38154
      H   12    0.09744      0.00000     0.40124    0.00132     0.40256
      H   13    0.10032      0.00000     0.39781    0.00186     0.39968
      H   14    0.10136      0.00000     0.39742    0.00121     0.39864
      H   15    0.08900      0.00000     0.40878    0.00222     0.41100
      H   16    0.09477      0.00000     0.40437    0.00086     0.40523
      H   17    0.10702      0.00000     0.39198    0.00100     0.39298
      H   18    0.09601      0.00000     0.40319    0.00080     0.40399
      H   19    0.08454      0.00000     0.41375    0.00171     0.41546
      H   20    0.09768      0.00000     0.40085    0.00147     0.40232
      H   21    0.09279      0.00000     0.40525    0.00196     0.40721
      H   22    0.17918      0.00000     0.31717    0.00365     0.32082
      H   23    0.09335      0.00000     0.40530    0.00135     0.40665
      H   24    0.09505      0.00000     0.40339    0.00155     0.40495
      H   25    0.10806      0.00000     0.39001    0.00193     0.39194
      H   26    0.10655      0.00000     0.39150    0.00194     0.39345
      H   27    0.10631      0.00000     0.39098    0.00271     0.39369
      H   28    0.09670      0.00000     0.40096    0.00234     0.40330
      H   29    0.10924      0.00000     0.38922    0.00154     0.39076
      H   30    0.23666      0.00000     0.26023    0.00311     0.26334
 =======================================================================
   * Total *   -0.00000     14.99613    33.85115    0.15272    49.00000

 Normal termination of Gaussian 16 at Tue Dec  8 20:47:36 2020.
