 Gaussian 16, Revision A.03,

 -----------------------------------------------------------
 # opt freq B3LYP/6-31G(d) empiricaldispersion=gd3bj scf=xqc
 -----------------------------------------------------------

 ------------------------------
 CID_53249804_JID_9081_neutraal
 ------------------------------
 Symbolic Z-matrix:
 Charge =  0 Multiplicity = 1

 SCF Done:  E(RB3LYP) =  -838.791109975     A.U. after   16 cycles
 SCF Done:  E(RB3LYP) =  -838.801291996     A.U. after   13 cycles
 SCF Done:  E(RB3LYP) =  -838.802051959     A.U. after   12 cycles
 SCF Done:  E(RB3LYP) =  -838.802309628     A.U. after   12 cycles
 SCF Done:  E(RB3LYP) =  -838.802363351     A.U. after   12 cycles
 SCF Done:  E(RB3LYP) =  -838.802391768     A.U. after   13 cycles
 SCF Done:  E(RB3LYP) =  -838.802470830     A.U. after   11 cycles
 SCF Done:  E(RB3LYP) =  -838.802509746     A.U. after   12 cycles
 SCF Done:  E(RB3LYP) =  -838.802521597     A.U. after   11 cycles
 SCF Done:  E(RB3LYP) =  -838.802525668     A.U. after   10 cycles
 SCF Done:  E(RB3LYP) =  -838.802527368     A.U. after   10 cycles
 SCF Done:  E(RB3LYP) =  -838.802527843     A.U. after    9 cycles
 SCF Done:  E(RB3LYP) =  -838.802527962     A.U. after    8 cycles
 Optimization completed.
    -- Stationary point found.
 Normal termination of Gaussian 16 at Sat Dec 12 09:18:35 2020.

 --------------------------------------------------------------------
 #N Geom=AllCheck Guess=TCheck SCRF=Check GenChk RB3LYP/6-31G(d) Freq
 --------------------------------------------------------------------

 Structure from the checkpoint file:  "JID_9081.chk"
 ------------------------------
 CID_53249804_JID_9081_neutraal
 ------------------------------
 Charge =  0 Multiplicity = 1

 SCF Done:  E(RB3LYP) =  -838.802527962     A.U. after    1 cycles

  Exact polarizability: 250.941 -26.663 160.353  23.621  -5.978 122.677
 Approx polarizability: 361.686 -51.445 326.551  53.380 -16.150 209.321

                      1                      2                      3
                      A                      A                      A
 Frequencies --     16.8708                33.9832                40.5138
 Red. masses --      6.2422                 3.8855                 6.0994
 Frc consts  --      0.0010                 0.0026                 0.0059
 IR Inten    --      0.0882                 0.1150                 0.7229

                      4                      5                      6
                      A                      A                      A
 Frequencies --    105.0271               113.5780               132.9105
 Red. masses --      6.0494                 7.7734                 5.6776
 Frc consts  --      0.0393                 0.0591                 0.0591
 IR Inten    --      3.7804                 4.5483                 0.1384

                      7                      8                      9
                      A                      A                      A
 Frequencies --    175.7966               196.8551               225.2408
 Red. masses --      4.9675                 3.6205                 4.5799
 Frc consts  --      0.0904                 0.0827                 0.1369
 IR Inten    --      0.3708                 4.0482                11.8626

                     10                     11                     12
                      A                      A                      A
 Frequencies --    258.2342               309.3959               328.0755
 Red. masses --      5.7772                 2.9516                 3.0772
 Frc consts  --      0.2270                 0.1665                 0.1951
 IR Inten    --      3.9697                 0.6371                 2.5229

                     13                     14                     15
                      A                      A                      A
 Frequencies --    379.3926               414.2062               415.5535
 Red. masses --      6.7043                 6.2901                 3.0062
 Frc consts  --      0.5686                 0.6358                 0.3059
 IR Inten    --      1.8418                 3.8750                 0.2376

                     16                     17                     18
                      A                      A                      A
 Frequencies --    444.5705               452.4752               477.7595
 Red. masses --      4.2533                 3.3392                 3.6942
 Frc consts  --      0.4953                 0.4028                 0.4968
 IR Inten    --      3.2507                 1.5684                 5.2906

                     19                     20                     21
                      A                      A                      A
 Frequencies --    505.7852               531.6073               596.8840
 Red. masses --      6.1898                 5.4201                 2.6281
 Frc consts  --      0.9330                 0.9025                 0.5517
 IR Inten    --      0.3363                11.9858                38.7710

                     22                     23                     24
                      A                      A                      A
 Frequencies --    622.9272               635.7983               643.1733
 Red. masses --      5.5275                 6.4225                 3.1675
 Frc consts  --      1.2637                 1.5296                 0.7720
 IR Inten    --      3.4208                 0.0129                 2.3141

                     25                     26                     27
                      A                      A                      A
 Frequencies --    660.8817               679.0596               712.2900
 Red. masses --      4.9437                 1.7434                 2.5357
 Frc consts  --      1.2722                 0.4737                 0.7580
 IR Inten    --     12.9644                45.1255                16.4622

                     28                     29                     30
                      A                      A                      A
 Frequencies --    726.1982               751.1988               770.5888
 Red. masses --      5.0537                 1.4969                 3.5350
 Frc consts  --      1.5702                 0.4977                 1.2368
 IR Inten    --     29.6972                56.8073                 0.2617

                     31                     32                     33
                      A                      A                      A
 Frequencies --    818.5550               820.3702               824.9369
 Red. masses --      5.3951                 3.7956                 2.0112
 Frc consts  --      2.1298                 1.5051                 0.8064
 IR Inten    --     48.2910                11.2361                26.1395

                     34                     35                     36
                      A                      A                      A
 Frequencies --    842.1117               864.4472               894.5867
 Red. masses --      5.0172                 1.2490                 1.4260
 Frc consts  --      2.0963                 0.5499                 0.6724
 IR Inten    --     58.7557                 0.1283                22.1148

                     37                     38                     39
                      A                      A                      A
 Frequencies --    920.7956               955.4063               961.7742
 Red. masses --      1.3251                 1.3918                 3.4925
 Frc consts  --      0.6619                 0.7485                 1.9034
 IR Inten    --      4.5875                 0.8663                 9.3480

                     40                     41                     42
                      A                      A                      A
 Frequencies --    972.2452               997.5623               999.0836
 Red. masses --      1.3451                 1.6971                 1.2562
 Frc consts  --      0.7491                 0.9950                 0.7388
 IR Inten    --      0.2018                 0.7557                 1.0608

                     43                     44                     45
                      A                      A                      A
 Frequencies --   1021.4179              1043.9549              1053.6486
 Red. masses --      5.9178                 1.8986                 2.8492
 Frc consts  --      3.6376                 1.2191                 1.8636
 IR Inten    --      2.4693                 5.2342                51.6263

                     46                     47                     48
                      A                      A                      A
 Frequencies --   1061.9391              1112.5866              1126.9846
 Red. masses --      2.1628                 2.2562                 2.7661
 Frc consts  --      1.4371                 1.6455                 2.0699
 IR Inten    --      4.0725                13.7506                32.1130

                     49                     50                     51
                      A                      A                      A
 Frequencies --   1179.3741              1194.6772              1211.5575
 Red. masses --      1.3035                 1.1003                 1.1500
 Frc consts  --      1.0683                 0.9253                 0.9946
 IR Inten    --     14.4377                 0.2837                17.2224

                     52                     53                     54
                      A                      A                      A
 Frequencies --   1225.4178              1232.8387              1243.1817
 Red. masses --      2.4636                 2.9912                 2.6506
 Frc consts  --      2.1796                 2.6786                 2.4136
 IR Inten    --    149.2847                54.8303               218.2772

                     55                     56                     57
                      A                      A                      A
 Frequencies --   1267.9396              1278.6874              1314.0956
 Red. masses --      3.3847                 1.5556                 1.7402
 Frc consts  --      3.2061                 1.4986                 1.7705
 IR Inten    --      1.2922                67.2875               203.0685

                     58                     59                     60
                      A                      A                      A
 Frequencies --   1350.1328              1363.6660              1368.2934
 Red. masses --      2.2550                 2.9730                 2.0479
 Frc consts  --      2.4218                 3.2573                 2.2590
 IR Inten    --     33.6244                13.1525                 1.7039

                     61                     62                     63
                      A                      A                      A
 Frequencies --   1383.1315              1421.6498              1431.0928
 Red. masses --      3.2249                 1.4345                 2.3723
 Frc consts  --      3.6349                 1.7082                 2.8625
 IR Inten    --     47.0754                24.4182                 7.8414

                     64                     65                     66
                      A                      A                      A
 Frequencies --   1455.3076              1495.4838              1504.8177
 Red. masses --      1.9780                 2.8599                 2.2409
 Frc consts  --      2.4682                 3.7684                 2.9898
 IR Inten    --      5.7159                56.9167                 6.7648

                     67                     68                     69
                      A                      A                      A
 Frequencies --   1527.3431              1539.2704              1548.9577
 Red. masses --      1.1414                 2.8031                 2.1467
 Frc consts  --      1.5688                 3.9131                 3.0347
 IR Inten    --     10.8730                81.2039                 6.6865

                     70                     71                     72
                      A                      A                      A
 Frequencies --   1584.2887              1597.6443              1649.5825
 Red. masses --      4.6532                 6.6386                 5.6169
 Frc consts  --      6.8813                 9.9835                 9.0052
 IR Inten    --     54.0693                52.9337                 1.8364

                     73                     74                     75
                      A                      A                      A
 Frequencies --   1669.3284              1688.9680              1767.3259
 Red. masses --      5.5383                 7.3265                 9.0189
 Frc consts  --      9.0930                12.3138                16.5973
 IR Inten    --      4.2084               201.2817               273.2103

                     76                     77                     78
                      A                      A                      A
 Frequencies --   2885.4907              3037.1091              3095.7871
 Red. masses --      1.0823                 1.0657                 1.0987
 Frc consts  --      5.3091                 5.7919                 6.2042
 IR Inten    --    220.1135                44.3051                21.4630

                     79                     80                     81
                      A                      A                      A
 Frequencies --   3171.4168              3187.4809              3197.6289
 Red. masses --      1.0876                 1.0865                 1.0911
 Frc consts  --      6.4448                 6.5040                 6.5733
 IR Inten    --     10.1836                 0.6630                22.1661

                     82                     83                     84
                      A                      A                      A
 Frequencies --   3209.4641              3218.0041              3218.1819
 Red. masses --      1.0949                 1.0904                 1.0949
 Frc consts  --      6.6449                 6.6527                 6.6809
 IR Inten    --     30.1563                 4.4286                 6.6807

                     85                     86                     87
                      A                      A                      A
 Frequencies --   3247.4516              3248.2068              3629.0554
 Red. masses --      1.0922                 1.0917                 1.0806
 Frc consts  --      6.7863                 6.7863                 8.3848
 IR Inten    --      5.8142                 3.0492               134.2638

 - Thermochemistry -
 -------------------
 Temperature   298.150 Kelvin.  Pressure   1.00000 Atm.
 Atom     1 has atomic number  6 and mass  12.00000

 Molecular mass:   252.08988 amu.
 Principal axes and moments of inertia in atomic units:
                           1         2         3
     Eigenvalues --  2092.930069824.52187**********
           X            1.00000  -0.00195   0.00095
           Y            0.00195   1.00000  -0.00022
           Z           -0.00095   0.00022   1.00000
 This molecule is an asymmetric top.
 Rotational symmetry number  1.
 Warning -- assumption of classical behavior for rotation
           may cause significant error
 Rotational temperatures (Kelvin)      0.04138     0.00882     0.00826
 Rotational constants (GHZ):           0.86230     0.18370     0.17209
 Zero-point vibrational energy     636943.1 (Joules/Mol)
                                  152.23305 (Kcal/Mol)
 Warning -- explicit consideration of  21 degrees of freedom as
           vibrations may cause significant error
 Vibrational temperatures:     24.27    48.89    58.29   151.11   163.41
          (Kelvin)            191.23   252.93   283.23   324.07   371.54
                              445.15   472.03   545.86   595.95   597.89
                              639.64   651.01   687.39   727.71   764.86
                              858.78   896.25   914.77   925.38   950.86
                              977.02  1024.83  1044.84  1080.81  1108.71
                             1177.72  1180.33  1186.90  1211.61  1243.75
                             1287.11  1324.82  1374.62  1383.78  1398.84
                             1435.27  1437.46  1469.59  1502.02  1515.97
                             1527.89  1600.76  1621.48  1696.86  1718.87
                             1743.16  1763.10  1773.78  1788.66  1824.28
                             1839.75  1890.69  1942.54  1962.01  1968.67
                             1990.02  2045.44  2059.02  2093.86  2151.67
                             2165.10  2197.51  2214.67  2228.60  2279.44
                             2298.65  2373.38  2401.79  2430.05  2542.79
                             4151.58  4369.72  4454.15  4562.96  4586.07
                             4600.67  4617.70  4629.99  4630.25  4672.36
                             4673.45  5221.40

 Zero-point correction=                           0.242599 (Hartree/Particle)
 Thermal correction to Energy=                    0.257515
 Thermal correction to Enthalpy=                  0.258459
 Thermal correction to Gibbs Free Energy=         0.198274
 Sum of electronic and zero-point Energies=           -838.559929
 Sum of electronic and thermal Energies=              -838.545013
 Sum of electronic and thermal Enthalpies=            -838.544069
 Sum of electronic and thermal Free Energies=         -838.604254

                     E (Thermal)             CV                S
                      KCal/Mol        Cal/Mol-Kelvin    Cal/Mol-Kelvin
 Total                  161.593             58.643            126.671
 Electronic               0.000              0.000              0.000
 Translational            0.889              2.981             42.474
 Rotational               0.889              2.981             33.733
 Vibrational            159.816             52.681             50.464
 Vibration     1          0.593              1.986              6.972
 Vibration     2          0.594              1.983              5.582
 Vibration     3          0.594              1.981              5.234
 Vibration     4          0.605              1.945              3.359
 Vibration     5          0.607              1.938              3.207
 Vibration     6          0.613              1.920              2.903
 Vibration     7          0.628              1.872              2.373
 Vibration     8          0.636              1.844              2.162
 Vibration     9          0.650              1.803              1.917
 Vibration    10          0.667              1.749              1.674
 Vibration    11          0.699              1.656              1.366
 Vibration    12          0.711              1.619              1.270
 Vibration    13          0.749              1.514              1.042
 Vibration    14          0.778              1.439              0.912
 Vibration    15          0.779              1.436              0.907
 Vibration    16          0.804              1.373              0.812
 Vibration    17          0.811              1.355              0.788
 Vibration    18          0.834              1.299              0.716
 Vibration    19          0.861              1.237              0.644
 Vibration    20          0.887              1.180              0.584
 Vibration    21          0.955              1.038              0.455

 Optimization completed.
    -- Stationary point found.
 Normal termination of Gaussian 16 at Sat Dec 12 09:31:55 2020.

 ----------------------------------------------------------------------
 # B3LYP/6-311++G(d,p) empiricaldispersion=gd3bj scf=xqc pop=npa geom=c
 heck
 ----------------------------------------------------------------------

 --------------------------------------
 CID_53249804_JID_9081_Energie_neutraal
 --------------------------------------
 Structure from the checkpoint file:  "JID_9081.chk"
 Charge =  0 Multiplicity = 1

 SCF Done:  E(RB3LYP) =  -839.024839404     A.U. after   17 cycles
 Normal termination of Gaussian 16 at Sat Dec 12 09:37:09 2020.

 ----------------------------------------------------------------------
 # B3LYP/6-311++G(d,p) empiricaldispersion=gd3bj scf=xqc pop=npa geom=c
 heck
 ----------------------------------------------------------------------

 ------------------------------------
 CID_53249804_JID_9081_Energie_kation
 ------------------------------------
 Structure from the checkpoint file:  "JID_9081.chk"
 Charge =  1 Multiplicity = 2

 SCF Done:  E(UB3LYP) =  -838.741944035     A.U. after   28 cycles
 Normal termination of Gaussian 16 at Sat Dec 12 09:48:39 2020.
 Gaussian 16:  ES64L-G16RevA.03 25-Dec-2016

 ----------------------------------------------------------------------
 # B3LYP/6-311++G(d,p) empiricaldispersion=gd3bj scf=xqc pop=npa geom=c
 heck
 ----------------------------------------------------------------------

 -----------------------------------
 CID_53249804_JID_9081_Energie_anion
 -----------------------------------
 Structure from the checkpoint file:  "JID_9081.chk"
 Charge = -1 Multiplicity = 2

                         Standard orientation:
 ---------------------------------------------------------------------
 Center     Atomic      Atomic             Coordinates (Angstroms)
 Number     Number       Type             X           Y           Z
 ---------------------------------------------------------------------
      1          6           0       -4.708562    0.569795    1.503505
      2          6           0       -3.677913   -0.286210    1.895612
      3          6           0       -2.827534   -0.844913    0.942400
      4          6           0       -2.996449   -0.546764   -0.412849
      5          6           0       -4.025692    0.316486   -0.800603
      6          6           0       -4.882115    0.869252    0.151693
      7          6           0       -2.099822   -1.174728   -1.458841
      8          8           0       -0.801797   -1.509885   -0.978294
      9          6           0        0.104445   -0.515354   -0.731730
     10          6           0        1.359510   -0.939005   -0.327827
     11          6           0        2.326449    0.046342   -0.071594
     12          6           0        3.675449    0.023326    0.342341
     13          7           0        4.045421    1.343421    0.400024
     14          7           0        3.098710    2.217737    0.073239
     15          6           0        2.025262    1.438674   -0.223106
     16          6           0        0.736978    1.846331   -0.631003
     17          6           0       -0.205375    0.873285   -0.877985
     18          6           0        4.569273   -1.064505    0.662874
     19          8           0        4.253787   -2.244487    0.617248
     20          1           0       -5.369435    1.005143    2.247566
     21          1           0       -3.534468   -0.518839    2.947062
     22          1           0       -2.020563   -1.505053    1.243703
     23          1           0       -4.156006    0.560630   -1.852909
     24          1           0       -5.677354    1.540034   -0.161217
     25          1           0       -2.511051   -2.135373   -1.785754
     26          1           0       -2.027002   -0.530778   -2.345713
     27          1           0        1.581257   -1.993481   -0.220756
     28          1           0        4.955132    1.698969    0.663620
     29          1           0        0.499396    2.899467   -0.737098
     30          1           0       -1.205199    1.171306   -1.164793
     31          1           0        5.597022   -0.757225    0.964504
 ---------------------------------------------------------------------

 SCF Done:  E(UB3LYP) =  -839.049946356     A.U. after   26 cycles

 The electronic state is 2-A.
 Alpha  occ. eigenvalues --  -19.03325 -18.93359 -14.23189 -14.17276 -10.13472
 Alpha  occ. eigenvalues --  -10.09744 -10.09693 -10.09421 -10.09330 -10.09217
 Alpha  occ. eigenvalues --  -10.09211 -10.08709 -10.07898 -10.04893 -10.04818
 Alpha  occ. eigenvalues --  -10.04005 -10.03385 -10.03369 -10.02648  -0.95102
 Alpha  occ. eigenvalues --   -0.90371  -0.86858  -0.77672  -0.71741  -0.68851
 Alpha  occ. eigenvalues --   -0.67072  -0.66563  -0.63275  -0.61917  -0.57873
 Alpha  occ. eigenvalues --   -0.52893  -0.52316  -0.50735  -0.49175  -0.45711
 Alpha  occ. eigenvalues --   -0.43812  -0.43097  -0.40749  -0.38380  -0.38115
 Alpha  occ. eigenvalues --   -0.36561  -0.35899  -0.35253  -0.34738  -0.33972
 Alpha  occ. eigenvalues --   -0.31221  -0.31130  -0.29817  -0.28630  -0.28086
 Alpha  occ. eigenvalues --   -0.27813  -0.27331  -0.26696  -0.26060  -0.25000
 Alpha  occ. eigenvalues --   -0.23866  -0.23263  -0.20767  -0.19259  -0.17525
 Alpha  occ. eigenvalues --   -0.16675  -0.14944  -0.14231  -0.10789  -0.09659
 Alpha  occ. eigenvalues --   -0.07172   0.03298
 Alpha virt. eigenvalues --    0.05959   0.06243   0.06556   0.07494   0.08365
 Alpha virt. eigenvalues --    0.09431   0.09780   0.10142   0.10820   0.11032
 Alpha virt. eigenvalues --    0.12050   0.12573   0.13257   0.13684   0.13902

  Beta  occ. eigenvalues --  -19.03300 -18.92884 -14.22621 -14.16811 -10.13470
  Beta  occ. eigenvalues --  -10.09738 -10.09694 -10.09410 -10.09209 -10.09182
  Beta  occ. eigenvalues --  -10.09178 -10.08715 -10.07650 -10.04999 -10.04797
  Beta  occ. eigenvalues --  -10.04046 -10.03367 -10.03154 -10.02635  -0.95030
  Beta  occ. eigenvalues --   -0.89551  -0.85997  -0.77634  -0.71519  -0.68745
  Beta  occ. eigenvalues --   -0.66560  -0.66440  -0.63059  -0.61702  -0.57713
  Beta  occ. eigenvalues --   -0.52765  -0.52026  -0.50621  -0.48547  -0.45517
  Beta  occ. eigenvalues --   -0.43702  -0.42930  -0.40653  -0.38283  -0.37931
  Beta  occ. eigenvalues --   -0.36448  -0.35738  -0.35129  -0.34694  -0.33944
  Beta  occ. eigenvalues --   -0.31073  -0.29730  -0.29589  -0.28423  -0.27901
  Beta  occ. eigenvalues --   -0.27726  -0.27108  -0.26592  -0.25698  -0.24618
  Beta  occ. eigenvalues --   -0.23773  -0.20996  -0.20673  -0.18297  -0.17375
  Beta  occ. eigenvalues --   -0.16566  -0.14453  -0.13331  -0.09630  -0.09235
  Beta  occ. eigenvalues --   -0.05530
  Beta virt. eigenvalues --    0.05920   0.06449   0.06587   0.07457   0.08328
  Beta virt. eigenvalues --    0.09451   0.09758   0.09773   0.10125   0.10790
  Beta virt. eigenvalues --    0.11922   0.12472   0.12599   0.13260   0.13674

 Mulliken charges and spin densities:
               1          2
     1  C   -0.294991   0.001793
     2  C   -0.499468   0.023751
     3  C    0.137314  -0.004246
     4  C    0.678494   0.012195
     5  C   -0.365911   0.024819
     6  C   -0.266445   0.001096
     7  C   -0.528219  -0.031495
     8  O   -0.087943   0.005766
     9  C   -0.831860   0.066519
    10  C   -0.847752   0.014539
    11  C    0.723501   0.063693
    12  C    1.262035   0.038094
    13  N   -0.134973   0.182106
    14  N   -0.215614   0.234770
    15  C   -0.611998  -0.115333
    16  C    0.138419   0.190660
    17  C   -0.258996  -0.047729
    18  C   -0.407407   0.187044
    19  O   -0.407871   0.158394
    20  H    0.126072   0.000529
    21  H    0.157616  -0.001692
    22  H    0.199548   0.002988
    23  H    0.135166   0.003961
    24  H    0.147374   0.005686
    25  H    0.189788  -0.003890
    26  H    0.144656   0.027210
    27  H    0.178713  -0.004319
    28  H    0.299350  -0.012343
    29  H    0.149803  -0.010856
    30  H    0.098682   0.003172
    31  H   -0.007084  -0.016881
 Sum of Mulliken charges =  -1.00000   1.00000

 Dipole moment (field-independent basis, Debye):
    X=            -10.2110    Y=              1.8980    Z=             -0.5358  Tot=             10.3998
 Quadrupole moment (field-independent basis, Debye-Ang):
   XX=           -161.4156   YY=           -140.3518   ZZ=           -115.1818
   XY=             10.7184   XZ=              0.2420   YZ=              2.7853

 Summary of Natural Population Analysis:

                                       Natural Population
                Natural  -----------------------------------------------
    Atom  No    Charge         Core      Valence    Rydberg      Total
 -----------------------------------------------------------------------
      C    1   -0.10816      0.99957     2.09939    0.00920     3.10816
      C    2   -0.09270      0.99958     2.08410    0.00902     3.09270
      C    3   -0.09607      0.99951     2.08787    0.00868     3.09607
      C    4   -0.02575      0.99950     2.01767    0.00859     3.02575
      C    5   -0.09939      0.99952     2.09141    0.00847     3.09939
      C    6   -0.10301      0.99958     2.09422    0.00922     3.10301
      C    7   -0.01440      0.99953     2.00354    0.01133     3.01440
      O    8   -0.28002      0.99986     3.27067    0.00949     4.28002
      C    9    0.16715      0.99941     1.82182    0.01162     2.83285
      C   10   -0.12361      0.99950     2.11514    0.00898     3.12361
      C   11   -0.04315      0.99946     2.03461    0.00907     3.04315
      C   12    0.01072      0.99951     1.97866    0.01112     2.98928
      N   13   -0.06431      0.99967     2.55259    0.01204     3.56431
      N   14   -0.09471      0.99971     2.57955    0.01545     3.59471
      C   15    0.02694      0.99951     1.96019    0.01335     2.97306
      C   16   -0.04848      0.99953     2.03976    0.00918     3.04848
      C   17   -0.16216      0.99954     2.15495    0.00767     3.16216
      C   18    0.21222      0.99967     1.76750    0.02061     2.78778
      O   19   -0.25541      0.99989     3.24736    0.00817     4.25541
      H   20    0.09661      0.00000     0.40245    0.00094     0.40339
      H   21    0.09831      0.00000     0.40076    0.00093     0.40169
      H   22    0.11180      0.00000     0.38679    0.00141     0.38820
      H   23    0.09708      0.00000     0.40140    0.00152     0.40292
      H   24    0.09645      0.00000     0.40256    0.00099     0.40355
      H   25    0.09519      0.00000     0.40379    0.00102     0.40481
      H   26    0.08737      0.00000     0.41107    0.00156     0.41263
      H   27    0.11288      0.00000     0.38534    0.00177     0.38712
      H   28    0.18203      0.00000     0.31606    0.00191     0.31797
      H   29    0.09310      0.00000     0.40477    0.00213     0.40690
      H   30    0.09691      0.00000     0.40150    0.00159     0.40309
      H   31    0.02657      0.00000     0.47005    0.00339     0.47343
 =======================================================================
   * Total *   -0.00000     18.99205    46.78754    0.22041    66.00000

 Normal termination of Gaussian 16 at Sat Dec 12 09:59:50 2020.
