 Gaussian 16, Revision A.03,

 -----------------------------------------------------------
 # opt freq B3LYP/6-31G(d) empiricaldispersion=gd3bj scf=xqc
 -----------------------------------------------------------

 ------------------------------
 CID_123634652_JID_827_neutraal
 ------------------------------
 Symbolic Z-matrix:
 Charge =  0 Multiplicity = 1

 SCF Done:  E(RB3LYP) =  -390.724657926     A.U. after   13 cycles
 SCF Done:  E(RB3LYP) =  -390.726741349     A.U. after   11 cycles
 SCF Done:  E(RB3LYP) =  -390.727083900     A.U. after   11 cycles
 SCF Done:  E(RB3LYP) =  -390.727245304     A.U. after   10 cycles
 SCF Done:  E(RB3LYP) =  -390.727374026     A.U. after   10 cycles
 SCF Done:  E(RB3LYP) =  -390.727433669     A.U. after   10 cycles
 SCF Done:  E(RB3LYP) =  -390.727446325     A.U. after    9 cycles
 SCF Done:  E(RB3LYP) =  -390.727446748     A.U. after    7 cycles
 SCF Done:  E(RB3LYP) =  -390.727446953     A.U. after    7 cycles
 SCF Done:  E(RB3LYP) =  -390.727447008     A.U. after    6 cycles
 Optimization completed.
    -- Stationary point found.
 Normal termination of Gaussian 16 at Tue Dec  8 12:44:00 2020.

 --------------------------------------------------------------------
 #N Geom=AllCheck Guess=TCheck SCRF=Check GenChk RB3LYP/6-31G(d) Freq
 --------------------------------------------------------------------

 Structure from the checkpoint file:  "JID_827.chk"
 ------------------------------
 CID_123634652_JID_827_neutraal
 ------------------------------
 Charge =  0 Multiplicity = 1

 SCF Done:  E(RB3LYP) =  -390.727447008     A.U. after    1 cycles

  Exact polarizability: 120.668   0.572 111.367  -2.604  -5.538  75.190
 Approx polarizability: 163.992   0.890 169.739  -6.223 -12.612 112.731

                      1                      2                      3
                      A                      A                      A
 Frequencies --    105.9644               108.6793               118.4032
 Red. masses --      2.6531                 1.0478                 2.4808
 Frc consts  --      0.0176                 0.0073                 0.0205
 IR Inten    --      0.0964                 0.4716                 0.0090

                      4                      5                      6
                      A                      A                      A
 Frequencies --    148.0014               209.1147               238.0498
 Red. masses --      1.0699                 2.1888                 1.0845
 Frc consts  --      0.0138                 0.0564                 0.0362
 IR Inten    --      0.1558                 0.9921                 0.0335

                      7                      8                      9
                      A                      A                      A
 Frequencies --    247.8053               259.0711               307.6446
 Red. masses --      1.9208                 2.1575                 1.5389
 Frc consts  --      0.0695                 0.0853                 0.0858
 IR Inten    --      0.1826                 0.3377                 0.4027

                     10                     11                     12
                      A                      A                      A
 Frequencies --    316.4190               353.8270               397.0268
 Red. masses --      2.4378                 2.5994                 2.8225
 Frc consts  --      0.1438                 0.1917                 0.2621
 IR Inten    --      0.2689                 0.1675                 0.6279

                     13                     14                     15
                      A                      A                      A
 Frequencies --    421.1414               488.5581               531.3746
 Red. masses --      3.2128                 3.0108                 3.9308
 Frc consts  --      0.3357                 0.4234                 0.6539
 IR Inten    --      2.7507                 5.2930                 1.2879

                     16                     17                     18
                      A                      A                      A
 Frequencies --    553.4525               657.7487               701.3293
 Red. masses --      2.4792                 3.0824                 3.2180
 Frc consts  --      0.4474                 0.7857                 0.9326
 IR Inten    --      2.4927                 1.3228                 2.1172

                     19                     20                     21
                      A                      A                      A
 Frequencies --    728.3758               771.7555               831.3274
 Red. masses --      2.5976                 1.7246                 2.5135
 Frc consts  --      0.8120                 0.6052                 1.0234
 IR Inten    --      6.4244                11.0671                 0.8936

                     22                     23                     24
                      A                      A                      A
 Frequencies --    878.4388               963.5689               976.3189
 Red. masses --      2.0931                 1.6425                 1.2810
 Frc consts  --      0.9516                 0.8985                 0.7194
 IR Inten    --      0.6321                 3.5088                 1.0656

                     25                     26                     27
                      A                      A                      A
 Frequencies --    983.0116              1009.5547              1022.0927
 Red. masses --      1.6455                 1.4470                 1.3707
 Frc consts  --      0.9369                 0.8689                 0.8437
 IR Inten    --      2.4358                 1.4358                 5.8736

                     28                     29                     30
                      A                      A                      A
 Frequencies --   1047.8578              1075.6369              1080.5723
 Red. masses --      1.4246                 1.8691                 1.8173
 Frc consts  --      0.9216                 1.2741                 1.2502
 IR Inten    --      0.4098                 0.3374                 2.5710

                     31                     32                     33
                      A                      A                      A
 Frequencies --   1104.9108              1128.3710              1170.4132
 Red. masses --      1.6060                 1.8347                 1.9739
 Frc consts  --      1.1552                 1.3763                 1.5931
 IR Inten    --     11.3029                 1.0026                 2.4933

                     34                     35                     36
                      A                      A                      A
 Frequencies --   1183.2863              1189.6166              1229.0221
 Red. masses --      2.4345                 2.5370                 1.2919
 Frc consts  --      2.0084                 2.1153                 1.1497
 IR Inten    --      0.9465                 3.7751                 0.7472

                     37                     38                     39
                      A                      A                      A
 Frequencies --   1268.2122              1331.1838              1336.2052
 Red. masses --      1.9613                 1.4442                 1.5491
 Frc consts  --      1.8586                 1.5078                 1.6296
 IR Inten    --      0.8778                 5.8092                 0.8334

                     40                     41                     42
                      A                      A                      A
 Frequencies --   1372.6566              1380.8500              1429.4838
 Red. masses --      1.5904                 1.5064                 1.2352
 Frc consts  --      1.7655                 1.6923                 1.4871
 IR Inten    --      1.2815                 2.1512                 5.5465

                     43                     44                     45
                      A                      A                      A
 Frequencies --   1433.0417              1437.0641              1449.1347
 Red. masses --      1.3243                 1.3324                 1.4815
 Frc consts  --      1.6024                 1.6212                 1.8331
 IR Inten    --      0.9829                 2.9734                 0.8774

                     46                     47                     48
                      A                      A                      A
 Frequencies --   1452.6216              1510.1548              1514.3757
 Red. masses --      1.2967                 1.0453                 1.0517
 Frc consts  --      1.6121                 1.4045                 1.4210
 IR Inten    --      0.4726                 0.5740                 1.1387

                     49                     50                     51
                      A                      A                      A
 Frequencies --   1516.2231              1523.4171              1526.8521
 Red. masses --      1.0454                 1.0498                 1.0499
 Frc consts  --      1.4160                 1.4354                 1.4421
 IR Inten    --      9.5882                 1.7515                 7.1052

                     52                     53                     54
                      A                      A                      A
 Frequencies --   1529.9518              1532.0150              1544.8665
 Red. masses --      1.0842                 1.0514                 1.0526
 Frc consts  --      1.4952                 1.4539                 1.4801
 IR Inten    --      3.0402                 8.2296                 0.8210

                     55                     56                     57
                      A                      A                      A
 Frequencies --   1674.4368              1738.6487              2956.4374
 Red. masses --      6.9732                 6.5540                 1.0812
 Frc consts  --     11.5191                11.6730                 5.5679
 IR Inten    --      4.0114                 3.8574                30.0898

                     58                     59                     60
                      A                      A                      A
 Frequencies --   3023.0792              3029.1965              3034.5550
 Red. masses --      1.0608                 1.0640                 1.0434
 Frc consts  --      5.7120                 5.7523                 5.6608
 IR Inten    --      5.8235                74.8901                29.4341

                     61                     62                     63
                      A                      A                      A
 Frequencies --   3047.0274              3055.6766              3064.7654
 Red. masses --      1.0356                 1.0365                 1.0967
 Frc consts  --      5.6652                 5.7020                 6.0692
 IR Inten    --     29.9278                22.1838                30.4802

                     64                     65                     66
                      A                      A                      A
 Frequencies --   3075.6449              3109.3972              3116.5446
 Red. masses --      1.1000                 1.1025                 1.1023
 Frc consts  --      6.1310                 6.2804                 6.3079
 IR Inten    --     26.3445                30.4349                37.6249

                     67                     68                     69
                      A                      A                      A
 Frequencies --   3123.0300              3131.1497              3140.5377
 Red. masses --      1.1012                 1.1025                 1.0967
 Frc consts  --      6.3280                 6.3687                 6.3728
 IR Inten    --     27.8355                23.5620                16.0316

                     70                     71                     72
                      A                      A                      A
 Frequencies --   3156.9321              3157.8472              3180.8344
 Red. masses --      1.0855                 1.0910                 1.0973
 Frc consts  --      6.3738                 6.4102                 6.5411
 IR Inten    --     22.7212                27.0005                37.4244

 - Thermochemistry -
 -------------------
 Temperature   298.150 Kelvin.  Pressure   1.00000 Atm.
 Atom     1 has atomic number  6 and mass  12.00000

 Molecular mass:   136.12520 amu.
 Principal axes and moments of inertia in atomic units:
                           1         2         3
     Eigenvalues --   915.192791631.515762171.02535
           X            1.00000   0.00225   0.00207
           Y           -0.00224   1.00000  -0.00183
           Z           -0.00208   0.00182   1.00000
 This molecule is an asymmetric top.
 Rotational symmetry number  1.
 Warning -- assumption of classical behavior for rotation
           may cause significant error
 Rotational temperatures (Kelvin)      0.09464     0.05309     0.03990
 Rotational constants (GHZ):           1.97198     1.10617     0.83129
 Zero-point vibrational energy     618719.3 (Joules/Mol)
                                  147.87747 (Kcal/Mol)
 Warning -- explicit consideration of  16 degrees of freedom as
           vibrations may cause significant error
 Vibrational temperatures:    152.46   156.37   170.36   212.94   300.87
          (Kelvin)            342.50   356.54   372.75   442.63   455.26
                              509.08   571.23   605.93   702.93   764.53
                              796.29   946.35  1009.06  1047.97  1110.38
                             1196.09  1263.88  1386.36  1404.71  1414.33
                             1452.52  1470.56  1507.63  1547.60  1554.70
                             1589.72  1623.47  1683.96  1702.49  1711.59
                             1768.29  1824.67  1915.28  1922.50  1974.95
                             1986.74  2056.71  2061.83  2067.61  2084.98
                             2090.00  2172.78  2178.85  2181.51  2191.86
                             2196.80  2201.26  2204.23  2222.72  2409.14
                             2501.53  4253.65  4349.54  4358.34  4366.05
                             4383.99  4396.44  4409.51  4425.17  4473.73
                             4484.01  4493.34  4505.03  4518.53  4542.12
                             4543.44  4576.51

 Zero-point correction=                           0.235658 (Hartree/Particle)
 Thermal correction to Energy=                    0.246756
 Thermal correction to Enthalpy=                  0.247700
 Thermal correction to Gibbs Free Energy=         0.200070
 Sum of electronic and zero-point Energies=           -390.491789
 Sum of electronic and thermal Energies=              -390.480691
 Sum of electronic and thermal Enthalpies=            -390.479747
 Sum of electronic and thermal Free Energies=         -390.527377

                     E (Thermal)             CV                S
                      KCal/Mol        Cal/Mol-Kelvin    Cal/Mol-Kelvin
 Total                  154.842             42.493            100.246
 Electronic               0.000              0.000              0.000
 Translational            0.889              2.981             40.637
 Rotational               0.889              2.981             29.562
 Vibrational            153.064             36.531             30.047
 Vibration     1          0.605              1.944              3.342
 Vibration     2          0.606              1.942              3.292
 Vibration     3          0.609              1.934              3.126
 Vibration     4          0.617              1.905              2.698
 Vibration     5          0.642              1.827              2.051
 Vibration     6          0.656              1.782              1.817
 Vibration     7          0.661              1.766              1.746
 Vibration     8          0.668              1.747              1.668
 Vibration     9          0.698              1.659              1.375
 Vibration    10          0.703              1.642              1.329
 Vibration    11          0.730              1.567              1.149
 Vibration    12          0.764              1.477              0.974
 Vibration    13          0.784              1.424              0.888
 Vibration    14          0.844              1.275              0.687
 Vibration    15          0.886              1.181              0.584
 Vibration    16          0.909              1.132              0.537

 Optimization completed.
    -- Stationary point found.
 Normal termination of Gaussian 16 at Tue Dec  8 13:08:22 2020.

 ----------------------------------------------------------------------
 # B3LYP/6-311++G(d,p) empiricaldispersion=gd3bj scf=xqc pop=npa geom=c
 heck
 ----------------------------------------------------------------------

 --------------------------------------
 CID_123634652_JID_827_Energie_neutraal
 --------------------------------------
 Structure from the checkpoint file:  "JID_827.chk"
 Charge =  0 Multiplicity = 1

 SCF Done:  E(RB3LYP) =  -390.832449479     A.U. after   13 cycles
 Normal termination of Gaussian 16 at Tue Dec  8 13:16:58 2020.

 ----------------------------------------------------------------------
 # B3LYP/6-311++G(d,p) empiricaldispersion=gd3bj scf=xqc pop=npa geom=c
 heck
 ----------------------------------------------------------------------

 ------------------------------------
 CID_123634652_JID_827_Energie_kation
 ------------------------------------
 Structure from the checkpoint file:  "JID_827.chk"
 Charge =  1 Multiplicity = 2

 SCF Done:  E(UB3LYP) =  -390.556967982     A.U. after   17 cycles
 Normal termination of Gaussian 16 at Tue Dec  8 13:23:33 2020.
 Gaussian 16:  ES64L-G16RevA.03 25-Dec-2016

 ----------------------------------------------------------------------
 # B3LYP/6-311++G(d,p) empiricaldispersion=gd3bj scf=xqc pop=npa geom=c
 heck
 ----------------------------------------------------------------------

 -----------------------------------
 CID_123634652_JID_827_Energie_anion
 -----------------------------------
 Structure from the checkpoint file:  "JID_827.chk"
 Charge = -1 Multiplicity = 2

                         Standard orientation:
 ---------------------------------------------------------------------
 Center     Atomic      Atomic             Coordinates (Angstroms)
 Number     Number       Type             X           Y           Z
 ---------------------------------------------------------------------
      1          6           0        2.957612   -0.179451   -0.439398
      2          6           0        1.441598   -0.328289   -0.603816
      3          6           0        0.908254   -1.577934    0.056266
      4          6           0       -0.398323   -1.676058    0.337615
      5          6           0       -1.343479   -0.587528    0.034893
      6          6           0       -0.860575    0.648156   -0.225698
      7          6           0        0.642507    0.900351   -0.120331
      8          6           0        0.983668    1.324437    1.322505
      9          6           0       -1.685910    1.865412   -0.535853
     10          6           0       -2.801547   -0.974537    0.050913
     11          1           0        3.248042   -0.149792    0.616000
     12          1           0        3.320519    0.738201   -0.916656
     13          1           0        3.477820   -1.026702   -0.901163
     14          1           0        1.233482   -0.424225   -1.684711
     15          1           0        1.591377   -2.400456    0.258350
     16          1           0       -0.804780   -2.587597    0.772529
     17          1           0        0.898211    1.738281   -0.783562
     18          1           0        2.023422    1.656307    1.411606
     19          1           0        0.343316    2.153411    1.642064
     20          1           0        0.826178    0.490404    2.013852
     21          1           0       -2.760836    1.707377   -0.428201
     22          1           0       -1.403466    2.699546    0.121378
     23          1           0       -1.500225    2.209035   -1.563433
     24          1           0       -3.010511   -1.735975   -0.712491
     25          1           0       -3.069714   -1.420336    1.018282
     26          1           0       -3.475668   -0.134827   -0.126422
 ---------------------------------------------------------------------

 SCF Done:  E(UB3LYP) =  -390.816278649     A.U. after   31 cycles

 The electronic state is 2-A.
 Alpha  occ. eigenvalues --  -10.05800 -10.05650 -10.05343 -10.05253 -10.05169
 Alpha  occ. eigenvalues --  -10.04908 -10.04534 -10.04449 -10.04430 -10.04068
 Alpha  occ. eigenvalues --   -0.73694  -0.67118  -0.65247  -0.60282  -0.59773
 Alpha  occ. eigenvalues --   -0.54340  -0.52661  -0.46876  -0.44029  -0.36732
 Alpha  occ. eigenvalues --   -0.36026  -0.35262  -0.33072  -0.31612  -0.29893
 Alpha  occ. eigenvalues --   -0.29420  -0.29042  -0.27781  -0.27000  -0.26743
 Alpha  occ. eigenvalues --   -0.26325  -0.24536  -0.24033  -0.22183  -0.20038
 Alpha  occ. eigenvalues --   -0.18572  -0.17356  -0.09185   0.04947
 Alpha virt. eigenvalues --    0.07317   0.07940   0.08663   0.08841   0.09608
 Alpha virt. eigenvalues --    0.09798   0.10789   0.11114   0.11648   0.12108
 Alpha virt. eigenvalues --    0.12515   0.13341   0.13953   0.14587   0.15104

  Beta  occ. eigenvalues --  -10.05801 -10.05642 -10.05318 -10.05235 -10.05102
  Beta  occ. eigenvalues --  -10.04879 -10.04487 -10.04409 -10.04361 -10.04034
  Beta  occ. eigenvalues --   -0.73594  -0.67051  -0.65125  -0.60219  -0.59698
  Beta  occ. eigenvalues --   -0.54253  -0.52566  -0.46776  -0.43907  -0.36653
  Beta  occ. eigenvalues --   -0.35969  -0.35193  -0.32972  -0.31529  -0.29848
  Beta  occ. eigenvalues --   -0.29342  -0.28989  -0.27727  -0.26953  -0.26686
  Beta  occ. eigenvalues --   -0.26279  -0.24470  -0.23986  -0.22086  -0.19971
  Beta  occ. eigenvalues --   -0.18525  -0.17066  -0.08848
  Beta virt. eigenvalues --    0.07217   0.08055   0.08498   0.09268   0.09358
  Beta virt. eigenvalues --    0.10062   0.10411   0.11121   0.11483   0.12128
  Beta virt. eigenvalues --    0.12564   0.12994   0.13762   0.14187   0.14946

 Mulliken charges and spin densities:
               1          2
     1  C    1.381025  -2.045108
     2  C   -1.463698   1.463998
     3  C   -0.145641  -0.142436
     4  C   -0.382078   0.266523
     5  C   -0.354708   0.353987
     6  C   -0.964548   1.132087
     7  C   -0.412481   0.891813
     8  C    0.750629  -1.549099
     9  C    2.128506  -2.631148
    10  C    0.884559  -1.506090
    11  H   -0.063641   0.218879
    12  H   -0.464450   0.607812
    13  H   -0.224644   0.351987
    14  H   -0.118718   0.285839
    15  H   -0.144605   0.297293
    16  H   -0.138688   0.288394
    17  H   -0.062599   0.284869
    18  H   -0.235421   0.369009
    19  H   -0.018978   0.138486
    20  H    0.003992   0.159940
    21  H    0.014974   0.093231
    22  H   -0.105127   0.235955
    23  H   -0.475920   0.651194
    24  H   -0.012695   0.159051
    25  H   -0.057734   0.191797
    26  H   -0.317313   0.431737
 Sum of Mulliken charges =  -1.00000   1.00000

 Dipole moment (field-independent basis, Debye):
    X=             -1.3676    Y=             -2.1752    Z=              1.6496  Tot=              3.0534
 Quadrupole moment (field-independent basis, Debye-Ang):
   XX=           -119.8156   YY=           -102.7037   ZZ=            -95.3501
   XY=             -0.8942   XZ=             -0.4048   YZ=              3.8799

 Summary of Natural Population Analysis:

                                       Natural Population
                Natural  -----------------------------------------------
    Atom  No    Charge         Core      Valence    Rydberg      Total
 -----------------------------------------------------------------------
      C    1   -0.28251      0.99966     2.27649    0.00637     3.28251
      C    2   -0.12690      0.99958     2.11545    0.01188     3.12690
      C    3   -0.06901      0.99952     2.05946    0.01003     3.06901
      C    4   -0.10085      0.99950     2.09172    0.00964     3.10085
      C    5   -0.04295      0.99941     2.03276    0.01078     3.04295
      C    6    0.01955      0.99944     1.96814    0.01287     2.98045
      C    7   -0.11378      0.99956     2.10176    0.01246     3.11378
      C    8   -0.28609      0.99964     2.28003    0.00642     3.28609
      C    9   -0.29688      0.99962     2.29102    0.00624     3.29688
      C   10   -0.28799      0.99964     2.28366    0.00470     3.28799
      H   11    0.09815      0.00000     0.40063    0.00122     0.40185
      H   12    0.10052      0.00000     0.39804    0.00144     0.39948
      H   13    0.09718      0.00000     0.40177    0.00105     0.40282
      H   14    0.10253      0.00000     0.39516    0.00231     0.39747
      H   15    0.09297      0.00000     0.40604    0.00099     0.40703
      H   16    0.09309      0.00000     0.40558    0.00133     0.40691
      H   17    0.10037      0.00000     0.39717    0.00246     0.39963
      H   18    0.09891      0.00000     0.40002    0.00107     0.40109
      H   19    0.09733      0.00000     0.40177    0.00090     0.40267
      H   20    0.10110      0.00000     0.39780    0.00109     0.39890
      H   21    0.09998      0.00000     0.39903    0.00099     0.40002
      H   22    0.10014      0.00000     0.39868    0.00118     0.39986
      H   23    0.10637      0.00000     0.39131    0.00232     0.39363
      H   24    0.09924      0.00000     0.39945    0.00131     0.40076
      H   25    0.09828      0.00000     0.40028    0.00144     0.40172
      H   26    0.10124      0.00000     0.39776    0.00100     0.39876
 =======================================================================
   * Total *   -0.00000      9.99555    27.89097    0.11348    38.00000

 Normal termination of Gaussian 16 at Tue Dec  8 13:31:41 2020.
