 Gaussian 16, Revision A.03,

 -----------------------------------------------------------
 # opt freq B3LYP/6-31G(d) empiricaldispersion=gd3bj scf=xqc
 -----------------------------------------------------------

 ------------------------------
 CID_43298067_JID_7983_neutraal
 ------------------------------
 Symbolic Z-matrix:
 Charge =  0 Multiplicity = 1

 SCF Done:  E(RB3LYP) =  -767.474503662     A.U. after   14 cycles
 SCF Done:  E(RB3LYP) =  -767.478026958     A.U. after   12 cycles
 SCF Done:  E(RB3LYP) =  -767.478309974     A.U. after   11 cycles
 SCF Done:  E(RB3LYP) =  -767.478533360     A.U. after   12 cycles
 SCF Done:  E(RB3LYP) =  -767.478730967     A.U. after   10 cycles
 SCF Done:  E(RB3LYP) =  -767.478822317     A.U. after   11 cycles
 SCF Done:  E(RB3LYP) =  -767.478837583     A.U. after   10 cycles
 SCF Done:  E(RB3LYP) =  -767.478853068     A.U. after    9 cycles
 SCF Done:  E(RB3LYP) =  -767.478868359     A.U. after   10 cycles
 SCF Done:  E(RB3LYP) =  -767.478872398     A.U. after    9 cycles
 SCF Done:  E(RB3LYP) =  -767.478944295     A.U. after   10 cycles
 SCF Done:  E(RB3LYP) =  -767.478944998     A.U. after   10 cycles
 SCF Done:  E(RB3LYP) =  -767.478945684     A.U. after   10 cycles
 SCF Done:  E(RB3LYP) =  -767.478945884     A.U. after    8 cycles
 SCF Done:  E(RB3LYP) =  -767.478945896     A.U. after    7 cycles
 Optimization completed.
    -- Stationary point found.
 Normal termination of Gaussian 16 at Fri Dec 11 13:31:42 2020.

 --------------------------------------------------------------------
 #N Geom=AllCheck Guess=TCheck SCRF=Check GenChk RB3LYP/6-31G(d) Freq
 --------------------------------------------------------------------

 Structure from the checkpoint file:  "JID_7983.chk"
 ------------------------------
 CID_43298067_JID_7983_neutraal
 ------------------------------
 Charge =  0 Multiplicity = 1

 SCF Done:  E(RB3LYP) =  -767.478945896     A.U. after    1 cycles

  Exact polarizability: 216.877 -11.418 139.879 -15.219 -10.113 113.716
 Approx polarizability: 275.183 -16.455 217.142 -21.292 -27.565 181.224

                      1                      2                      3
                      A                      A                      A
 Frequencies --     16.8729                29.3356                36.0670
 Red. masses --      4.1442                 3.3561                 3.5272
 Frc consts  --      0.0007                 0.0017                 0.0027
 IR Inten    --      0.0233                 0.2291                 2.1112

                      4                      5                      6
                      A                      A                      A
 Frequencies --     48.0112                66.4997                81.1047
 Red. masses --      3.7510                 3.7845                 4.9598
 Frc consts  --      0.0051                 0.0099                 0.0192
 IR Inten    --      0.6863                 1.4671                 0.0867

                      7                      8                      9
                      A                      A                      A
 Frequencies --     96.3184               142.2804               178.2815
 Red. masses --      5.3991                 3.6210                 4.7607
 Frc consts  --      0.0295                 0.0432                 0.0892
 IR Inten    --      0.0483                 0.3969                 1.8562

                     10                     11                     12
                      A                      A                      A
 Frequencies --    218.3744               224.3665               248.1578
 Red. masses --      3.5758                 1.0919                 1.4079
 Frc consts  --      0.1005                 0.0324                 0.0511
 IR Inten    --      1.1968                 0.1475                 1.3146

                     13                     14                     15
                      A                      A                      A
 Frequencies --    252.9353               265.1719               294.9755
 Red. masses --      1.0815                 1.9208                 2.4327
 Frc consts  --      0.0408                 0.0796                 0.1247
 IR Inten    --      0.1011                 2.1165                 1.8446

                     16                     17                     18
                      A                      A                      A
 Frequencies --    300.9080               330.9031               353.0702
 Red. masses --      1.1973                 3.1994                 2.9188
 Frc consts  --      0.0639                 0.2064                 0.2144
 IR Inten    --     20.5560                 7.5298                 7.0831

                     19                     20                     21
                      A                      A                      A
 Frequencies --    380.3127               398.1139               418.6363
 Red. masses --      3.7881                 3.1918                 2.9472
 Frc consts  --      0.3228                 0.2981                 0.3043
 IR Inten    --     17.7889                 2.5136                 0.9511

                     22                     23                     24
                      A                      A                      A
 Frequencies --    421.6992               428.5734               466.3212
 Red. masses --      2.8597                 1.9957                 1.2929
 Frc consts  --      0.2996                 0.2160                 0.1657
 IR Inten    --     11.1555                 3.5936                50.2423

                     25                     26                     27
                      A                      A                      A
 Frequencies --    488.1923               544.9962               553.1319
 Red. masses --      3.0677                 2.5088                 3.4527
 Frc consts  --      0.4308                 0.4390                 0.6224
 IR Inten    --      8.1689                20.7121                58.8530

                     28                     29                     30
                      A                      A                      A
 Frequencies --    595.8676               622.1552               662.2421
 Red. masses --      3.2973                 1.4846                 6.6010
 Frc consts  --      0.6898                 0.3386                 1.7057
 IR Inten    --    115.0190               272.8375                 0.7413

                     31                     32                     33
                      A                      A                      A
 Frequencies --    696.7241               745.1014               759.0017
 Red. masses --      4.5029                 4.0541                11.8530
 Frc consts  --      1.2879                 1.3261                 4.0231
 IR Inten    --      1.0329                14.0991                26.9541

                     34                     35                     36
                      A                      A                      A
 Frequencies --    786.1328               826.3184               827.6277
 Red. masses --      2.9197                 1.2564                 2.6399
 Frc consts  --      1.0631                 0.5055                 1.0654
 IR Inten    --      1.9285                 0.2467                 3.0539

                     37                     38                     39
                      A                      A                      A
 Frequencies --    836.9188               858.0328               870.3556
 Red. masses --      1.8432                 4.2542                 3.5617
 Frc consts  --      0.7607                 1.8453                 1.5896
 IR Inten    --     53.7266                 1.5030                 9.1029

                     40                     41                     42
                      A                      A                      A
 Frequencies --    936.5088               942.3701               944.4097
 Red. masses --      1.4963                 1.5496                 1.3168
 Frc consts  --      0.7732                 0.8108                 0.6920
 IR Inten    --      4.0236                 4.0358                 0.0449

                     43                     44                     45
                      A                      A                      A
 Frequencies --    946.6942               955.0366               979.2360
 Red. masses --      1.2298                 1.5866                 1.9265
 Frc consts  --      0.6494                 0.8526                 1.0884
 IR Inten    --      0.8645                 1.9280                 3.2562

                     46                     47                     48
                      A                      A                      A
 Frequencies --    984.2136              1034.4949              1065.3484
 Red. masses --      1.4802                 2.8438                 1.5672
 Frc consts  --      0.8448                 1.7931                 1.0480
 IR Inten    --      1.6756                 3.8092                10.2047

                     49                     50                     51
                      A                      A                      A
 Frequencies --   1097.2966              1102.6375              1123.1355
 Red. masses --      1.7136                 5.8222                 2.0159
 Frc consts  --      1.2157                 4.1706                 1.4983
 IR Inten    --      5.8427               261.6561                21.6052

                     52                     53                     54
                      A                      A                      A
 Frequencies --   1157.5056              1160.4239              1171.6900
 Red. masses --      2.1944                 2.1590                 1.3998
 Frc consts  --      1.7323                 1.7129                 1.1323
 IR Inten    --     13.1350                20.4134                 5.8639

                     55                     56                     57
                      A                      A                      A
 Frequencies --   1212.1297              1216.8863              1217.7402
 Red. masses --      1.7329                 2.0317                 1.1421
 Frc consts  --      1.5001                 1.7726                 0.9979
 IR Inten    --      0.5279                 6.9091                21.3032

                     58                     59                     60
                      A                      A                      A
 Frequencies --   1242.7494              1316.5838              1321.4332
 Red. masses --      2.0207                 2.0302                 1.2626
 Frc consts  --      1.8387                 2.0734                 1.2990
 IR Inten    --      2.3110                 1.0391                 2.3851

                     61                     62                     63
                      A                      A                      A
 Frequencies --   1327.5702              1344.1103              1366.2403
 Red. masses --      3.1338                 1.3749                 1.7397
 Frc consts  --      3.2542                 1.4635                 1.9133
 IR Inten    --    109.7625                97.3711               232.9928

                     64                     65                     66
                      A                      A                      A
 Frequencies --   1374.3238              1384.3538              1395.0453
 Red. masses --      1.6371                 2.3279                 1.4391
 Frc consts  --      1.8219                 2.6285                 1.6502
 IR Inten    --     49.4232                69.1041                10.0673

                     67                     68                     69
                      A                      A                      A
 Frequencies --   1402.5837              1429.4926              1431.4902
 Red. masses --      1.4276                 1.2677                 1.2630
 Frc consts  --      1.6547                 1.5263                 1.5248
 IR Inten    --     62.5607                 2.8091                 7.1548

                     70                     71                     72
                      A                      A                      A
 Frequencies --   1440.7521              1455.6281              1465.8247
 Red. masses --      1.4646                 1.3313                 1.5580
 Frc consts  --      1.7912                 1.6620                 1.9723
 IR Inten    --    102.0625                21.7276               101.5180

                     73                     74                     75
                      A                      A                      A
 Frequencies --   1492.6336              1512.4555              1520.4000
 Red. masses --      2.5350                 1.0672                 1.0971
 Frc consts  --      3.3276                 1.4384                 1.4942
 IR Inten    --      4.9694                 2.0722                 9.8299

                     76                     77                     78
                      A                      A                      A
 Frequencies --   1521.8444              1526.1978              1533.0380
 Red. masses --      1.0561                 1.0774                 1.0472
 Frc consts  --      1.4411                 1.4786                 1.4501
 IR Inten    --     14.4498                30.5278                 3.8595

                     79                     80                     81
                      A                      A                      A
 Frequencies --   1534.9382              1543.9378              1573.5579
 Red. masses --      1.0584                 1.0499                 2.6544
 Frc consts  --      1.4692                 1.4746                 3.8724
 IR Inten    --      9.3431                11.4887                64.3052

                     82                     83                     84
                      A                      A                      A
 Frequencies --   1639.3256              1678.5214              1697.9175
 Red. masses --      5.9544                 2.6713                 1.4894
 Frc consts  --      9.4279                 4.4343                 2.5299
 IR Inten    --      2.8479                19.3529               141.5167

                     85                     86                     87
                      A                      A                      A
 Frequencies --   1821.4048              3025.4838              3041.7491
 Red. masses --      9.1616                 1.0838                 1.0357
 Frc consts  --     17.9075                 5.8450                 5.6458
 IR Inten    --    532.8503                19.5838                28.9903

                     88                     89                     90
                      A                      A                      A
 Frequencies --   3052.8542              3060.8984              3070.4588
 Red. masses --      1.0360                 1.0359                 1.0843
 Frc consts  --      5.6888                 5.7181                 6.0232
 IR Inten    --     19.6236                18.1348                12.5639

                     91                     92                     93
                      A                      A                      A
 Frequencies --   3077.5765              3104.8926              3115.5125
 Red. masses --      1.0600                 1.1020                 1.1022
 Frc consts  --      5.9151                 6.2593                 6.3031
 IR Inten    --     48.5727                31.5097                 7.7882

                     94                     95                     96
                      A                      A                      A
 Frequencies --   3119.7842              3129.0178              3130.7170
 Red. masses --      1.1016                 1.1022                 1.1025
 Frc consts  --      6.3174                 6.3581                 6.3669
 IR Inten    --     61.3558                25.4996                26.0597

                     97                     98                     99
                      A                      A                      A
 Frequencies --   3139.7078              3149.0345              3173.2481
 Red. masses --      1.1058                 1.1024                 1.0865
 Frc consts  --      6.4226                 6.4410                 6.4460
 IR Inten    --     19.1128                28.6643                33.0840

                    100                    101                    102
                      A                      A                      A
 Frequencies --   3174.0563              3190.0827              3192.6370
 Red. masses --      1.0869                 1.0938                 1.0944
 Frc consts  --      6.4519                 6.5582                 6.5722
 IR Inten    --      1.1623                37.3219                 0.2086

                    103                    104                    105
                      A                      A                      A
 Frequencies --   3552.3403              3649.0498              3651.1863
 Red. masses --      1.0478                 1.0773                 1.0982
 Frc consts  --      7.7907                 8.4518                 8.6260
 IR Inten    --     15.5484                43.0337                 9.0128

 - Thermochemistry -
 -------------------
 Temperature   298.150 Kelvin.  Pressure   1.00000 Atm.
 Atom     1 has atomic number  6 and mass  12.00000

 Molecular mass:   236.15248 amu.
 Principal axes and moments of inertia in atomic units:
                           1         2         3
     Eigenvalues --  1620.58606********************
           X            0.99995   0.00909  -0.00519
           Y           -0.00881   0.99864   0.05133
           Z            0.00565  -0.05128   0.99867
 This molecule is an asymmetric top.
 Rotational symmetry number  1.
 Warning -- assumption of classical behavior for rotation
           may cause significant error
 Rotational temperatures (Kelvin)      0.05345     0.00852     0.00816
 Rotational constants (GHZ):           1.11363     0.17753     0.16998
 Zero-point vibrational energy     841647.6 (Joules/Mol)
                                  201.15860 (Kcal/Mol)
 Warning -- explicit consideration of  28 degrees of freedom as
           vibrations may cause significant error
 Vibrational temperatures:     24.28    42.21    51.89    69.08    95.68
          (Kelvin)            116.69   138.58   204.71   256.51   314.19
                              322.81   357.04   363.92   381.52   424.40
                              432.94   476.10   507.99   547.19   572.80
                              602.32   606.73   616.62   670.93   702.40
                              784.13   795.83   857.32   895.14   952.82
                             1002.43  1072.03  1092.03  1131.07  1188.89
                             1190.77  1204.14  1234.52  1252.25  1347.43
                             1355.86  1358.79  1362.08  1374.08  1408.90
                             1416.06  1488.41  1532.80  1578.77  1586.45
                             1615.94  1665.39  1669.59  1685.80  1743.98
                             1750.83  1752.06  1788.04  1894.27  1901.25
                             1910.08  1933.87  1965.72  1977.35  1991.78
                             2007.16  2018.01  2056.72  2059.60  2072.92
                             2094.32  2108.99  2147.57  2176.09  2187.52
                             2189.59  2195.86  2205.70  2208.43  2221.38
                             2264.00  2358.62  2415.02  2442.92  2620.60
                             4353.00  4376.40  4392.38  4403.95  4417.71
                             4427.95  4467.25  4482.53  4488.67  4501.96
                             4504.40  4517.34  4530.76  4565.60  4566.76
                             4589.82  4593.49  5111.03  5250.17  5253.24

 Zero-point correction=                           0.320567 (Hartree/Particle)
 Thermal correction to Energy=                    0.338775
 Thermal correction to Enthalpy=                  0.339720
 Thermal correction to Gibbs Free Energy=         0.272191
 Sum of electronic and zero-point Energies=           -767.158379
 Sum of electronic and thermal Energies=              -767.140171
 Sum of electronic and thermal Enthalpies=            -767.139226
 Sum of electronic and thermal Free Energies=         -767.206755

                     E (Thermal)             CV                S
                      KCal/Mol        Cal/Mol-Kelvin    Cal/Mol-Kelvin
 Total                  212.585             68.157            142.126
 Electronic               0.000              0.000              0.000
 Translational            0.889              2.981             42.279
 Rotational               0.889              2.981             33.525
 Vibrational            210.807             62.196             66.322
 Vibration     1          0.593              1.986              6.972
 Vibration     2          0.593              1.984              5.874
 Vibration     3          0.594              1.982              5.464
 Vibration     4          0.595              1.978              4.898
 Vibration     5          0.598              1.970              4.254
 Vibration     6          0.600              1.962              3.864
 Vibration     7          0.603              1.952              3.527
 Vibration     8          0.616              1.911              2.773
 Vibration     9          0.629              1.869              2.346
 Vibration    10          0.646              1.813              1.973
 Vibration    11          0.649              1.804              1.924
 Vibration    12          0.662              1.766              1.744
 Vibration    13          0.664              1.758              1.710
 Vibration    14          0.671              1.737              1.627
 Vibration    15          0.689              1.683              1.445
 Vibration    16          0.693              1.672              1.412
 Vibration    17          0.713              1.614              1.256
 Vibration    18          0.729              1.569              1.152
 Vibration    19          0.750              1.512              1.038
 Vibration    20          0.764              1.474              0.970
 Vibration    21          0.781              1.430              0.897
 Vibration    22          0.784              1.423              0.886
 Vibration    23          0.790              1.408              0.863
 Vibration    24          0.824              1.325              0.748
 Vibration    25          0.844              1.276              0.688
 Vibration    26          0.900              1.151              0.555
 Vibration    27          0.909              1.133              0.538
 Vibration    28          0.954              1.041              0.457

 Optimization completed.
    -- Stationary point found.
 Normal termination of Gaussian 16 at Fri Dec 11 13:42:58 2020.

 ----------------------------------------------------------------------
 # B3LYP/6-311++G(d,p) empiricaldispersion=gd3bj scf=xqc pop=npa geom=c
 heck
 ----------------------------------------------------------------------

 --------------------------------------
 CID_43298067_JID_7983_Energie_neutraal
 --------------------------------------
 Structure from the checkpoint file:  "JID_7983.chk"
 Charge =  0 Multiplicity = 1

 SCF Done:  E(RB3LYP) =  -767.704445229     A.U. after   14 cycles
 Normal termination of Gaussian 16 at Fri Dec 11 13:48:46 2020.

 ----------------------------------------------------------------------
 # B3LYP/6-311++G(d,p) empiricaldispersion=gd3bj scf=xqc pop=npa geom=c
 heck
 ----------------------------------------------------------------------

 ------------------------------------
 CID_43298067_JID_7983_Energie_kation
 ------------------------------------
 Structure from the checkpoint file:  "JID_7983.chk"
 Charge =  1 Multiplicity = 2

 SCF Done:  E(UB3LYP) =  -767.417855956     A.U. after   27 cycles
 Normal termination of Gaussian 16 at Fri Dec 11 14:04:24 2020.
 Gaussian 16:  ES64L-G16RevA.03 25-Dec-2016

 ----------------------------------------------------------------------
 # B3LYP/6-311++G(d,p) empiricaldispersion=gd3bj scf=xqc pop=npa geom=c
 heck
 ----------------------------------------------------------------------

 -----------------------------------
 CID_43298067_JID_7983_Energie_anion
 -----------------------------------
 Structure from the checkpoint file:  "JID_7983.chk"
 Charge = -1 Multiplicity = 2

                         Standard orientation:
 ---------------------------------------------------------------------
 Center     Atomic      Atomic             Coordinates (Angstroms)
 Number     Number       Type             X           Y           Z
 ---------------------------------------------------------------------
      1          6           0        3.498142    1.842927    0.590285
      2          6           0        4.119459    0.897683   -0.443943
      3          6           0        5.651523    0.967049   -0.418724
      4          6           0        3.681378   -0.550746   -0.225049
      5          8           0        2.252023   -0.683287   -0.323241
      6          6           0        1.572213   -0.821644    0.852267
      7          8           0        2.092172   -0.905314    1.952087
      8          7           0        0.230594   -0.859219    0.629002
      9          6           0       -0.447644   -0.634623   -0.658304
     10          6           0       -0.369172   -1.880378   -1.551892
     11          6           0       -1.871994   -0.195910   -0.387653
     12          6           0       -2.793950   -1.054879    0.225475
     13          6           0       -4.096360   -0.647829    0.491762
     14          6           0       -4.527029    0.642977    0.141706
     15          6           0       -3.608492    1.506838   -0.475129
     16          6           0       -2.305723    1.088610   -0.727732
     17          7           0       -5.851133    1.034547    0.348840
     18          1           0        3.764222    1.538725    1.608596
     19          1           0        2.405948    1.846529    0.519993
     20          1           0        3.848133    2.869593    0.433167
     21          1           0        3.773066    1.200026   -1.442762
     22          1           0        6.038782    0.677731    0.566219
     23          1           0        6.099569    0.300338   -1.165306
     24          1           0        5.998509    1.984941   -0.626384
     25          1           0        4.091499   -1.200101   -1.004803
     26          1           0        4.001091   -0.913359    0.754991
     27          1           0       -0.329289   -0.869091    1.468555
     28          1           0        0.074070    0.182631   -1.167374
     29          1           0       -0.870413   -2.731301   -1.079468
     30          1           0       -0.854299   -1.685612   -2.514324
     31          1           0        0.675753   -2.147454   -1.729122
     32          1           0       -2.492362   -2.061931    0.503038
     33          1           0       -4.793830   -1.334369    0.965879
     34          1           0       -3.921525    2.509511   -0.756508
     35          1           0       -1.609473    1.778689   -1.198156
     36          1           0       -5.993434    2.034501    0.417797
     37          1           0       -6.329912    0.541072    1.091905
 ---------------------------------------------------------------------

 SCF Done:  E(UB3LYP) =  -767.695124112     A.U. after   33 cycles
 SCF Done:  E(UB3LYP) =  -767.695124112     a.u. after    1 cycles

 The electronic state is 2-A.
 Alpha  occ. eigenvalues --  -19.07802 -19.00954 -14.25187 -14.22142 -10.23390
 Alpha  occ. eigenvalues --  -10.13962 -10.13598 -10.12555 -10.09790 -10.09000
 Alpha  occ. eigenvalues --  -10.08861 -10.08783 -10.08327 -10.08188 -10.08006
 Alpha  occ. eigenvalues --  -10.07993 -10.07542  -1.02216  -0.93105  -0.84925
 Alpha  occ. eigenvalues --   -0.82722  -0.75822  -0.72888  -0.69021  -0.66164
 Alpha  occ. eigenvalues --   -0.63081  -0.62601  -0.60701  -0.56012  -0.53409
 Alpha  occ. eigenvalues --   -0.51522  -0.50067  -0.48256  -0.45477  -0.43981
 Alpha  occ. eigenvalues --   -0.42198  -0.41108  -0.40162  -0.37959  -0.37722
 Alpha  occ. eigenvalues --   -0.37356  -0.35766  -0.35018  -0.34464  -0.34197
 Alpha  occ. eigenvalues --   -0.33384  -0.32278  -0.31296  -0.31195  -0.30297
 Alpha  occ. eigenvalues --   -0.29301  -0.29093  -0.27861  -0.27653  -0.26667
 Alpha  occ. eigenvalues --   -0.26113  -0.25463  -0.24757  -0.22336  -0.21297
 Alpha  occ. eigenvalues --   -0.19926  -0.17651  -0.16947  -0.12009   0.03707
 Alpha virt. eigenvalues --    0.04744   0.06522   0.06602   0.06958   0.07157
 Alpha virt. eigenvalues --    0.07824   0.08114   0.08589   0.08710   0.09298
 Alpha virt. eigenvalues --    0.10002   0.10364   0.10856   0.11012   0.11703

  Beta  occ. eigenvalues --  -19.07799 -19.00952 -14.25186 -14.22065 -10.23390
  Beta  occ. eigenvalues --  -10.13953 -10.13594 -10.12544 -10.09782 -10.08995
  Beta  occ. eigenvalues --  -10.08855 -10.08780 -10.08299 -10.08170 -10.07988
  Beta  occ. eigenvalues --  -10.07986 -10.07531  -1.02211  -0.93101  -0.84921
  Beta  occ. eigenvalues --   -0.82638  -0.75789  -0.72866  -0.68996  -0.66140
  Beta  occ. eigenvalues --   -0.63042  -0.62571  -0.60660  -0.55984  -0.53374
  Beta  occ. eigenvalues --   -0.51492  -0.50020  -0.48227  -0.45466  -0.43925
  Beta  occ. eigenvalues --   -0.42150  -0.41053  -0.40134  -0.37938  -0.37692
  Beta  occ. eigenvalues --   -0.37321  -0.35737  -0.34996  -0.34444  -0.34166
  Beta  occ. eigenvalues --   -0.33348  -0.32247  -0.31274  -0.31181  -0.30274
  Beta  occ. eigenvalues --   -0.29268  -0.29068  -0.27842  -0.27637  -0.26646
  Beta  occ. eigenvalues --   -0.26086  -0.25438  -0.24733  -0.22290  -0.21286
  Beta  occ. eigenvalues --   -0.19920  -0.17647  -0.16932  -0.11951
  Beta virt. eigenvalues --    0.05408   0.06288   0.06922   0.06985   0.07104
  Beta virt. eigenvalues --    0.07675   0.08152   0.08219   0.08821   0.09034
  Beta virt. eigenvalues --    0.09565   0.10192   0.10427   0.11023   0.11267

 Mulliken charges and spin densities:
               1          2
     1  C   -0.172436  -0.426316
     2  C   -0.585626   1.116150
     3  C    0.452923  -1.068236
     4  C    0.244814  -0.784800
     5  O   -0.044131   0.022178
     6  C    0.124335  -0.053866
     7  O   -0.293123   0.002691
     8  N   -0.252248  -0.011649
     9  C    0.919784  -1.271555
    10  C   -0.273538  -0.347358
    11  C    0.890230  -0.143487
    12  C   -0.518353   0.181919
    13  C   -0.250573   0.084226
    14  C    0.825553  -1.091453
    15  C    0.099856  -0.373567
    16  C   -1.035429   0.843918
    17  N   -0.263924  -0.035269
    18  H    0.117924   0.041687
    19  H    0.126434   0.011021
    20  H   -0.027619   0.167602
    21  H   -0.051081   0.218202
    22  H    0.050012   0.083380
    23  H   -0.242719   0.377290
    24  H   -0.203302   0.349142
    25  H    0.003568   0.132244
    26  H    0.187504   0.020615
    27  H    0.302022   0.002671
    28  H    0.221034   0.038240
    29  H    0.092069   0.059488
    30  H    0.060158   0.065994
    31  H    0.145921   0.002694
    32  H    0.061758   0.091818
    33  H   -0.458172   0.625169
    34  H   -0.417911   0.591042
    35  H   -0.139078   0.277812
    36  H   -0.335334   0.587356
    37  H   -0.361298   0.613007
 Sum of Mulliken charges =  -1.00000   1.00000

 Dipole moment (field-independent basis, Debye):
    X=              6.8654    Y=             -3.8578    Z=             -1.7805  Tot=              8.0738
 Quadrupole moment (field-independent basis, Debye-Ang):
   XX=           -264.0610   YY=           -141.5238   ZZ=           -139.0017
   XY=             11.6341   XZ=             14.1069   YZ=              1.6243

 Summary of Natural Population Analysis:

                                       Natural Population
                Natural  -----------------------------------------------
    Atom  No    Charge         Core      Valence    Rydberg      Total
 -----------------------------------------------------------------------
      C    1   -0.28662      0.99965     2.28183    0.00513     3.28662
      C    2   -0.12616      0.99962     2.11688    0.00966     3.12616
      C    3   -0.28588      0.99965     2.27996    0.00627     3.28588
      C    4   -0.01226      0.99952     2.00034    0.01241     3.01226
      O    5   -0.29417      0.99986     3.28648    0.00783     4.29417
      C    6    0.46237      0.99969     1.51382    0.02412     2.53763
      O    7   -0.33516      0.99987     3.33052    0.00477     4.33516
      N    8   -0.32619      0.99965     2.81733    0.00920     3.82619
      C    9   -0.01537      0.99956     2.00397    0.01184     3.01537
      C   10   -0.28420      0.99964     2.28001    0.00455     3.28420
      C   11   -0.04861      0.99948     2.03800    0.01113     3.04861
      C   12   -0.09649      0.99952     2.08810    0.00888     3.09649
      C   13   -0.11986      0.99952     2.10983    0.01051     3.11986
      C   14    0.08935      0.99949     1.89933    0.01183     2.91065
      C   15   -0.12075      0.99952     2.11103    0.01020     3.12075
      C   16   -0.08661      0.99952     2.07744    0.00965     3.08661
      N   17   -0.39202      0.99972     2.88172    0.01058     3.89202
      H   18    0.10170      0.00000     0.39744    0.00085     0.39830
      H   19    0.10238      0.00000     0.39656    0.00106     0.39762
      H   20    0.09881      0.00000     0.40032    0.00087     0.40119
      H   21    0.09501      0.00000     0.40291    0.00208     0.40499
      H   22    0.09653      0.00000     0.40259    0.00088     0.40347
      H   23    0.10020      0.00000     0.39867    0.00112     0.39980
      H   24    0.10253      0.00000     0.39651    0.00096     0.39747
      H   25    0.09030      0.00000     0.40875    0.00096     0.40970
      H   26    0.10009      0.00000     0.39872    0.00119     0.39991
      H   27    0.20196      0.00000     0.29632    0.00171     0.29804
      H   28    0.10125      0.00000     0.39666    0.00210     0.39875
      H   29    0.09696      0.00000     0.40209    0.00095     0.40304
      H   30    0.10078      0.00000     0.39845    0.00077     0.39922
      H   31    0.10494      0.00000     0.39404    0.00101     0.39506
      H   32    0.09958      0.00000     0.39936    0.00106     0.40042
      H   33    0.10221      0.00000     0.39669    0.00110     0.39779
      H   34    0.10288      0.00000     0.39594    0.00118     0.39712
      H   35    0.10037      0.00000     0.39859    0.00104     0.39963
      H   36    0.19016      0.00000     0.30233    0.00751     0.30984
      H   37    0.19000      0.00000     0.30189    0.00811     0.31000
 =======================================================================
   * Total *   -0.00000     16.99348    46.80143    0.20509    64.00000

 Normal termination of Gaussian 16 at Fri Dec 11 14:23:22 2020.
