 Gaussian 16, Revision A.03,

 -----------------------------------------------------------
 # opt freq B3LYP/6-31G(d) empiricaldispersion=gd3bj scf=xqc
 -----------------------------------------------------------

 ------------------------------
 CID_13240373_JID_8075_neutraal
 ------------------------------
 Symbolic Z-matrix:
 Charge =  0 Multiplicity = 1

 SCF Done:  E(RB3LYP) =  -840.212237691     A.U. after   15 cycles
 SCF Done:  E(RB3LYP) =  -840.221270022     A.U. after   14 cycles
 SCF Done:  E(RB3LYP) =  -840.223431696     A.U. after   14 cycles
 SCF Done:  E(RB3LYP) =  -840.223089768     A.U. after   14 cycles
 SCF Done:  E(RB3LYP) =  -840.222563198     A.U. after   14 cycles
 SCF Done:  E(RB3LYP) =  -840.223158895     A.U. after   14 cycles
 SCF Done:  E(RB3LYP) =  -840.224399238     A.U. after   11 cycles
 SCF Done:  E(RB3LYP) =  -840.226433302     A.U. after   13 cycles
 SCF Done:  E(RB3LYP) =  -840.226671856     A.U. after   14 cycles
 SCF Done:  E(RB3LYP) =  -840.229555752     A.U. after   14 cycles
 SCF Done:  E(RB3LYP) =  -840.233292469     A.U. after   12 cycles
 SCF Done:  E(RB3LYP) =  -840.233321854     A.U. after   11 cycles
 SCF Done:  E(RB3LYP) =  -840.233329792     A.U. after   10 cycles
 SCF Done:  E(RB3LYP) =  -840.233333004     A.U. after    9 cycles
 SCF Done:  E(RB3LYP) =  -840.233333376     A.U. after    8 cycles
 SCF Done:  E(RB3LYP) =  -840.233333530     A.U. after    8 cycles
 Optimization completed.
    -- Stationary point found.
 Normal termination of Gaussian 16 at Fri Dec 11 18:50:07 2020.

 --------------------------------------------------------------------
 #N Geom=AllCheck Guess=TCheck SCRF=Check GenChk RB3LYP/6-31G(d) Freq
 --------------------------------------------------------------------

 Structure from the checkpoint file:  "JID_8075.chk"
 ------------------------------
 CID_13240373_JID_8075_neutraal
 ------------------------------
 Charge =  0 Multiplicity = 1

 SCF Done:  E(RB3LYP) =  -840.233333530     A.U. after    1 cycles

  Exact polarizability: 265.345   0.478 147.977   3.768   9.587 104.498
 Approx polarizability: 355.284  10.284 247.544  10.571  31.999 172.353

                      1                      2                      3
                      A                      A                      A
 Frequencies --     24.1921                33.3935                38.5558
 Red. masses --      4.5616                 3.7047                 5.3579
 Frc consts  --      0.0016                 0.0024                 0.0047
 IR Inten    --      0.2549                 2.2221                 1.6166

                      4                      5                      6
                      A                      A                      A
 Frequencies --     64.5486                81.3473                93.3485
 Red. masses --      3.5317                 5.0178                 5.0017
 Frc consts  --      0.0087                 0.0196                 0.0257
 IR Inten    --      1.7607                 4.9865                 3.8768

                      7                      8                      9
                      A                      A                      A
 Frequencies --    104.9525               136.5690               150.7256
 Red. masses --      3.6586                 3.1939                 3.7323
 Frc consts  --      0.0237                 0.0351                 0.0500
 IR Inten    --      0.2187                 0.5257                 8.3792

                     10                     11                     12
                      A                      A                      A
 Frequencies --    166.9095               179.3979               202.2140
 Red. masses --      1.0460                 3.1663                 1.2389
 Frc consts  --      0.0172                 0.0600                 0.0298
 IR Inten    --      0.3368                 2.3676                 1.3626

                     13                     14                     15
                      A                      A                      A
 Frequencies --    230.5774               263.9438               275.0479
 Red. masses --      1.4051                 4.7601                 5.0944
 Frc consts  --      0.0440                 0.1954                 0.2271
 IR Inten    --      2.1261                 2.9467                 5.8727

                     16                     17                     18
                      A                      A                      A
 Frequencies --    306.4326               315.0966               345.5563
 Red. masses --      2.8333                 2.9730                 4.0671
 Frc consts  --      0.1568                 0.1739                 0.2861
 IR Inten    --     32.4089                 5.2814                 6.9081

                     19                     20                     21
                      A                      A                      A
 Frequencies --    379.6205               420.7916               423.6280
 Red. masses --      3.7705                 4.1428                 3.3978
 Frc consts  --      0.3201                 0.4322                 0.3593
 IR Inten    --     29.9607                 0.2200                 1.5824

                     22                     23                     24
                      A                      A                      A
 Frequencies --    459.8374               478.4512               493.7176
 Red. masses --      4.1286                 3.7704                 2.8625
 Frc consts  --      0.5144                 0.5085                 0.4111
 IR Inten    --      7.1251                 6.9097                26.9949

                     25                     26                     27
                      A                      A                      A
 Frequencies --    506.7660               544.2408               570.6538
 Red. masses --      3.6220                 3.7616                 3.8336
 Frc consts  --      0.5480                 0.6565                 0.7355
 IR Inten    --     18.3098                40.5926               116.2139

                     28                     29                     30
                      A                      A                      A
 Frequencies --    602.7486               634.1133               651.1674
 Red. masses --      2.3952                 2.5925                 6.8714
 Frc consts  --      0.5127                 0.6142                 1.7166
 IR Inten    --     27.8337                32.8312                 0.3450

                     31                     32                     33
                      A                      A                      A
 Frequencies --    691.9114               736.7360               756.4793
 Red. masses --      3.8542                 4.2380                 7.2229
 Frc consts  --      1.0871                 1.3553                 2.4353
 IR Inten    --     20.0823                 4.1551                15.4303

                     34                     35                     36
                      A                      A                      A
 Frequencies --    790.7013               803.6998               844.6609
 Red. masses --      1.7330                 3.1494                 1.6134
 Frc consts  --      0.6384                 1.1986                 0.6782
 IR Inten    --     14.8351                13.9871                27.9894

                     37                     38                     39
                      A                      A                      A
 Frequencies --    849.6501               864.3557               888.1160
 Red. masses --      1.2566                 2.4624                 2.7423
 Frc consts  --      0.5345                 1.0839                 1.2744
 IR Inten    --      1.1110                21.1454                 7.4151

                     40                     41                     42
                      A                      A                      A
 Frequencies --    908.9854               969.0810               970.7416
 Red. masses --      2.9207                 1.5481                 1.7397
 Frc consts  --      1.4218                 0.8566                 0.9659
 IR Inten    --     40.7021                24.0444                20.3386

                     43                     44                     45
                      A                      A                      A
 Frequencies --    988.9021               991.4258              1032.7386
 Red. masses --      1.9546                 1.3057                 2.8936
 Frc consts  --      1.1262                 0.7562                 1.8183
 IR Inten    --      2.3355                 0.5214                 1.5870

                     46                     47                     48
                      A                      A                      A
 Frequencies --   1055.3116              1056.3619              1071.2745
 Red. masses --      3.1215                 1.8467                 1.5697
 Frc consts  --      2.0482                 1.2142                 1.0613
 IR Inten    --     23.9597                 1.6854                 1.3659

                     49                     50                     51
                      A                      A                      A
 Frequencies --   1102.6150              1131.1981              1140.8081
 Red. masses --      2.4215                 1.9749                 2.4730
 Frc consts  --      1.7345                 1.4889                 1.8963
 IR Inten    --      1.5681                35.5256                62.7846

                     52                     53                     54
                      A                      A                      A
 Frequencies --   1159.2521              1183.7655              1212.5382
 Red. masses --      1.6576                 3.1264                 1.1875
 Frc consts  --      1.3125                 2.5813                 1.0287
 IR Inten    --     58.0702               329.8179               134.7188

                     55                     56                     57
                      A                      A                      A
 Frequencies --   1216.6046              1283.1556              1303.7719
 Red. masses --      2.0671                 3.4232                 3.3084
 Frc consts  --      1.8026                 3.3208                 3.3134
 IR Inten    --    137.4224               393.4776               232.0817

                     58                     59                     60
                      A                      A                      A
 Frequencies --   1342.2435              1345.1670              1350.7260
 Red. masses --      1.2445                 1.3573                 2.8484
 Frc consts  --      1.3210                 1.4471                 3.0619
 IR Inten    --      5.3069                23.9828               206.3562

                     61                     62                     63
                      A                      A                      A
 Frequencies --   1370.1400              1410.4962              1421.4660
 Red. masses --      7.7365                 1.3453                 1.3240
 Frc consts  --      8.5571                 1.5769                 1.5762
 IR Inten    --     25.4956                45.8346                27.2357

                     64                     65                     66
                      A                      A                      A
 Frequencies --   1433.9921              1444.7493              1461.7462
 Red. masses --      1.2731                 1.3643                 2.5858
 Frc consts  --      1.5424                 1.6778                 3.2553
 IR Inten    --     14.0241                10.8132                13.7395

                     67                     68                     69
                      A                      A                      A
 Frequencies --   1500.5014              1501.5771              1507.7846
 Red. masses --      1.0597                 1.0651                 1.2389
 Frc consts  --      1.4058                 1.4150                 1.6594
 IR Inten    --     13.8013                21.0779                21.7127

                     70                     71                     72
                      A                      A                      A
 Frequencies --   1508.4801              1516.0451              1519.5072
 Red. masses --      1.0484                 1.0529                 1.0883
 Frc consts  --      1.4056                 1.4259                 1.4805
 IR Inten    --      9.9550                14.2975                 2.5031

                     73                     74                     75
                      A                      A                      A
 Frequencies --   1524.1427              1538.7485              1556.0749
 Red. masses --      1.2563                 1.0581                 2.5303
 Frc consts  --      1.7195                 1.4760                 3.6098
 IR Inten    --     86.4965                 8.9017                33.0143

                     76                     77                     78
                      A                      A                      A
 Frequencies --   1625.1723              1663.0941              1682.7733
 Red. masses --      6.2471                 5.5263                 5.1227
 Frc consts  --      9.7213                 9.0058                 8.5467
 IR Inten    --      8.1581               307.1937                11.2842

                     79                     80                     81
                      A                      A                      A
 Frequencies --   1774.1369              1785.3985              3053.8899
 Red. masses --     10.5836                11.3078                 1.0383
 Frc consts  --     19.6271                21.2373                 5.7054
 IR Inten    --    208.3088               201.4965                 3.1304

                     82                     83                     84
                      A                      A                      A
 Frequencies --   3061.5592              3062.2041              3094.9760
 Red. masses --      1.0406                 1.0362                 1.0589
 Frc consts  --      5.7468                 5.7247                 5.9763
 IR Inten    --      6.1087                16.8464                30.3533

                     85                     86                     87
                      A                      A                      A
 Frequencies --   3113.2499              3121.1884              3128.8444
 Red. masses --      1.1000                 1.0953                 1.1013
 Frc consts  --      6.2814                 6.2866                 6.3520
 IR Inten    --     10.3125                 5.8560                30.4580

                     88                     89                     90
                      A                      A                      A
 Frequencies --   3140.3415              3160.4501              3171.3539
 Red. masses --      1.1048                 1.1075                 1.1015
 Frc consts  --      6.4191                 6.5176                 6.5274
 IR Inten    --      6.5378                28.4033                 3.2156

                     91                     92                     93
                      A                      A                      A
 Frequencies --   3171.7002              3190.9054              3208.8412
 Red. masses --      1.1011                 1.0896                 1.0880
 Frc consts  --      6.5264                 6.5366                 6.6003
 IR Inten    --     13.3151                10.4374                 7.0302

                     94                     95                     96
                      A                      A                      A
 Frequencies --   3228.3907              3232.2759              3571.8128
 Red. masses --      1.0921                 1.0928                 1.0760
 Frc consts  --      6.7062                 6.7268                 8.0882
 IR Inten    --      3.6442                 4.2429                36.2110

 - Thermochemistry -
 -------------------
 Temperature   298.150 Kelvin.  Pressure   1.00000 Atm.
 Atom     1 has atomic number  6 and mass  12.00000

 Molecular mass:   248.11609 amu.
 Principal axes and moments of inertia in atomic units:
                           1         2         3
     Eigenvalues --  1756.23398********************
           X            0.99998   0.00109  -0.00559
           Y           -0.00123   0.99969  -0.02467
           Z            0.00556   0.02468   0.99968
 This molecule is an asymmetric top.
 Rotational symmetry number  1.
 Warning -- assumption of classical behavior for rotation
           may cause significant error
 Rotational temperatures (Kelvin)      0.04932     0.00747     0.00704
 Rotational constants (GHZ):           1.02762     0.15563     0.14670
 Zero-point vibrational energy     727805.2 (Joules/Mol)
                                  173.94963 (Kcal/Mol)
 Warning -- explicit consideration of  28 degrees of freedom as
           vibrations may cause significant error
 Vibrational temperatures:     34.81    48.05    55.47    92.87   117.04
          (Kelvin)            134.31   151.00   196.49   216.86   240.15
                              258.11   290.94   331.75   379.76   395.73
                              440.89   453.35   497.18   546.19   605.43
                              609.51   661.60   688.38   710.35   729.12
                              783.04   821.04   867.22   912.35   936.88
                              995.51  1060.00  1088.40  1137.64  1156.34
                             1215.28  1222.46  1243.62  1277.80  1307.83
                             1394.29  1396.68  1422.81  1426.44  1485.88
                             1518.36  1519.87  1541.33  1586.42  1627.54
                             1641.37  1667.91  1703.17  1744.57  1750.42
                             1846.17  1875.84  1931.19  1935.40  1943.39
                             1971.33  2029.39  2045.17  2063.19  2078.67
                             2103.13  2158.89  2160.43  2169.37  2170.37
                             2181.25  2186.23  2192.90  2213.92  2238.84
                             2338.26  2392.82  2421.14  2552.59  2568.79
                             4393.87  4404.90  4405.83  4452.98  4479.27
                             4490.69  4501.71  4518.25  4547.18  4562.87
                             4563.37  4591.00  4616.81  4644.93  4650.52
                             5139.04

 Zero-point correction=                           0.277206 (Hartree/Particle)
 Thermal correction to Energy=                    0.295377
 Thermal correction to Enthalpy=                  0.296321
 Thermal correction to Gibbs Free Energy=         0.229164
 Sum of electronic and zero-point Energies=           -839.956127
 Sum of electronic and thermal Energies=              -839.937957
 Sum of electronic and thermal Enthalpies=            -839.937013
 Sum of electronic and thermal Free Energies=         -840.004169

                     E (Thermal)             CV                S
                      KCal/Mol        Cal/Mol-Kelvin    Cal/Mol-Kelvin
 Total                  185.352             66.888            141.343
 Electronic               0.000              0.000              0.000
 Translational            0.889              2.981             42.427
 Rotational               0.889              2.981             33.882
 Vibrational            183.574             60.926             65.034
 Vibration     1          0.593              1.985              6.256
 Vibration     2          0.594              1.983              5.617
 Vibration     3          0.594              1.981              5.332
 Vibration     4          0.597              1.971              4.313
 Vibration     5          0.600              1.962              3.858
 Vibration     6          0.602              1.954              3.589
 Vibration     7          0.605              1.945              3.360
 Vibration     8          0.614              1.917              2.851
 Vibration     9          0.618              1.902              2.663
 Vibration    10          0.624              1.883              2.470
 Vibration    11          0.629              1.868              2.335
 Vibration    12          0.639              1.837              2.113
 Vibration    13          0.652              1.794              1.874
 Vibration    14          0.671              1.739              1.636
 Vibration    15          0.677              1.719              1.564
 Vibration    16          0.697              1.661              1.382
 Vibration    17          0.702              1.645              1.335
 Vibration    18          0.724              1.584              1.186
 Vibration    19          0.750              1.514              1.041
 Vibration    20          0.783              1.425              0.889
 Vibration    21          0.786              1.419              0.880
 Vibration    22          0.818              1.339              0.767
 Vibration    23          0.835              1.298              0.714
 Vibration    24          0.849              1.264              0.674
 Vibration    25          0.862              1.235              0.641
 Vibration    26          0.899              1.152              0.556
 Vibration    27          0.927              1.095              0.503
 Vibration    28          0.961              1.026              0.445

                           ! Non-Optimized Parameters !
 Normal termination of Gaussian 16 at Fri Dec 11 19:03:22 2020.

 ----------------------------------------------------------------------
 # B3LYP/6-311++G(d,p) empiricaldispersion=gd3bj scf=xqc pop=npa geom=c
 heck
 ----------------------------------------------------------------------

 --------------------------------------
 CID_13240373_JID_8075_Energie_neutraal
 --------------------------------------
 Structure from the checkpoint file:  "JID_8075.chk"
 Charge =  0 Multiplicity = 1

 SCF Done:  E(RB3LYP) =  -840.470246882     A.U. after   16 cycles
 Normal termination of Gaussian 16 at Fri Dec 11 19:10:02 2020.

 ----------------------------------------------------------------------
 # B3LYP/6-311++G(d,p) empiricaldispersion=gd3bj scf=xqc pop=npa geom=c
 heck
 ----------------------------------------------------------------------

 ------------------------------------
 CID_13240373_JID_8075_Energie_kation
 ------------------------------------
 Structure from the checkpoint file:  "JID_8075.chk"
 Charge =  1 Multiplicity = 2

 SCF Done:  E(UB3LYP) =  -840.179954818     A.U. after   28 cycles
 Normal termination of Gaussian 16 at Fri Dec 11 19:26:40 2020.
 Gaussian 16:  ES64L-G16RevA.03 25-Dec-2016

 ----------------------------------------------------------------------
 # B3LYP/6-311++G(d,p) empiricaldispersion=gd3bj scf=xqc pop=npa geom=c
 heck
 ----------------------------------------------------------------------

 -----------------------------------
 CID_13240373_JID_8075_Energie_anion
 -----------------------------------
 Structure from the checkpoint file:  "JID_8075.chk"
 Charge = -1 Multiplicity = 2

                         Standard orientation:
 ---------------------------------------------------------------------
 Center     Atomic      Atomic             Coordinates (Angstroms)
 Number     Number       Type             X           Y           Z
 ---------------------------------------------------------------------
      1          6           0        5.222397    1.851524   -1.004749
      2          6           0        5.253950    0.368701   -0.670673
      3          8           0        3.917122   -0.178628   -0.594921
      4          6           0        3.276418   -0.005324    0.571542
      5          8           0        3.744209    0.579018    1.532428
      6          6           0        1.896508   -0.597521    0.592093
      7          7           0        1.549207   -1.270585   -0.453606
      8          7           0        0.295003   -1.830748   -0.483209
      9          6           0       -0.917525   -1.121510   -0.346818
     10          6           0       -2.106194   -1.873235   -0.308653
     11          6           0       -3.330777   -1.236492   -0.214027
     12          6           0       -3.413452    0.165173   -0.148646
     13          6           0       -2.225158    0.905351   -0.199019
     14          6           0       -0.987760    0.277526   -0.302435
     15          6           0       -4.760293    0.792966   -0.033428
     16          8           0       -5.771732    0.105841   -0.006181
     17          6           0       -4.852540    2.307474    0.049637
     18          6           0        1.119648   -0.418293    1.862758
     19          1           0        4.666497    2.026739   -1.931382
     20          1           0        6.243978    2.224819   -1.138446
     21          1           0        4.752773    2.415963   -0.194943
     22          1           0        5.733496   -0.211827   -1.461829
     23          1           0        5.766274    0.187031    0.277226
     24          1           0        0.260530   -2.518059   -1.226912
     25          1           0       -2.048449   -2.958054   -0.337827
     26          1           0       -4.253672   -1.805152   -0.176187
     27          1           0       -2.254877    1.989789   -0.172271
     28          1           0       -0.083176    0.867978   -0.383499
     29          1           0       -4.305054    2.688088    0.919889
     30          1           0       -4.418276    2.777116   -0.840928
     31          1           0       -5.903140    2.589905    0.130874
     32          1           0        1.816921   -0.304965    2.694230
     33          1           0        0.481801    0.473110    1.838438
     34          1           0        0.466774   -1.281042    2.025171
 ---------------------------------------------------------------------

 SCF Done:  E(UB3LYP) =  -840.496527102     A.U. after   25 cycles

 The electronic state is 2-A.
 Alpha  occ. eigenvalues --  -19.03815 -18.96948 -18.96060 -14.24094 -14.19994
 Alpha  occ. eigenvalues --  -10.15473 -10.12669 -10.11141 -10.08726 -10.07445
 Alpha  occ. eigenvalues --  -10.07095 -10.05699 -10.05539 -10.05275 -10.04969
 Alpha  occ. eigenvalues --  -10.04877 -10.04200 -10.04067  -0.97913  -0.89872
 Alpha  occ. eigenvalues --   -0.88730  -0.88269  -0.74851  -0.71087  -0.67077
 Alpha  occ. eigenvalues --   -0.64305  -0.62944  -0.61505  -0.58700  -0.56294
 Alpha  occ. eigenvalues --   -0.51273  -0.49920  -0.47554  -0.43427  -0.42871
 Alpha  occ. eigenvalues --   -0.42047  -0.38736  -0.37449  -0.35651  -0.35331
 Alpha  occ. eigenvalues --   -0.34270  -0.33168  -0.32929  -0.32452  -0.32072
 Alpha  occ. eigenvalues --   -0.31390  -0.30470  -0.29612  -0.29299  -0.28637
 Alpha  occ. eigenvalues --   -0.28591  -0.27580  -0.26479  -0.25535  -0.25149
 Alpha  occ. eigenvalues --   -0.24619  -0.22971  -0.22318  -0.21974  -0.18685
 Alpha  occ. eigenvalues --   -0.17320  -0.15637  -0.14139  -0.13801  -0.11932
 Alpha  occ. eigenvalues --   -0.08605   0.02624
 Alpha virt. eigenvalues --    0.06537   0.07039   0.08038   0.08764   0.09221
 Alpha virt. eigenvalues --    0.09965   0.10079   0.10373   0.11102   0.11357
 Alpha virt. eigenvalues --    0.11598   0.11985   0.12935   0.13099   0.13628

  Beta  occ. eigenvalues --  -19.03766 -18.96693 -18.95755 -14.24218 -14.19640
  Beta  occ. eigenvalues --  -10.15315 -10.12673 -10.10960 -10.08466 -10.07439
  Beta  occ. eigenvalues --  -10.06892 -10.05716 -10.05460 -10.05311 -10.05003
  Beta  occ. eigenvalues --  -10.04795 -10.04215 -10.03974  -0.97700  -0.89316
  Beta  occ. eigenvalues --   -0.88357  -0.87950  -0.74510  -0.70839  -0.67011
  Beta  occ. eigenvalues --   -0.64008  -0.62765  -0.61297  -0.58581  -0.56122
  Beta  occ. eigenvalues --   -0.50905  -0.49739  -0.47256  -0.43284  -0.42665
  Beta  occ. eigenvalues --   -0.41813  -0.38580  -0.37272  -0.35403  -0.35028
  Beta  occ. eigenvalues --   -0.34064  -0.33038  -0.32748  -0.32013  -0.31834
  Beta  occ. eigenvalues --   -0.31163  -0.30349  -0.29385  -0.29122  -0.28514
  Beta  occ. eigenvalues --   -0.28393  -0.27202  -0.26035  -0.25419  -0.24948
  Beta  occ. eigenvalues --   -0.23794  -0.22823  -0.22167  -0.21022  -0.17876
  Beta  occ. eigenvalues --   -0.16491  -0.14761  -0.13703  -0.13185  -0.11649
  Beta  occ. eigenvalues --   -0.08109
  Beta virt. eigenvalues --    0.06754   0.07625   0.08001   0.08737   0.09063
  Beta virt. eigenvalues --    0.09475   0.09967   0.10060   0.10532   0.11071
  Beta virt. eigenvalues --    0.11385   0.11589   0.12046   0.12943   0.13045

 Mulliken charges and spin densities:
               1          2
     1  C   -0.343636  -0.030718
     2  C   -0.091913   0.013236
     3  O    0.045842   0.006081
     4  C   -0.423330   0.091874
     5  O   -0.329095   0.084541
     6  C    0.168224   0.145074
     7  N   -0.190247   0.161603
     8  N    0.027281  -0.054894
     9  C   -0.374607   0.097299
    10  C   -0.383456   0.002979
    11  C   -0.079194   0.103335
    12  C    1.302334   0.033437
    13  C   -0.784102   0.074548
    14  C   -0.318072  -0.008016
    15  C   -0.317493   0.108221
    16  O   -0.362080   0.109593
    17  C   -0.465061  -0.013524
    18  C   -0.599169  -0.007567
    19  H    0.124185   0.008112
    20  H    0.102076   0.008639
    21  H    0.170914   0.008367
    22  H    0.146487   0.002702
    23  H    0.157694  -0.001268
    24  H    0.267877   0.022389
    25  H    0.126637   0.007746
    26  H    0.167727  -0.004557
    27  H    0.131718  -0.005977
    28  H    0.227970   0.001290
    29  H    0.130592   0.006824
    30  H    0.118328   0.016491
    31  H    0.171670  -0.000620
    32  H    0.180880   0.001419
    33  H    0.155631   0.002177
    34  H    0.137389   0.009163
 Sum of Mulliken charges =  -1.00000   1.00000

 Dipole moment (field-independent basis, Debye):
    X=              5.0614    Y=              0.9095    Z=             -1.6001  Tot=              5.3857
 Quadrupole moment (field-independent basis, Debye-Ang):
   XX=           -200.3603   YY=           -112.1231   ZZ=           -120.2654
   XY=             -2.3402   XZ=             -8.5728   YZ=             -1.2604

 Summary of Natural Population Analysis:

                                       Natural Population
                Natural  -----------------------------------------------
    Atom  No    Charge         Core      Valence    Rydberg      Total
 -----------------------------------------------------------------------
      C    1   -0.29959      0.99967     2.29571    0.00422     3.29959
      C    2   -0.01637      0.99959     2.00629    0.01049     3.01637
      O    3   -0.27251      0.99986     3.26310    0.00956     4.27251
      C    4    0.40389      0.99965     1.57201    0.02445     2.59611
      O    5   -0.30516      0.99987     3.29936    0.00592     4.30516
      C    6    0.09659      0.99957     1.88996    0.01388     2.90341
      N    7   -0.08010      0.99964     2.56866    0.01180     3.58010
      N    8   -0.23436      0.99966     2.71997    0.01473     3.73436
      C    9    0.11725      0.99946     1.87063    0.01266     2.88275
      C   10   -0.13155      0.99953     2.12379    0.00822     3.13155
      C   11   -0.05684      0.99954     2.04857    0.00873     3.05684
      C   12   -0.07777      0.99947     2.06696    0.01134     3.07777
      C   13   -0.06635      0.99955     2.05939    0.00741     3.06635
      C   14   -0.13995      0.99953     2.13169    0.00874     3.13995
      C   15    0.29345      0.99964     1.68710    0.01981     2.70655
      O   16   -0.27668      0.99988     3.26985    0.00695     4.27668
      C   17   -0.33197      0.99964     2.32823    0.00410     3.33197
      C   18   -0.32220      0.99964     2.31750    0.00507     3.32220
      H   19    0.09828      0.00000     0.40073    0.00098     0.40172
      H   20    0.09318      0.00000     0.40592    0.00089     0.40682
      H   21    0.10824      0.00000     0.39067    0.00109     0.39176
      H   22    0.08307      0.00000     0.41580    0.00113     0.41693
      H   23    0.09157      0.00000     0.40692    0.00150     0.40843
      H   24    0.18513      0.00000     0.31321    0.00167     0.31487
      H   25    0.09486      0.00000     0.40367    0.00146     0.40514
      H   26    0.10705      0.00000     0.39183    0.00112     0.39295
      H   27    0.09458      0.00000     0.40449    0.00093     0.40542
      H   28    0.10643      0.00000     0.39217    0.00140     0.39357
      H   29    0.10350      0.00000     0.39557    0.00093     0.39650
      H   30    0.10316      0.00000     0.39591    0.00093     0.39684
      H   31    0.10381      0.00000     0.39485    0.00134     0.39619
      H   32    0.11245      0.00000     0.38652    0.00103     0.38755
      H   33    0.10931      0.00000     0.38951    0.00118     0.39069
      H   34    0.10560      0.00000     0.39354    0.00085     0.39440
 =======================================================================
   * Total *   -0.00000     17.99340    47.80006    0.20653    66.00000

 Normal termination of Gaussian 16 at Fri Dec 11 19:41:50 2020.
