 Gaussian 16, Revision A.03,

 -----------------------------------------------------------
 # opt freq B3LYP/6-31G(d) empiricaldispersion=gd3bj scf=xqc
 -----------------------------------------------------------

 ------------------------------
 CID_85185524_JID_1417_neutraal
 ------------------------------
 Symbolic Z-matrix:
 Charge =  0 Multiplicity = 1

 SCF Done:  E(RB3LYP) =  -538.988093271     A.U. after   14 cycles
 SCF Done:  E(RB3LYP) =  -538.992369840     A.U. after   12 cycles
 SCF Done:  E(RB3LYP) =  -538.992581111     A.U. after   12 cycles
 SCF Done:  E(RB3LYP) =  -538.993070944     A.U. after   11 cycles
 SCF Done:  E(RB3LYP) =  -538.993166229     A.U. after   11 cycles
 SCF Done:  E(RB3LYP) =  -538.993258801     A.U. after   11 cycles
 SCF Done:  E(RB3LYP) =  -538.993319888     A.U. after   11 cycles
 SCF Done:  E(RB3LYP) =  -538.993354603     A.U. after   10 cycles
 SCF Done:  E(RB3LYP) =  -538.993368806     A.U. after   10 cycles
 SCF Done:  E(RB3LYP) =  -538.993370084     A.U. after    8 cycles
 SCF Done:  E(RB3LYP) =  -538.993370396     A.U. after    7 cycles
 SCF Done:  E(RB3LYP) =  -538.993370459     A.U. after    7 cycles
 Optimization completed.
    -- Stationary point found.

 1\1\GINC-NODE212\FOpt\RB3LYP\6-31G(d)\C8H14O3\VSC10255\08-Dec-2020\0\\
 # opt freq B3LYP/6-31G(d) empiricaldispersion=gd3bj scf=xqc\\CID_85185
 524_JID_1417_neutraal\\0,1\C,0.9352036942,-0.0657347572,0.0128059268\C
 ,0.3434481432,0.0024665136,-1.4054335544\C,0.5363252066,1.4040687244,-
 2.0178512529\C,2.0109280259,1.7720798206,-2.1614227679\C,2.8904127035,
 0.6631049399,-2.7090553155\O,4.0024706716,0.8575096438,-3.1370317418\O
 ,2.4322838869,-0.6140332207,-2.6380492809\C,1.0523418822,-0.9777092621
 ,-2.3628100724\C,1.1934029758,-2.4312849667,-1.9117997672\O,-0.0943916

 Normal termination of Gaussian 16 at Tue Dec  8 19:57:30 2020.

 --------------------------------------------------------------------
 #N Geom=AllCheck Guess=TCheck SCRF=Check GenChk RB3LYP/6-31G(d) Freq
 --------------------------------------------------------------------

 Structure from the checkpoint file:  "JID_1417.chk"
 ------------------------------
 CID_85185524_JID_1417_neutraal
 ------------------------------
 Charge =  0 Multiplicity = 1

 SCF Done:  E(RB3LYP) =  -538.993370459     A.U. after    1 cycles

  Exact polarizability: 104.395  -0.719  88.587   0.796  -1.242  74.603
 Approx polarizability: 141.715  -5.065 122.998   2.944  -1.631 111.295

                      1                      2                      3
                      A                      A                      A
 Frequencies --     36.7504                69.5168               137.4008
 Red. masses --      4.0140                 5.7539                 3.1472
 Frc consts  --      0.0032                 0.0164                 0.0350
 IR Inten    --      0.2103                 3.4412                13.1163

                      4                      5                      6
                      A                      A                      A
 Frequencies --    197.7615               220.9006               234.6173
 Red. masses --      2.2386                 1.7066                 1.3763
 Frc consts  --      0.0516                 0.0491                 0.0446
 IR Inten    --      3.8200                 5.9858                58.0414

                      7                      8                      9
                      A                      A                      A
 Frequencies --    255.1823               276.7512               299.6510
 Red. masses --      1.5311                 1.2443                 2.2746
 Frc consts  --      0.0587                 0.0562                 0.1203
 IR Inten    --     51.3656                 4.4650                 1.8972

                     10                     11                     12
                      A                      A                      A
 Frequencies --    302.9434               332.1323               380.4845
 Red. masses --      1.7677                 3.4397                 3.7788
 Frc consts  --      0.0956                 0.2236                 0.3223
 IR Inten    --      1.1029                 0.6685                 1.4811

                     13                     14                     15
                      A                      A                      A
 Frequencies --    387.5788               454.5033               467.3982
 Red. masses --      2.5997                 3.7077                 3.8379
 Frc consts  --      0.2301                 0.4513                 0.4940
 IR Inten    --      2.5595                 0.3912                 0.6460

                     16                     17                     18
                      A                      A                      A
 Frequencies --    530.3159               537.5928               595.4649
 Red. masses --      2.3470                 2.5437                 5.2035
 Frc consts  --      0.3889                 0.4331                 1.0871
 IR Inten    --      6.1095                 4.3007                11.0095

                     19                     20                     21
                      A                      A                      A
 Frequencies --    694.7104               751.7927               816.4298
 Red. masses --      3.5786                 2.8987                 4.3432
 Frc consts  --      1.0176                 0.9653                 1.7057
 IR Inten    --      7.0581                10.8246                 6.2362

                     22                     23                     24
                      A                      A                      A
 Frequencies --    842.6240               923.7105               936.7752
 Red. masses --      2.3037                 1.9033                 1.9307
 Frc consts  --      0.9637                 0.9568                 0.9983
 IR Inten    --      9.0255                 3.4286                 0.5509

                     25                     26                     27
                      A                      A                      A
 Frequencies --    968.5782              1014.2178              1025.8016
 Red. masses --      1.4709                 1.4302                 1.9884
 Frc consts  --      0.8130                 0.8668                 1.2328
 IR Inten    --      1.5912                 3.5155                 8.5883

                     28                     29                     30
                      A                      A                      A
 Frequencies --   1054.7949              1072.4967              1080.0455
 Red. masses --      1.7742                 1.7155                 3.0606
 Frc consts  --      1.1631                 1.1626                 2.1035
 IR Inten    --     11.5891                14.1348                91.7771

                     31                     32                     33
                      A                      A                      A
 Frequencies --   1097.4847              1120.1500              1176.3410
 Red. masses --      4.3538                 2.7272                 1.5519
 Frc consts  --      3.0897                 2.0161                 1.2653
 IR Inten    --     95.7045                16.0588                 3.5546

                     34                     35                     36
                      A                      A                      A
 Frequencies --   1201.7913              1229.3102              1246.7483
 Red. masses --      2.1776                 2.0593                 1.6146
 Frc consts  --      1.8530                 1.8336                 1.4787
 IR Inten    --     60.2155               122.0189                32.0322

                     37                     38                     39
                      A                      A                      A
 Frequencies --   1259.2054              1277.3971              1297.1746
 Red. masses --      1.4194                 1.3542                 1.7581
 Frc consts  --      1.3260                 1.3020                 1.7430
 IR Inten    --     13.1417                67.2307                67.1434

                     40                     41                     42
                      A                      A                      A
 Frequencies --   1332.7576              1362.2013              1379.1267
 Red. masses --      1.9900                 1.3063                 1.4619
 Frc consts  --      2.0826                 1.4281                 1.6382
 IR Inten    --      2.6464                13.5646                 8.2379

                     43                     44                     45
                      A                      A                      A
 Frequencies --   1393.9586              1414.9321              1432.6801
 Red. masses --      1.5931                 1.3823                 1.2612
 Frc consts  --      1.8239                 1.6305                 1.5253
 IR Inten    --     26.6486                 8.2499                 6.9414

                     46                     47                     48
                      A                      A                      A
 Frequencies --   1456.7299              1485.2376              1492.8082
 Red. masses --      1.2539                 1.4824                 1.0738
 Frc consts  --      1.5677                 1.9267                 1.4099
 IR Inten    --      9.2467                 2.2339                 6.9350

                     49                     50                     51
                      A                      A                      A
 Frequencies --   1513.8718              1524.9032              1529.7444
 Red. masses --      1.0604                 1.0563                 1.0820
 Frc consts  --      1.4318                 1.4472                 1.4918
 IR Inten    --      1.0197                 3.1682                 3.4151

                     52                     53                     54
                      A                      A                      A
 Frequencies --   1535.0101              1547.6930              1560.7726
 Red. masses --      1.0599                 1.0620                 1.0776
 Frc consts  --      1.4714                 1.4988                 1.5466
 IR Inten    --      4.2688                16.4367                 4.2116

                     55                     56                     57
                      A                      A                      A
 Frequencies --   1848.5127              3023.5827              3036.2992
 Red. masses --     12.5000                 1.0566                 1.0710
 Frc consts  --     25.1655                 5.6914                 5.8175
 IR Inten    --    368.9984                32.4281                 3.0116

                     58                     59                     60
                      A                      A                      A
 Frequencies --   3041.2907              3049.9309              3056.1967
 Red. masses --      1.0740                 1.0420                 1.0449
 Frc consts  --      5.8530                 5.7110                 5.7504
 IR Inten    --     26.7161                35.7152                19.3715

                     61                     62                     63
                      A                      A                      A
 Frequencies --   3058.4447              3063.8538              3083.0721
 Red. masses --      1.0646                 1.1048                 1.0985
 Frc consts  --      5.8671                 6.1102                 6.1520
 IR Inten    --      7.7295                65.6868                27.2352

                     64                     65                     66
                      A                      A                      A
 Frequencies --   3108.3973              3118.8728              3119.8142
 Red. masses --      1.1017                 1.0968                 1.0997
 Frc consts  --      6.2718                 6.2860                 6.3064
 IR Inten    --     37.8247                16.9457                29.0418

                     67                     68                     69
                      A                      A                      A
 Frequencies --   3128.6736              3169.7849              3764.3386
 Red. masses --      1.1021                 1.0973                 1.0666
 Frc consts  --      6.3562                 6.4958                 8.9048
 IR Inten    --     20.6048                 9.4608                24.7365

 - Thermochemistry -
 -------------------
 Temperature   298.150 Kelvin.  Pressure   1.00000 Atm.
 Atom     1 has atomic number  6 and mass  12.00000

 Molecular mass:   158.09429 amu.
 Principal axes and moments of inertia in atomic units:
                           1         2         3
     Eigenvalues --  1088.893542013.469352649.56928
           X            0.99948   0.03188  -0.00381
           Y           -0.03190   0.99947  -0.00659
           Z            0.00360   0.00670   0.99997
 This molecule is an asymmetric top.
 Rotational symmetry number  1.
 Warning -- assumption of classical behavior for rotation
           may cause significant error
 Rotational temperatures (Kelvin)      0.07954     0.04302     0.03269
 Rotational constants (GHZ):           1.65741     0.89633     0.68115
 Zero-point vibrational energy     570846.1 (Joules/Mol)
                                  136.43550 (Kcal/Mol)
 Warning -- explicit consideration of  18 degrees of freedom as
           vibrations may cause significant error
 Vibrational temperatures:     52.88   100.02   197.69   284.53   317.83
          (Kelvin)            337.56   367.15   398.18   431.13   435.87
                              477.86   547.43   557.64   653.93   672.48
                              763.01   773.48   856.74   999.53  1081.66
                             1174.66  1212.35  1329.01  1347.81  1393.57
                             1459.23  1475.90  1517.61  1543.08  1553.94
                             1579.04  1611.65  1692.49  1729.11  1768.70
                             1793.79  1811.72  1837.89  1866.34  1917.54
                             1959.90  1984.26  2005.60  2035.77  2061.31
                             2095.91  2136.93  2147.82  2178.12  2194.00
                             2200.96  2208.54  2226.79  2245.60  2659.60
                             4350.26  4368.56  4375.74  4388.17  4397.19
                             4400.42  4408.20  4435.85  4472.29  4487.36
                             4488.72  4501.46  4560.61  5416.04

 Zero-point correction=                           0.217424 (Hartree/Particle)
 Thermal correction to Energy=                    0.228930
 Thermal correction to Enthalpy=                  0.229875
 Thermal correction to Gibbs Free Energy=         0.180285
 Sum of electronic and zero-point Energies=           -538.775947
 Sum of electronic and thermal Energies=              -538.764440
 Sum of electronic and thermal Enthalpies=            -538.763496
 Sum of electronic and thermal Free Energies=         -538.813085

                     E (Thermal)             CV                S
                      KCal/Mol        Cal/Mol-Kelvin    Cal/Mol-Kelvin
 Total                  143.656             43.657            104.370
 Electronic               0.000              0.000              0.000
 Translational            0.889              2.981             41.083
 Rotational               0.889              2.981             30.142
 Vibrational            141.879             37.696             33.145
 Vibration     1          0.594              1.982              5.427
 Vibration     2          0.598              1.969              4.167
 Vibration     3          0.614              1.916              2.840
 Vibration     4          0.637              1.843              2.154
 Vibration     5          0.648              1.809              1.952
 Vibration     6          0.654              1.788              1.843
 Vibration     7          0.666              1.754              1.695
 Vibration     8          0.678              1.716              1.554
 Vibration     9          0.692              1.674              1.419
 Vibration    10          0.694              1.668              1.401
 Vibration    11          0.714              1.611              1.250
 Vibration    12          0.750              1.512              1.037
 Vibration    13          0.756              1.497              1.009
 Vibration    14          0.813              1.351              0.782
 Vibration    15          0.825              1.322              0.745
 Vibration    16          0.885              1.183              0.586
 Vibration    17          0.893              1.167              0.570
 Vibration    18          0.953              1.041              0.458

                           ! Non-Optimized Parameters !

 1\1\GINC-NODE212\Freq\RB3LYP\6-31G(d)\C8H14O3\VSC10255\08-Dec-2020\0\\
 #N Geom=AllCheck Guess=TCheck SCRF=Check GenChk RB3LYP/6-31G(d) Freq\\
 CID_85185524_JID_1417_neutraal\\0,1\C,0.9352036942,-0.0657347572,0.012
 8059268\C,0.3434481432,0.0024665136,-1.4054335544\C,0.5363252066,1.404
 0687244,-2.0178512529\C,2.0109280259,1.7720798206,-2.1614227679\C,2.89
 04127035,0.6631049399,-2.7090553155\O,4.0024706716,0.8575096438,-3.137
 0317418\O,2.4322838869,-0.6140332207,-2.6380492809\C,1.0523418822,-0.9
 777092621,-2.3628100724\C,1.1934029758,-2.4312849667,-1.9117997672\O,-

 Normal termination of Gaussian 16 at Tue Dec  8 20:03:12 2020.

 ----------------------------------------------------------------------
 # B3LYP/6-311++G(d,p) empiricaldispersion=gd3bj scf=xqc pop=npa geom=c
 heck
 ----------------------------------------------------------------------

 --------------------------------------
 CID_85185524_JID_1417_Energie_neutraal
 --------------------------------------
 Structure from the checkpoint file:  "JID_1417.chk"
 Charge =  0 Multiplicity = 1

 SCF Done:  E(RB3LYP) =  -539.161404059     A.U. after   14 cycles
 Normal termination of Gaussian 16 at Tue Dec  8 20:05:23 2020.

 ----------------------------------------------------------------------
 # B3LYP/6-311++G(d,p) empiricaldispersion=gd3bj scf=xqc pop=npa geom=c
 heck
 ----------------------------------------------------------------------

 ------------------------------------
 CID_85185524_JID_1417_Energie_kation
 ------------------------------------
 Structure from the checkpoint file:  "JID_1417.chk"
 Charge =  1 Multiplicity = 2

 SCF Done:  E(UB3LYP) =  -538.809098775     A.U. after   24 cycles
 Normal termination of Gaussian 16 at Tue Dec  8 20:11:09 2020.
 Gaussian 16:  ES64L-G16RevA.03 25-Dec-2016

 -----------------------------------
 CID_85185524_JID_1417_Energie_anion
 -----------------------------------
 Structure from the checkpoint file:  "JID_1417.chk"
 Charge = -1 Multiplicity = 2

                         Standard orientation:
 ---------------------------------------------------------------------
 Center     Atomic      Atomic             Coordinates (Angstroms)
 Number     Number       Type             X           Y           Z
 ---------------------------------------------------------------------
      1          6           0       -0.534249    1.051902    1.561023
      2          6           0       -0.520474    0.915229    0.028913
      3          6           0        0.733583    1.579143   -0.573834
      4          6           0        2.023292    0.925759   -0.083693
      5          6           0        1.998129   -0.591570   -0.066442
      6          8           0        2.996463   -1.264020    0.027214
      7          8           0        0.790400   -1.213906   -0.076150
      8          6           0       -0.466330   -0.563442   -0.407484
      9          6           0       -1.488009   -1.520894    0.205418
     10          8           0       -2.788524   -1.172193   -0.249533
     11          6           0       -1.761607    1.604850   -0.560895
     12          1           0       -1.496688    0.731411    1.972066
     13          1           0       -0.385076    2.098974    1.848249
     14          1           0        0.248619    0.455110    2.040059
     15          1           0        0.675050    1.505459   -1.668084
     16          1           0        0.738807    2.648821   -0.332750
     17          1           0        2.241136    1.229684    0.948321
     18          1           0        2.891627    1.227691   -0.675995
     19          1           0       -0.574933   -0.603861   -1.499507
     20          1           0       -1.208067   -2.534844   -0.111050
     21          1           0       -1.413025   -1.483030    1.301421
     22          1           0       -3.405788   -1.838367    0.086534
     23          1           0       -2.684109    1.169378   -0.175108
     24          1           0       -1.739728    2.672263   -0.311020
     25          1           0       -1.780545    1.516409   -1.653424
 ---------------------------------------------------------------------

 SCF Done:  E(UB3LYP) =  -539.150804728     A.U. after   32 cycles

 The electronic state is 2-A.
 Alpha  occ. eigenvalues --  -19.06188 -19.01790 -19.00605 -10.20243 -10.13470
 Alpha  occ. eigenvalues --  -10.11351 -10.09114 -10.08798 -10.07631 -10.05863
 Alpha  occ. eigenvalues --  -10.05274  -0.99972  -0.92486  -0.91668  -0.73924
 Alpha  occ. eigenvalues --   -0.68501  -0.63516  -0.59053  -0.56237  -0.52940
 Alpha  occ. eigenvalues --   -0.50140  -0.43621  -0.41134  -0.38856  -0.38661
 Alpha  occ. eigenvalues --   -0.37543  -0.36666  -0.33884  -0.33039  -0.32532
 Alpha  occ. eigenvalues --   -0.30594  -0.29719  -0.29188  -0.28133  -0.27129
 Alpha  occ. eigenvalues --   -0.25734  -0.24828  -0.23633  -0.22972  -0.20804
 Alpha  occ. eigenvalues --   -0.19560  -0.17495  -0.17250   0.04427
 Alpha virt. eigenvalues --    0.06274   0.07973   0.08475   0.08800   0.09501
 Alpha virt. eigenvalues --    0.10554   0.10826   0.11244   0.11783   0.12977
 Alpha virt. eigenvalues --    0.13523   0.14081   0.14663   0.15071   0.15833

  Beta  occ. eigenvalues --  -19.06182 -19.01730 -19.00593 -10.20232 -10.13459
  Beta  occ. eigenvalues --  -10.11322 -10.09113 -10.08782 -10.07605 -10.05823
  Beta  occ. eigenvalues --  -10.05250  -0.99953  -0.92428  -0.91582  -0.73899
  Beta  occ. eigenvalues --   -0.68455  -0.63462  -0.58992  -0.56171  -0.52854
  Beta  occ. eigenvalues --   -0.50091  -0.43544  -0.41059  -0.38823  -0.38581
  Beta  occ. eigenvalues --   -0.37499  -0.36623  -0.33844  -0.33006  -0.32489
  Beta  occ. eigenvalues --   -0.30557  -0.29676  -0.29144  -0.28098  -0.27094
  Beta  occ. eigenvalues --   -0.25691  -0.24772  -0.23602  -0.22938  -0.20764
  Beta  occ. eigenvalues --   -0.19526  -0.17455  -0.17213
  Beta virt. eigenvalues --    0.06900   0.08001   0.08571   0.08937   0.09030
  Beta virt. eigenvalues --    0.10244   0.11045   0.11264   0.11586   0.12061
  Beta virt. eigenvalues --    0.13628   0.13903   0.14402   0.14992   0.15478

 Mulliken charges and spin densities:
               1          2
     1  C    1.340070  -1.963955
     2  C   -0.799930   1.524595
     3  C   -0.343943   0.087465
     4  C    0.373948  -0.820575
     5  C   -0.222202   0.389024
     6  O   -0.310973   0.010295
     7  O   -0.074882   0.033379
     8  C   -1.199903   0.342870
     9  C    2.179994  -2.378460
    10  O   -0.345577   0.094372
    11  C    0.141568  -0.673952
    12  H   -0.212506   0.379630
    13  H   -0.326929   0.501864
    14  H    0.076413   0.092860
    15  H    0.099394   0.045302
    16  H   -0.557011   0.731226
    17  H   -0.023966   0.235509
    18  H   -0.042736   0.257246
    19  H    0.088544   0.148882
    20  H   -0.031037   0.200574
    21  H   -0.274002   0.462866
    22  H   -0.443589   0.727154
    23  H    0.165032   0.025786
    24  H   -0.106570   0.251346
    25  H   -0.149205   0.294695
 Sum of Mulliken charges =  -1.00000   1.00000

 Dipole moment (field-independent basis, Debye):
    X=              3.2764    Y=              1.0837    Z=             -1.9157  Tot=              3.9470
 Quadrupole moment (field-independent basis, Debye-Ang):
   XX=           -130.3456   YY=           -115.8284   ZZ=            -95.4497
   XY=             -6.0607   XZ=              1.5254   YZ=             -1.1801

 Summary of Natural Population Analysis:

                                       Natural Population
                Natural  -----------------------------------------------
    Atom  No    Charge         Core      Valence    Rydberg      Total
 -----------------------------------------------------------------------
      C    1   -0.29326      0.99962     2.28544    0.00820     3.29326
      C    2   -0.05660      0.99955     2.04233    0.01472     3.05660
      C    3   -0.18970      0.99959     2.17882    0.01129     3.18970
      C    4   -0.24648      0.99958     2.23790    0.00899     3.24648
      C    5    0.41546      0.99966     1.56056    0.02431     2.58454
      O    6   -0.29920      0.99987     3.29341    0.00593     4.29920
      O    7   -0.28701      0.99985     3.27827    0.00889     4.28701
      C    8    0.06829      0.99946     1.91771    0.01454     2.93171
      C    9   -0.01336      0.99955     1.99967    0.01414     3.01336
      O   10   -0.37217      0.99989     3.36513    0.00715     4.37217
      C   11   -0.28321      0.99962     2.27707    0.00653     3.28321
      H   12    0.10746      0.00000     0.39130    0.00124     0.39254
      H   13    0.10419      0.00000     0.39447    0.00134     0.39581
      H   14    0.09975      0.00000     0.39867    0.00157     0.40025
      H   15    0.09843      0.00000     0.40022    0.00135     0.40157
      H   16    0.10647      0.00000     0.39181    0.00172     0.39353
      H   17    0.11645      0.00000     0.38227    0.00128     0.38355
      H   18    0.11398      0.00000     0.38509    0.00093     0.38602
      H   19    0.09054      0.00000     0.40788    0.00158     0.40946
      H   20    0.08406      0.00000     0.41416    0.00178     0.41594
      H   21    0.08218      0.00000     0.41578    0.00204     0.41782
      H   22    0.23996      0.00000     0.23832    0.02173     0.26004
      H   23    0.11602      0.00000     0.38243    0.00155     0.38398
      H   24    0.09875      0.00000     0.40004    0.00122     0.40125
      H   25    0.09899      0.00000     0.39989    0.00112     0.40101
 =======================================================================
   * Total *    0.00000     10.99624    31.83863    0.16513    43.00000

 Normal termination of Gaussian 16 at Tue Dec  8 20:19:05 2020.
