 Gaussian 16, Revision A.03,

 -----------------------------------------------------------
 # opt freq B3LYP/6-31G(d) empiricaldispersion=gd3bj scf=xqc
 -----------------------------------------------------------

 ------------------------------
 CID_80227971_JID_6857_neutraal
 ------------------------------
 Symbolic Z-matrix:
 Charge =  0 Multiplicity = 1

 SCF Done:  E(RB3LYP) =  -1390.32215879     A.U. after   16 cycles
 SCF Done:  E(RB3LYP) =  -1390.32746709     A.U. after   12 cycles
 SCF Done:  E(RB3LYP) =  -1390.32773603     A.U. after   12 cycles
 SCF Done:  E(RB3LYP) =  -1390.32779881     A.U. after   12 cycles
 SCF Done:  E(RB3LYP) =  -1390.32803657     A.U. after   11 cycles
 SCF Done:  E(RB3LYP) =  -1390.32804099     A.U. after    9 cycles
 SCF Done:  E(RB3LYP) =  -1390.32804170     A.U. after    9 cycles
 SCF Done:  E(RB3LYP) =  -1390.32804176     A.U. after    7 cycles
 SCF Done:  E(RB3LYP) =  -1390.32804179     A.U. after    7 cycles
 SCF Done:  E(RB3LYP) =  -1390.32804179     A.U. after    7 cycles
 SCF Done:  E(RB3LYP) =  -1390.32805140     A.U. after   10 cycles
 SCF Done:  E(RB3LYP) =  -1390.32805137     A.U. after   11 cycles
 SCF Done:  E(RB3LYP) =  -1390.32800945     A.U. after   13 cycles
 SCF Done:  E(RB3LYP) =  -1390.32805717     A.U. after   12 cycles
 SCF Done:  E(RB3LYP) =  -1390.32805817     A.U. after   10 cycles
 SCF Done:  E(RB3LYP) =  -1390.32805844     A.U. after   10 cycles
 Optimization completed.
    -- Stationary point found.
 Normal termination of Gaussian 16 at Fri Dec 11 00:19:06 2020.

 --------------------------------------------------------------------
 #N Geom=AllCheck Guess=TCheck SCRF=Check GenChk RB3LYP/6-31G(d) Freq
 --------------------------------------------------------------------

 Structure from the checkpoint file:  "JID_6857.chk"
 ------------------------------
 CID_80227971_JID_6857_neutraal
 ------------------------------
 Charge =  0 Multiplicity = 1

 SCF Done:  E(RB3LYP) =  -1390.32805844     A.U. after    1 cycles

  Exact polarizability: 269.410  -2.852 169.916   0.168  -1.397  83.803
 Approx polarizability: 388.396   5.235 322.554  -2.103  -8.307 137.759

                      1                      2                      3
                      A                      A                      A
 Frequencies --     15.1793                55.4156                92.9861
 Red. masses --      4.6836                 6.0279                 6.6914
 Frc consts  --      0.0006                 0.0109                 0.0341
 IR Inten    --      0.2679                 0.0805                 0.2585

                      4                      5                      6
                      A                      A                      A
 Frequencies --    101.7626               137.8346               184.2404
 Red. masses --      4.7100                 4.0818                 2.1570
 Frc consts  --      0.0287                 0.0457                 0.0431
 IR Inten    --      3.5354                 0.6588                 0.6639

                      7                      8                      9
                      A                      A                      A
 Frequencies --    190.9025               211.4276               228.6294
 Red. masses --      1.4695                 4.7161                 3.1719
 Frc consts  --      0.0316                 0.1242                 0.0977
 IR Inten    --      0.5666                 4.6028                 2.8149

                     10                     11                     12
                      A                      A                      A
 Frequencies --    261.7882               285.6557               308.7354
 Red. masses --      6.8833                 2.9137                 4.2326
 Frc consts  --      0.2779                 0.1401                 0.2377
 IR Inten    --      9.0455                 1.7656                 0.6615

                     13                     14                     15
                      A                      A                      A
 Frequencies --    309.1985               422.5682               428.1764
 Red. masses --      4.4165                 6.0283                 4.6722
 Frc consts  --      0.2488                 0.6342                 0.5047
 IR Inten    --      1.1553                 0.1120                 3.5960

                     16                     17                     18
                      A                      A                      A
 Frequencies --    460.6234               474.4424               536.2587
 Red. masses --      3.2763                 4.4943                 4.6927
 Frc consts  --      0.4096                 0.5960                 0.7951
 IR Inten    --      0.7933                 0.5034                 6.9877

                     19                     20                     21
                      A                      A                      A
 Frequencies --    554.0441               562.7212               576.9849
 Red. masses --      5.3060                 4.9319                 4.2802
 Frc consts  --      0.9596                 0.9201                 0.8395
 IR Inten    --      0.3974                 1.1772                 7.0898

                     22                     23                     24
                      A                      A                      A
 Frequencies --    614.4945               640.3247               677.2846
 Red. masses --      6.1353                 4.5382                 1.8061
 Frc consts  --      1.3650                 1.0963                 0.4881
 IR Inten    --      4.4608                 0.1893                 0.5313

                     25                     26                     27
                      A                      A                      A
 Frequencies --    684.0195               715.7416               731.6842
 Red. masses --      6.2775                 5.2363                 2.2838
 Frc consts  --      1.7305                 1.5805                 0.7204
 IR Inten    --      3.0094                 3.1374                 2.2667

                     28                     29                     30
                      A                      A                      A
 Frequencies --    749.1895               803.2476               845.4744
 Red. masses --      5.2301                 1.2666                 2.7302
 Frc consts  --      1.7296                 0.4815                 1.1499
 IR Inten    --     17.0734                50.7753                21.1274

                     31                     32                     33
                      A                      A                      A
 Frequencies --    865.9817               876.6125               890.7005
 Red. masses --      4.4834                 1.7325                 4.0873
 Frc consts  --      1.9810                 0.7844                 1.9105
 IR Inten    --      2.7121                 1.5314                29.0994

                     34                     35                     36
                      A                      A                      A
 Frequencies --    906.9655               935.8893              1022.5246
 Red. masses --      2.6004                 3.9820                 2.8291
 Frc consts  --      1.2603                 2.0549                 1.7428
 IR Inten    --     11.3178                21.7324                25.9460

                     37                     38                     39
                      A                      A                      A
 Frequencies --   1037.6537              1045.9177              1080.6564
 Red. masses --      1.4820                 3.1379                 1.4878
 Frc consts  --      0.9402                 2.0225                 1.0237
 IR Inten    --      1.3603                 9.2169                 3.1036

                     40                     41                     42
                      A                      A                      A
 Frequencies --   1082.6592              1090.5473              1167.6462
 Red. masses --      2.3585                 2.6872                 1.2029
 Frc consts  --      1.6288                 1.8830                 0.9663
 IR Inten    --      9.9611                20.6470                 8.4625

                     43                     44                     45
                      A                      A                      A
 Frequencies --   1177.8599              1218.5062              1224.6420
 Red. masses --      2.0281                 1.4944                 1.4895
 Frc consts  --      1.6578                 1.3073                 1.3162
 IR Inten    --      3.8645                20.2843                 6.0183

                     46                     47                     48
                      A                      A                      A
 Frequencies --   1249.8384              1272.6082              1309.1905
 Red. masses --      2.3312                 1.4890                 2.6521
 Frc consts  --      2.1456                 1.4208                 2.6783
 IR Inten    --     13.8497                16.1937                18.2518

                     49                     50                     51
                      A                      A                      A
 Frequencies --   1348.0282              1365.5524              1393.5626
 Red. masses --      2.0563                 1.5322                 1.5050
 Frc consts  --      2.2016                 1.6834                 1.7220
 IR Inten    --    176.6597                53.7976                24.5156

                     52                     53                     54
                      A                      A                      A
 Frequencies --   1408.2423              1418.8367              1450.5043
 Red. masses --      4.2244                 3.8281                 1.2701
 Frc consts  --      4.9360                 4.5404                 1.5745
 IR Inten    --     42.8814               130.0041                 1.5528

                     55                     56                     57
                      A                      A                      A
 Frequencies --   1454.5215              1488.7997              1500.3816
 Red. masses --      6.0631                 1.0991                 1.3254
 Frc consts  --      7.5576                 1.4354                 1.7579
 IR Inten    --     16.1559                 2.2489                 4.8374

                     58                     59                     60
                      A                      A                      A
 Frequencies --   1504.0331              1504.8035              1524.4369
 Red. masses --      1.1495                 1.0539                 1.1163
 Frc consts  --      1.5321                 1.4060                 1.5284
 IR Inten    --     11.7244                 5.2214                16.3600

                     61                     62                     63
                      A                      A                      A
 Frequencies --   1534.8849              1563.5701              1605.0307
 Red. masses --      3.6300                 5.7782                 5.9733
 Frc consts  --      5.0386                 8.3229                 9.0664
 IR Inten    --    132.8955                23.4293                30.6837

                     64                     65                     66
                      A                      A                      A
 Frequencies --   1767.5502              3024.9745              3028.2403
 Red. masses --     12.2622                 1.0710                 1.0699
 Frc consts  --     22.5716                 5.7743                 5.7807
 IR Inten    --    320.9194                16.9687                 7.6934

                     67                     68                     69
                      A                      A                      A
 Frequencies --   3054.2381              3063.2557              3097.9068
 Red. masses --      1.0623                 1.0356                 1.0923
 Frc consts  --      5.8385                 5.7252                 6.1763
 IR Inten    --     32.6263                21.8936                27.3763

                     70                     71                     72
                      A                      A                      A
 Frequencies --   3101.4248              3118.8249              3128.0678
 Red. masses --      1.1016                 1.0934                 1.1010
 Frc consts  --      6.2428                 6.2663                 6.3474
 IR Inten    --     32.7755                18.2188                14.7021

                     73                     74                     75
                      A                      A                      A
 Frequencies --   3138.5028              3266.1752              3267.1680
 Red. masses --      1.1030                 1.0921                 1.0953
 Frc consts  --      6.4014                 6.8642                 6.8886
 IR Inten    --     21.0460                 0.6262                 2.6494

 - Thermochemistry -
 -------------------
 Temperature   298.150 Kelvin.  Pressure   1.00000 Atm.
 Atom     1 has atomic number  6 and mass  12.00000

 Molecular mass:   249.02821 amu.
 Principal axes and moments of inertia in atomic units:
                           1         2         3
     Eigenvalues --  1667.430277728.242879304.39847
           X            0.99999  -0.00381   0.00171
           Y            0.00380   0.99998   0.00522
           Z           -0.00173  -0.00522   0.99998
 This molecule is an asymmetric top.
 Rotational symmetry number  1.
 Warning -- assumption of classical behavior for rotation
           may cause significant error
 Rotational temperatures (Kelvin)      0.05194     0.01121     0.00931
 Rotational constants (GHZ):           1.08235     0.23353     0.19397
 Zero-point vibrational energy     540945.1 (Joules/Mol)
                                  129.28897 (Kcal/Mol)
 Warning -- explicit consideration of  22 degrees of freedom as
           vibrations may cause significant error
 Vibrational temperatures:     21.84    79.73   133.79   146.41   198.31
          (Kelvin)            265.08   274.67   304.20   328.95   376.65
                              410.99   444.20   444.87   607.98   616.05
                              662.73   682.62   771.56   797.15   809.63
                              830.15   884.12   921.28   974.46   984.15
                             1029.79  1052.73  1077.92  1155.69  1216.45
                             1245.95  1261.25  1281.52  1304.92  1346.54
                             1471.18  1492.95  1504.84  1554.82  1557.71
                             1569.05  1679.98  1694.68  1753.16  1761.99
                             1798.24  1831.00  1883.63  1939.51  1964.73
                             2005.03  2026.15  2041.39  2086.95  2092.73
                             2142.05  2158.71  2163.97  2165.08  2193.32
                             2208.36  2249.63  2309.28  2543.11  4352.26
                             4356.96  4394.37  4407.34  4457.20  4462.26
                             4487.29  4500.59  4515.61  4699.30  4700.73

 Zero-point correction=                           0.206035 (Hartree/Particle)
 Thermal correction to Energy=                    0.220126
 Thermal correction to Enthalpy=                  0.221071
 Thermal correction to Gibbs Free Energy=         0.163490
 Sum of electronic and zero-point Energies=          -1390.122023
 Sum of electronic and thermal Energies=             -1390.107932
 Sum of electronic and thermal Enthalpies=           -1390.106988
 Sum of electronic and thermal Free Energies=        -1390.164568

                     E (Thermal)             CV                S
                      KCal/Mol        Cal/Mol-Kelvin    Cal/Mol-Kelvin
 Total                  138.131             54.069            121.188
 Electronic               0.000              0.000              0.000
 Translational            0.889              2.981             42.438
 Rotational               0.889              2.981             33.150
 Vibrational            136.354             48.108             45.601
 Vibration     1          0.593              1.986              7.182
 Vibration     2          0.596              1.975              4.614
 Vibration     3          0.602              1.954              3.596
 Vibration     4          0.604              1.948              3.420
 Vibration     5          0.614              1.916              2.834
 Vibration     6          0.631              1.861              2.285
 Vibration     7          0.634              1.852              2.219
 Vibration     8          0.643              1.823              2.031
 Vibration     9          0.651              1.797              1.890
 Vibration    10          0.669              1.743              1.650
 Vibration    11          0.683              1.700              1.500
 Vibration    12          0.698              1.657              1.369
 Vibration    13          0.699              1.656              1.367
 Vibration    14          0.785              1.421              0.883
 Vibration    15          0.790              1.409              0.865
 Vibration    16          0.818              1.337              0.764
 Vibration    17          0.831              1.307              0.725
 Vibration    18          0.891              1.170              0.573
 Vibration    19          0.909              1.131              0.536
 Vibration    20          0.918              1.112              0.518
 Vibration    21          0.933              1.081              0.491
 Vibration    22          0.974              1.001              0.425

                           ! Non-Optimized Parameters !
 Normal termination of Gaussian 16 at Fri Dec 11 00:28:03 2020.

 ----------------------------------------------------------------------
 # B3LYP/6-311++G(d,p) empiricaldispersion=gd3bj scf=xqc pop=npa geom=c
 heck
 ----------------------------------------------------------------------

 --------------------------------------
 CID_80227971_JID_6857_Energie_neutraal
 --------------------------------------
 Structure from the checkpoint file:  "JID_6857.chk"
 Charge =  0 Multiplicity = 1

 SCF Done:  E(RB3LYP) =  -1390.53377718     A.U. after   16 cycles
 Normal termination of Gaussian 16 at Fri Dec 11 00:32:41 2020.

 ----------------------------------------------------------------------
 # B3LYP/6-311++G(d,p) empiricaldispersion=gd3bj scf=xqc pop=npa geom=c
 heck
 ----------------------------------------------------------------------

 ------------------------------------
 CID_80227971_JID_6857_Energie_kation
 ------------------------------------
 Structure from the checkpoint file:  "JID_6857.chk"
 Charge =  1 Multiplicity = 2

 SCF Done:  E(UB3LYP) =  -1390.24019300     A.U. after   30 cycles
 Normal termination of Gaussian 16 at Fri Dec 11 00:45:04 2020.
 Gaussian 16:  ES64L-G16RevA.03 25-Dec-2016

 ----------------------------------------------------------------------
 # B3LYP/6-311++G(d,p) empiricaldispersion=gd3bj scf=xqc pop=npa geom=c
 heck
 ----------------------------------------------------------------------

 -----------------------------------
 CID_80227971_JID_6857_Energie_anion
 -----------------------------------
 Structure from the checkpoint file:  "JID_6857.chk"
 Charge = -1 Multiplicity = 2

                         Standard orientation:
 ---------------------------------------------------------------------
 Center     Atomic      Atomic             Coordinates (Angstroms)
 Number     Number       Type             X           Y           Z
 ---------------------------------------------------------------------
      1          6           0        2.325934    2.503731    0.208745
      2          6           0        2.782168    1.078277    0.081260
      3          6           0        4.099493    0.714003    0.067712
      4         16           0        4.330228   -1.001435   -0.081463
      5          6           0        2.629736   -1.259112   -0.124314
      6          6           0        1.917174   -0.082301   -0.029004
      7          6           0        0.462494   -0.033020   -0.038144
      8          7           0       -0.239053    1.075854   -0.167115
      9          6           0       -1.580704    0.820824   -0.147880
     10          6           0       -1.935932   -0.504667   -0.004349
     11         16           0       -0.511656   -1.496475    0.135576
     12          6           0       -3.305412   -1.011498    0.011540
     13          8           0       -3.581264   -2.194104    0.155878
     14          6           0       -4.366868    0.065603   -0.212082
     15          6           0       -3.948657    1.446998    0.315819
     16          6           0       -2.607712    1.906630   -0.279121
     17          1           0        1.750985    2.816057   -0.667436
     18          1           0        1.663382    2.632258    1.070438
     19          1           0        3.187633    3.168111    0.325429
     20          1           0        4.957560    1.368310    0.141046
     21          1           0        2.235827   -2.260431   -0.233816
     22          1           0       -5.297430   -0.283111    0.244857
     23          1           0       -4.543657    0.120202   -1.297106
     24          1           0       -4.729045    2.182766    0.094456
     25          1           0       -3.854288    1.399172    1.408146
     26          1           0       -2.732298    2.158051   -1.343055
     27          1           0       -2.242625    2.814224    0.212918
 ---------------------------------------------------------------------

 SCF Done:  E(UB3LYP) =  -1390.56666265     A.U. after   25 cycles

 The electronic state is 2-A.
 Alpha  occ. eigenvalues --  -88.75272 -88.72219 -18.94482 -14.16308 -10.09796
 Alpha  occ. eigenvalues --  -10.08089 -10.07639 -10.06990 -10.06524 -10.06512
 Alpha  occ. eigenvalues --  -10.06139 -10.06093 -10.05750 -10.05569 -10.05357
 Alpha  occ. eigenvalues --  -10.04267  -7.83927  -7.80890  -5.80212  -5.79854
 Alpha  occ. eigenvalues --   -5.79548  -5.77178  -5.76839  -5.76487  -0.88331
 Alpha  occ. eigenvalues --   -0.81887  -0.76191  -0.70265  -0.65542  -0.64976
 Alpha  occ. eigenvalues --   -0.63415  -0.60078  -0.57252  -0.55831  -0.49304
 Alpha  occ. eigenvalues --   -0.48682  -0.44808  -0.43443  -0.39644  -0.38035
 Alpha  occ. eigenvalues --   -0.36437  -0.34434  -0.33279  -0.32041  -0.31133
 Alpha  occ. eigenvalues --   -0.30638  -0.29759  -0.28323  -0.28103  -0.27390
 Alpha  occ. eigenvalues --   -0.26762  -0.25544  -0.25384  -0.24723  -0.23426
 Alpha  occ. eigenvalues --   -0.22824  -0.22439  -0.21645  -0.20400  -0.15106
 Alpha  occ. eigenvalues --   -0.13804  -0.13669  -0.12407  -0.10227  -0.08865
 Alpha  occ. eigenvalues --    0.02227
 Alpha virt. eigenvalues --    0.07761   0.08063   0.09639   0.09693   0.10183
 Alpha virt. eigenvalues --    0.10300   0.10725   0.11475   0.12460   0.12479
 Alpha virt. eigenvalues --    0.12835   0.13357   0.13682   0.14037   0.14433

  Beta  occ. eigenvalues --  -88.75238 -88.72165 -18.94146 -14.16344 -10.09613
  Beta  occ. eigenvalues --  -10.07669 -10.07645 -10.06973 -10.06506 -10.06383
  Beta  occ. eigenvalues --  -10.06102 -10.05825 -10.05753 -10.05570 -10.05374
  Beta  occ. eigenvalues --  -10.04156  -7.83897  -7.80842  -5.80198  -5.79843
  Beta  occ. eigenvalues --   -5.79433  -5.77156  -5.76818  -5.76304  -0.87724
  Beta  occ. eigenvalues --   -0.81585  -0.76025  -0.70123  -0.65361  -0.64721
  Beta  occ. eigenvalues --   -0.63093  -0.59961  -0.56891  -0.55724  -0.48940
  Beta  occ. eigenvalues --   -0.48300  -0.44633  -0.43072  -0.39425  -0.37865
  Beta  occ. eigenvalues --   -0.36287  -0.34324  -0.33064  -0.31883  -0.30932
  Beta  occ. eigenvalues --   -0.30419  -0.29681  -0.27935  -0.27534  -0.27096
  Beta  occ. eigenvalues --   -0.26497  -0.25350  -0.24863  -0.24627  -0.22944
  Beta  occ. eigenvalues --   -0.22666  -0.22296  -0.20535  -0.20141  -0.14118
  Beta  occ. eigenvalues --   -0.13705  -0.12854  -0.11762  -0.09938  -0.07389
  Beta virt. eigenvalues --    0.07727   0.07853   0.08056   0.09642   0.10149
  Beta virt. eigenvalues --    0.10276   0.10720   0.10835   0.11482   0.12507
  Beta virt. eigenvalues --    0.12976   0.13076   0.13425   0.13687   0.14334

 Mulliken charges and spin densities:
               1          2
     1  C   -0.904083  -0.004293
     2  C   -0.018783   0.004526
     3  C    0.352083  -0.009611
     4  S   -0.619659   0.051761
     5  C    0.329327   0.300795
     6  C   -0.158773  -0.059137
     7  C    0.109374   0.234885
     8  N    0.153057  -0.027237
     9  C   -0.369005   0.090834
    10  C    1.128879   0.072314
    11  S   -0.619913   0.096593
    12  C   -0.601281   0.118502
    13  O   -0.401390   0.121198
    14  C   -0.094010  -0.003270
    15  C   -0.173720   0.012855
    16  C   -0.795754  -0.006359
    17  H    0.159214   0.000416
    18  H    0.167427   0.000300
    19  H    0.093149  -0.000133
    20  H    0.219696   0.002033
    21  H    0.246184  -0.020369
    22  H    0.152284   0.002495
    23  H    0.117552   0.015368
    24  H    0.127363   0.003562
    25  H    0.116668  -0.001708
    26  H    0.148658   0.002574
    27  H    0.135455   0.001107
 Sum of Mulliken charges =  -1.00000   1.00000

 Dipole moment (field-independent basis, Debye):
    X=              2.1270    Y=              5.0685    Z=             -0.1917  Tot=              5.5000
 Quadrupole moment (field-independent basis, Debye-Ang):
   XX=           -157.1253   YY=           -129.7337   ZZ=           -116.6595
   XY=            -13.0764   XZ=              1.8908   YZ=              1.8670

 Summary of Natural Population Analysis:

                                       Natural Population
                Natural  -----------------------------------------------
    Atom  No    Charge         Core      Valence    Rydberg      Total
 -----------------------------------------------------------------------
      C    1   -0.29029      0.99963     2.28583    0.00482     3.29029
      C    2   -0.01862      0.99947     2.00994    0.00922     3.01862
      C    3   -0.21884      0.99946     2.20822    0.01116     3.21884
      S    4    0.19408      4.99947     2.77953    0.02692     7.80592
      C    5   -0.09863      0.99944     2.08863    0.01056     3.09863
      C    6   -0.08448      0.99935     2.07493    0.01019     3.08448
      C    7    0.12059      0.99956     1.86263    0.01722     2.87941
      N    8   -0.27633      0.99964     2.76339    0.01329     3.77633
      C    9    0.11306      0.99944     1.87425    0.01325     2.88694
      C   10   -0.15226      0.99935     2.14062    0.01229     3.15226
      S   11    0.21434      4.99944     2.76732    0.01890     7.78566
      C   12    0.27882      0.99956     1.69936    0.02225     2.72118
      O   13   -0.27609      0.99988     3.26854    0.00768     4.27609
      C   14   -0.22573      0.99961     2.21812    0.00800     3.22573
      C   15   -0.18391      0.99965     2.17755    0.00671     3.18391
      C   16   -0.19890      0.99960     2.19156    0.00774     3.19890
      H   17    0.11193      0.00000     0.38702    0.00105     0.38807
      H   18    0.10916      0.00000     0.38971    0.00112     0.39084
      H   19    0.08978      0.00000     0.40919    0.00103     0.41022
      H   20    0.10113      0.00000     0.39784    0.00103     0.39887
      H   21    0.10591      0.00000     0.39260    0.00149     0.39409
      H   22    0.10228      0.00000     0.39619    0.00153     0.39772
      H   23    0.10040      0.00000     0.39831    0.00129     0.39960
      H   24    0.08960      0.00000     0.40901    0.00138     0.41040
      H   25    0.09369      0.00000     0.40493    0.00138     0.40631
      H   26    0.09750      0.00000     0.40119    0.00131     0.40250
      H   27    0.10222      0.00000     0.39642    0.00136     0.39778
 =======================================================================
   * Total *    0.00042     23.99255    40.79286    0.21416    64.99958

 Normal termination of Gaussian 16 at Fri Dec 11 00:55:25 2020.
