 Gaussian 16, Revision A.03,

 -----------------------------------------------------------
 # opt freq B3LYP/6-31G(d) empiricaldispersion=gd3bj scf=xqc
 -----------------------------------------------------------

 -------------------------------
 CID_151840743_JID_3284_neutraal
 -------------------------------
 Symbolic Z-matrix:
 Charge =  0 Multiplicity = 1

 SCF Done:  E(RB3LYP) =  -659.367653823     A.U. after   18 cycles
 SCF Done:  E(RB3LYP) =  -659.376351918     A.U. after   16 cycles
 SCF Done:  E(RB3LYP) =  -659.380264446     A.U. after   15 cycles
 SCF Done:  E(RB3LYP) =  -659.379307230     A.U. after   15 cycles
 SCF Done:  E(RB3LYP) =  -659.381280446     A.U. after   15 cycles
 SCF Done:  E(RB3LYP) =  -659.383827653     A.U. after   14 cycles
 SCF Done:  E(RB3LYP) =  -659.385324269     A.U. after   16 cycles
 SCF Done:  E(RB3LYP) =  -659.386695813     A.U. after   17 cycles
 SCF Done:  E(RB3LYP) =  -659.387317518     A.U. after   16 cycles
 SCF Done:  E(RB3LYP) =  -659.387744606     A.U. after   16 cycles
 SCF Done:  E(RB3LYP) =  -659.390218410     A.U. after   12 cycles
 SCF Done:  E(RB3LYP) =  -659.390220669     A.U. after   10 cycles
 SCF Done:  E(RB3LYP) =  -659.390221618     A.U. after    9 cycles
 SCF Done:  E(RB3LYP) =  -659.390222359     A.U. after    9 cycles
 SCF Done:  E(RB3LYP) =  -659.390222670     A.U. after    9 cycles
 SCF Done:  E(RB3LYP) =  -659.390222753     A.U. after    8 cycles
 Optimization completed.
    -- Stationary point found.
 Normal termination of Gaussian 16 at Wed Dec  9 22:58:24 2020.

 --------------------------------------------------------------------
 #N Geom=AllCheck Guess=TCheck SCRF=Check GenChk RB3LYP/6-31G(d) Freq
 --------------------------------------------------------------------

 Structure from the checkpoint file:  "JID_3284.chk"
 -------------------------------
 CID_151840743_JID_3284_neutraal
 -------------------------------
 Charge =  0 Multiplicity = 1

 SCF Done:  E(RB3LYP) =  -659.390222753     A.U. after    1 cycles

  Exact polarizability:  99.808 -12.725 119.153  -0.495   6.805  84.261
 Approx polarizability: 139.392 -43.280 211.196  -4.201  13.473 122.745

                      1                      2                      3
                      A                      A                      A
 Frequencies --     29.1114                40.0623                46.9606
 Red. masses --      8.3783                 5.4780                 7.5578
 Frc consts  --      0.0042                 0.0052                 0.0098
 IR Inten    --      0.1515                 0.9408                 0.9580

                      4                      5                      6
                      A                      A                      A
 Frequencies --     57.3286                78.0250               107.8943
 Red. masses --      8.0938                 3.0957                 3.6135
 Frc consts  --      0.0157                 0.0111                 0.0248
 IR Inten    --      2.9819                 0.1410                 6.8667

                      7                      8                      9
                      A                      A                      A
 Frequencies --    149.2094               182.8228               214.0347
 Red. masses --      3.1761                 3.2382                 1.3854
 Frc consts  --      0.0417                 0.0638                 0.0374
 IR Inten    --      6.9844                 2.3373                 1.6879

                     10                     11                     12
                      A                      A                      A
 Frequencies --    227.3562               236.0577               245.0724
 Red. masses --      2.2121                 2.4570                 1.2948
 Frc consts  --      0.0674                 0.0807                 0.0458
 IR Inten    --      1.0833                 5.6429                 1.0881

                     13                     14                     15
                      A                      A                      A
 Frequencies --    284.4992               336.8471               367.4058
 Red. masses --      4.4270                 4.1428                 3.5797
 Frc consts  --      0.2111                 0.2770                 0.2847
 IR Inten    --      2.6052                 0.1755                 2.4271

                     16                     17                     18
                      A                      A                      A
 Frequencies --    430.3197               453.4766               508.5681
 Red. masses --      6.4451                 3.9731                 3.3134
 Frc consts  --      0.7032                 0.4814                 0.5049
 IR Inten    --      2.7739                 8.9625                17.9499

                     19                     20                     21
                      A                      A                      A
 Frequencies --    545.9635               561.2362               582.1976
 Red. masses --      3.7281                 3.4890                 1.7117
 Frc consts  --      0.6547                 0.6475                 0.3418
 IR Inten    --     28.1196                36.7366                51.9955

                     22                     23                     24
                      A                      A                      A
 Frequencies --    624.8196               671.1662               740.3381
 Red. masses --      6.6804                 4.0091                 4.3339
 Frc consts  --      1.5366                 1.0640                 1.3995
 IR Inten    --     10.1699                16.3244                24.9590

                     25                     26                     27
                      A                      A                      A
 Frequencies --    818.7550               826.8112               841.1462
 Red. masses --      1.3541                 2.6883                 5.3523
 Frc consts  --      0.5348                 1.0828                 2.2312
 IR Inten    --      0.7367                 1.6347                 9.2991

                     28                     29                     30
                      A                      A                      A
 Frequencies --    908.4653               997.4367              1014.4586
 Red. masses --      2.9676                 2.4030                 2.1620
 Frc consts  --      1.4430                 1.4085                 1.3109
 IR Inten    --     19.2542                12.2589                24.5280

                     31                     32                     33
                      A                      A                      A
 Frequencies --   1055.8262              1092.5673              1106.6483
 Red. masses --      2.8157                 2.1145                 3.0268
 Frc consts  --      1.8493                 1.4871                 2.1840
 IR Inten    --     29.8990                18.9409                17.1778

                     34                     35                     36
                      A                      A                      A
 Frequencies --   1119.2881              1167.1148              1210.1997
 Red. masses --      1.8034                 1.7201                 3.7967
 Frc consts  --      1.3312                 1.3805                 3.2762
 IR Inten    --     13.3035                17.5485                68.3486

                     37                     38                     39
                      A                      A                      A
 Frequencies --   1219.7771              1240.0944              1267.0762
 Red. masses --      2.3982                 3.7657                 1.4801
 Frc consts  --      2.1023                 3.4120                 1.4001
 IR Inten    --     21.7725                37.1566                40.1863

                     40                     41                     42
                      A                      A                      A
 Frequencies --   1291.9707              1338.0328              1373.5243
 Red. masses --      1.2631                 1.4200                 1.2709
 Frc consts  --      1.2422                 1.4978                 1.4126
 IR Inten    --      4.2860                45.8262                18.8829

                     43                     44                     45
                      A                      A                      A
 Frequencies --   1390.2978              1434.1531              1441.2493
 Red. masses --      2.2740                 1.2152                 1.2282
 Frc consts  --      2.5897                 1.4726                 1.5031
 IR Inten    --    121.8276                 3.1365                11.4424

                     46                     47                     48
                      A                      A                      A
 Frequencies --   1474.8019              1500.2733              1506.0520
 Red. masses --      1.1669                 1.5768                 1.0583
 Frc consts  --      1.4954                 2.0910                 1.4143
 IR Inten    --      3.2279                57.6772                 9.5829

                     49                     50                     51
                      A                      A                      A
 Frequencies --   1523.0500              1529.6017              1535.6696
 Red. masses --      1.0459                 1.0597                 1.0494
 Frc consts  --      1.4294                 1.4609                 1.4581
 IR Inten    --      3.5268                 2.6154                 3.9611

                     52                     53                     54
                      A                      A                      A
 Frequencies --   1540.1159              1807.9221              1836.4109
 Red. masses --      1.0797                 8.4625                10.3705
 Frc consts  --      1.5089                16.2971                20.6058
 IR Inten    --     16.0011               299.1596               157.9358

                     55                     56                     57
                      A                      A                      A
 Frequencies --   2237.3056              2924.4597              3049.4552
 Red. masses --     13.9422                 1.0861                 1.0374
 Frc consts  --     41.1181                 5.4731                 5.6841
 IR Inten    --    398.3544                83.4585                29.9517

                     58                     59                     60
                      A                      A                      A
 Frequencies --   3056.8506              3082.8677              3110.8855
 Red. masses --      1.0356                 1.0627                 1.0854
 Frc consts  --      5.7015                 5.9510                 6.1888
 IR Inten    --     19.2079                 8.5659                 9.5801

                     61                     62                     63
                      A                      A                      A
 Frequencies --   3117.2293              3124.5922              3134.1833
 Red. masses --      1.1015                 1.0982                 1.1020
 Frc consts  --      6.3062                 6.3170                 6.3778
 IR Inten    --     15.6572                16.8240                19.7940

                     64                     65                     66
                      A                      A                      A
 Frequencies --   3143.7190              3155.8590              3574.0061
 Red. masses --      1.1040                 1.1047                 1.0756
 Frc consts  --      6.4285                 6.4824                 8.0947
 IR Inten    --     28.2866                16.7192                18.0726

 - Thermochemistry -
 -------------------
 Temperature   298.150 Kelvin.  Pressure   1.00000 Atm.
 Atom     1 has atomic number  6 and mass  12.00000

 Molecular mass:   185.09127 amu.
 Principal axes and moments of inertia in atomic units:
                           1         2         3
     Eigenvalues --  2097.851952695.388593714.37843
           X            0.99898   0.04348   0.01181
           Y           -0.04377   0.99873   0.02508
           Z           -0.01071  -0.02558   0.99962
 This molecule is an asymmetric top.
 Rotational symmetry number  1.
 Warning -- assumption of classical behavior for rotation
           may cause significant error
 Rotational temperatures (Kelvin)      0.04129     0.03213     0.02332
 Rotational constants (GHZ):           0.86028     0.66957     0.48588
 Zero-point vibrational energy     495499.1 (Joules/Mol)
                                  118.42712 (Kcal/Mol)
 Warning -- explicit consideration of  21 degrees of freedom as
           vibrations may cause significant error
 Vibrational temperatures:     41.88    57.64    67.57    82.48   112.26
          (Kelvin)            155.24   214.68   263.04   307.95   327.11
                              339.63   352.60   409.33   484.65   528.62
                              619.13   652.45   731.72   785.52   807.49
                              837.65   898.98   965.66  1065.18  1178.01
                             1189.60  1210.22  1307.08  1435.09  1459.58
                             1519.10  1571.96  1592.22  1610.41  1679.22
                             1741.21  1754.99  1784.22  1823.04  1858.86
                             1925.13  1976.20  2000.33  2063.43  2073.64
                             2121.91  2158.56  2166.87  2191.33  2200.76
                             2209.49  2215.88  2601.20  2642.19  3218.98
                             4207.65  4387.49  4398.13  4435.56  4475.87
                             4485.00  4495.59  4509.39  4523.11  4540.58
                             5142.20

 Zero-point correction=                           0.188726 (Hartree/Particle)
 Thermal correction to Energy=                    0.203176
 Thermal correction to Enthalpy=                  0.204120
 Thermal correction to Gibbs Free Energy=         0.145422
 Sum of electronic and zero-point Energies=           -659.201497
 Sum of electronic and thermal Energies=              -659.187047
 Sum of electronic and thermal Enthalpies=            -659.186103
 Sum of electronic and thermal Free Energies=         -659.244800

                     E (Thermal)             CV                S
                      KCal/Mol        Cal/Mol-Kelvin    Cal/Mol-Kelvin
 Total                  127.495             49.909            123.539
 Electronic               0.000              0.000              0.000
 Translational            0.889              2.981             41.553
 Rotational               0.889              2.981             31.419
 Vibrational            125.717             43.947             50.567
 Vibration     1          0.593              1.984              5.889
 Vibration     2          0.594              1.981              5.256
 Vibration     3          0.595              1.979              4.941
 Vibration     4          0.596              1.975              4.547
 Vibration     5          0.599              1.964              3.940
 Vibration     6          0.606              1.943              3.306
 Vibration     7          0.618              1.904              2.682
 Vibration     8          0.630              1.863              2.299
 Vibration     9          0.644              1.820              2.009
 Vibration    10          0.651              1.799              1.900
 Vibration    11          0.655              1.786              1.832
 Vibration    12          0.660              1.771              1.766
 Vibration    13          0.683              1.702              1.506
 Vibration    14          0.718              1.602              1.227
 Vibration    15          0.740              1.539              1.091
 Vibration    16          0.792              1.404              0.858
 Vibration    17          0.812              1.353              0.785
 Vibration    18          0.864              1.231              0.637
 Vibration    19          0.901              1.149              0.553
 Vibration    20          0.917              1.115              0.521
 Vibration    21          0.939              1.070              0.481

 Optimization completed.
    -- Stationary point found.
 Normal termination of Gaussian 16 at Wed Dec  9 23:04:28 2020.

 ----------------------------------------------------------------------
 # B3LYP/6-311++G(d,p) empiricaldispersion=gd3bj scf=xqc pop=npa geom=c
 heck
 ----------------------------------------------------------------------

 ---------------------------------------
 CID_151840743_JID_3284_Energie_neutraal
 ---------------------------------------
 Structure from the checkpoint file:  "JID_3284.chk"
 Charge =  0 Multiplicity = 1

 SCF Done:  E(RB3LYP) =  -659.587092840     A.U. after   16 cycles
 Normal termination of Gaussian 16 at Wed Dec  9 23:06:37 2020.

 ----------------------------------------------------------------------
 # B3LYP/6-311++G(d,p) empiricaldispersion=gd3bj scf=xqc pop=npa geom=c
 heck
 ----------------------------------------------------------------------

 -------------------------------------
 CID_151840743_JID_3284_Energie_kation
 -------------------------------------
 Structure from the checkpoint file:  "JID_3284.chk"
 Charge =  1 Multiplicity = 2

 SCF Done:  E(UB3LYP) =  -659.261282770     A.U. after   29 cycles
 Normal termination of Gaussian 16 at Wed Dec  9 23:11:53 2020.
 Gaussian 16:  ES64L-G16RevA.03 25-Dec-2016

 ----------------------------------------------------------------------
 # B3LYP/6-311++G(d,p) empiricaldispersion=gd3bj scf=xqc pop=npa geom=c
 heck
 ----------------------------------------------------------------------

 ------------------------------------
 CID_151840743_JID_3284_Energie_anion
 ------------------------------------
 Structure from the checkpoint file:  "JID_3284.chk"
 Charge = -1 Multiplicity = 2

                         Standard orientation:
 ---------------------------------------------------------------------
 Center     Atomic      Atomic             Coordinates (Angstroms)
 Number     Number       Type             X           Y           Z
 ---------------------------------------------------------------------
      1          6           0        2.990577    1.388692    0.876654
      2          6           0        2.273215    0.029464    0.944226
      3          6           0        1.830932   -0.431014   -0.434537
      4          8           0        2.488128   -1.195303   -1.121489
      5          7           0        0.656840    0.113962   -0.932608
      6          6           0       -0.339279    0.837420   -0.197955
      7          6           0       -1.278383    1.539642   -1.184202
      8          8           0       -1.886904    2.543217   -0.896330
      9          7           0       -1.077557   -0.047428    0.739346
     10          6           0       -2.016946    0.660110    1.615270
     11          7           0       -1.837272   -1.015710   -0.052896
     12          7           0       -1.320952   -2.152182    0.050121
     13          7           0       -0.973714   -3.235366    0.041237
     14          1           0        3.847434    1.333727    0.197988
     15          1           0        3.355877    1.678718    1.866806
     16          1           0        2.328854    2.183973    0.515388
     17          1           0        2.961756   -0.734959    1.312104
     18          1           0        1.418605    0.069832    1.627171
     19          1           0        0.393277   -0.268906   -1.834010
     20          1           0        0.114326    1.609426    0.428949
     21          1           0       -1.403056    1.046138   -2.172405
     22          1           0       -2.842634    1.141829    1.076998
     23          1           0       -2.421548   -0.057475    2.332178
     24          1           0       -1.454790    1.425584    2.158253
 ---------------------------------------------------------------------

 SCF Done:  E(UB3LYP) =  -659.604512121     A.U. after   28 cycles

 The electronic state is 2-A.
 Alpha  occ. eigenvalues --  -18.96999 -18.95571 -14.30167 -14.22155 -14.21440
 Alpha  occ. eigenvalues --  -14.21333 -14.21143 -10.15212 -10.11094 -10.08681
 Alpha  occ. eigenvalues --  -10.07185 -10.06978 -10.06848  -0.98145  -0.92271
 Alpha  occ. eigenvalues --   -0.89627  -0.86026  -0.80338  -0.73830  -0.67404
 Alpha  occ. eigenvalues --   -0.59890  -0.55130  -0.53701  -0.47907  -0.44106
 Alpha  occ. eigenvalues --   -0.41379  -0.37679  -0.37283  -0.36927  -0.35716
 Alpha  occ. eigenvalues --   -0.33835  -0.32766  -0.32171  -0.30988  -0.30162
 Alpha  occ. eigenvalues --   -0.29138  -0.28438  -0.28151  -0.27644  -0.26375
 Alpha  occ. eigenvalues --   -0.25173  -0.24821  -0.23911  -0.20389  -0.14984
 Alpha  occ. eigenvalues --   -0.14310  -0.12903  -0.11165  -0.08593   0.04580
 Alpha virt. eigenvalues --    0.07242   0.08902   0.09504   0.10548   0.10887
 Alpha virt. eigenvalues --    0.11604   0.12385   0.12992   0.13195   0.13804
 Alpha virt. eigenvalues --    0.14701   0.15529   0.15720   0.16136   0.16468

  Beta  occ. eigenvalues --  -18.96928 -18.95073 -14.29834 -14.22250 -14.21348
  Beta  occ. eigenvalues --  -14.20925 -14.20899 -10.15152 -10.11113 -10.08328
  Beta  occ. eigenvalues --  -10.07173 -10.06976 -10.06848  -0.97446  -0.92144
  Beta  occ. eigenvalues --   -0.88754  -0.85621  -0.80225  -0.73470  -0.67368
  Beta  occ. eigenvalues --   -0.59665  -0.55052  -0.53348  -0.47591  -0.43522
  Beta  occ. eigenvalues --   -0.41215  -0.37513  -0.36929  -0.36734  -0.34381
  Beta  occ. eigenvalues --   -0.33744  -0.32504  -0.31902  -0.30274  -0.29873
  Beta  occ. eigenvalues --   -0.28781  -0.28207  -0.27689  -0.27303  -0.26306
  Beta  occ. eigenvalues --   -0.25132  -0.24606  -0.21666  -0.19217  -0.14816
  Beta  occ. eigenvalues --   -0.14207  -0.12545  -0.11010  -0.08228
  Beta virt. eigenvalues --    0.07243   0.09382   0.10270   0.10618   0.11070
  Beta virt. eigenvalues --    0.11597   0.11905   0.12913   0.13250   0.13625
  Beta virt. eigenvalues --    0.14167   0.14675   0.15468   0.15914   0.16317

 Mulliken charges and spin densities:
               1          2
     1  C   -0.315601  -0.127337
     2  C   -0.199417   0.051369
     3  C   -0.039799  -0.009283
     4  O   -0.351281   0.024315
     5  N   -0.058275  -0.014865
     6  C   -0.839360   0.092374
     7  C    0.002916   0.324190
     8  O   -0.309975   0.144235
     9  N    0.396666  -0.102657
    10  C   -0.313473  -0.037188
    11  N   -0.778025   0.347100
    12  N    0.568226  -0.102281
    13  N   -0.232303   0.195035
    14  H    0.146405   0.001539
    15  H    0.027514   0.093996
    16  H    0.134768   0.000349
    17  H    0.177168   0.020465
    18  H    0.136764   0.037882
    19  H    0.287124  -0.005871
    20  H    0.143601   0.049106
    21  H    0.045877  -0.013536
    22  H    0.168381  -0.005390
    23  H    0.126154   0.010759
    24  H    0.075947   0.025692
 Sum of Mulliken charges =  -1.00000   1.00000

 Dipole moment (field-independent basis, Debye):
    X=              2.3690    Y=              2.2918    Z=              2.9972  Tot=              4.4551
 Quadrupole moment (field-independent basis, Debye-Ang):
   XX=           -107.7420   YY=           -118.7162   ZZ=            -86.2094
   XY=              9.8357   XZ=              0.5943   YZ=              2.1190

 Summary of Natural Population Analysis:

                                       Natural Population
                Natural  -----------------------------------------------
    Atom  No    Charge         Core      Valence    Rydberg      Total
 -----------------------------------------------------------------------
      C    1   -0.28220      0.99966     2.27823    0.00431     3.28220
      C    2   -0.23981      0.99960     2.23083    0.00939     3.23981
      C    3    0.35816      0.99968     1.61904    0.02311     2.64184
      O    4   -0.31714      0.99987     3.31132    0.00595     4.31714
      N    5   -0.32800      0.99966     2.81625    0.01209     3.82800
      C    6    0.03514      0.99957     1.94747    0.01782     2.96486
      C    7    0.26023      0.99972     1.71928    0.02076     2.73977
      O    8   -0.24376      0.99988     3.23613    0.00776     4.24376
      N    9   -0.17795      0.99972     2.66495    0.01328     3.67795
      C   10   -0.17982      0.99964     2.17198    0.00820     3.17982
      N   11   -0.16451      0.99972     2.64893    0.01586     3.66451
      N   12    0.13779      0.99971     2.34684    0.01567     3.36221
      N   13    0.02361      0.99982     2.46256    0.01401     3.47639
      H   14    0.09831      0.00000     0.40068    0.00101     0.40169
      H   15    0.09424      0.00000     0.40439    0.00137     0.40576
      H   16    0.09889      0.00000     0.40018    0.00093     0.40111
      H   17    0.10602      0.00000     0.39270    0.00129     0.39398
      H   18    0.11172      0.00000     0.38635    0.00193     0.38828
      H   19    0.19533      0.00000     0.30279    0.00188     0.30467
      H   20    0.09790      0.00000     0.39977    0.00233     0.40210
      H   21    0.03754      0.00000     0.46006    0.00241     0.46246
      H   22    0.09528      0.00000     0.40264    0.00207     0.40472
      H   23    0.09205      0.00000     0.40678    0.00117     0.40795
      H   24    0.09100      0.00000     0.40799    0.00100     0.40900
 =======================================================================
   * Total *    0.00000     12.99625    35.81815    0.18560    49.00000

 Normal termination of Gaussian 16 at Wed Dec  9 23:16:56 2020.
