 Gaussian 16, Revision A.03,

 -----------------------------------------------------------
 # opt freq B3LYP/6-31G(d) empiricaldispersion=gd3bj scf=xqc
 -----------------------------------------------------------

 -------------------------------
 CID_116260952_JID_3062_neutraal
 -------------------------------
 Symbolic Z-matrix:
 Charge =  0 Multiplicity = 1

 SCF Done:  E(RB3LYP) =  -972.634254712     A.U. after   15 cycles
 SCF Done:  E(RB3LYP) =  -972.637963280     A.U. after   13 cycles
 SCF Done:  E(RB3LYP) =  -972.638584197     A.U. after   13 cycles
 SCF Done:  E(RB3LYP) =  -972.639254392     A.U. after   13 cycles
 SCF Done:  E(RB3LYP) =  -972.641400227     A.U. after   13 cycles
 SCF Done:  E(RB3LYP) =  -972.641463204     A.U. after   12 cycles
 SCF Done:  E(RB3LYP) =  -972.641632006     A.U. after   11 cycles
 SCF Done:  E(RB3LYP) =  -972.641761871     A.U. after   12 cycles
 SCF Done:  E(RB3LYP) =  -972.641825374     A.U. after   11 cycles
 SCF Done:  E(RB3LYP) =  -972.641834380     A.U. after   11 cycles
 SCF Done:  E(RB3LYP) =  -972.641835563     A.U. after    8 cycles
 SCF Done:  E(RB3LYP) =  -972.641835421     A.U. after    7 cycles
 Optimization completed.
    -- Stationary point found.
 Normal termination of Gaussian 16 at Wed Dec  9 22:22:59 2020.

 --------------------------------------------------------------------
 #N Geom=AllCheck Guess=TCheck SCRF=Check GenChk RB3LYP/6-31G(d) Freq
 --------------------------------------------------------------------

 Structure from the checkpoint file:  "JID_3062.chk"
 -------------------------------
 CID_116260952_JID_3062_neutraal
 -------------------------------
 Charge =  0 Multiplicity = 1

 SCF Done:  E(RB3LYP) =  -972.641835421     A.U. after    1 cycles

  Exact polarizability: 134.703  -0.077 113.255   5.930   3.561 103.424
 Approx polarizability: 176.396   0.488 171.087  18.370  11.100 172.174

                      1                      2                      3
                      A                      A                      A
 Frequencies --     31.9892                55.9878                80.4782
 Red. masses --      4.6989                 4.6273                 4.6244
 Frc consts  --      0.0028                 0.0085                 0.0176
 IR Inten    --      1.1672                 3.1723                 0.6863

                      4                      5                      6
                      A                      A                      A
 Frequencies --     95.5411               127.6752               148.6922
 Red. masses --      3.4035                 2.6974                 4.7067
 Frc consts  --      0.0183                 0.0259                 0.0613
 IR Inten    --      0.3633                 0.8095                13.2571

                      7                      8                      9
                      A                      A                      A
 Frequencies --    153.5400               195.3879               205.8713
 Red. masses --      1.9702                 2.2120                 3.2534
 Frc consts  --      0.0274                 0.0498                 0.0812
 IR Inten    --      2.8782                 1.0129                 3.3198

                     10                     11                     12
                      A                      A                      A
 Frequencies --    233.8505               280.7567               286.6913
 Red. masses --      1.9171                 1.5097                 2.9524
 Frc consts  --      0.0618                 0.0701                 0.1430
 IR Inten    --      5.0426                16.3748                 7.0477

                     13                     14                     15
                      A                      A                      A
 Frequencies --    301.1417               330.7601               362.1078
 Red. masses --      1.6010                 3.0819                 4.2474
 Frc consts  --      0.0855                 0.1987                 0.3281
 IR Inten    --     23.9774                17.7211                 0.9657

                     16                     17                     18
                      A                      A                      A
 Frequencies --    371.5389               459.1719               492.3044
 Red. masses --      2.7802                 2.1618                 3.0467
 Frc consts  --      0.2261                 0.2685                 0.4351
 IR Inten    --     16.3852                 7.6894                 1.5083

                     19                     20                     21
                      A                      A                      A
 Frequencies --    515.9101               536.3668               590.5947
 Red. masses --      3.2661                 3.3373                 4.1499
 Frc consts  --      0.5122                 0.5657                 0.8528
 IR Inten    --      5.4231                 7.6683                 7.5876

                     22                     23                     24
                      A                      A                      A
 Frequencies --    605.8824               654.8668               674.9638
 Red. masses --      3.3619                 4.8766                 4.1814
 Frc consts  --      0.7271                 1.2322                 1.1224
 IR Inten    --      4.7849                 6.0064                17.2716

                     25                     26                     27
                      A                      A                      A
 Frequencies --    770.8558               806.1984               862.2881
 Red. masses --      2.8351                 1.2098                 1.8331
 Frc consts  --      0.9926                 0.4633                 0.8031
 IR Inten    --      3.5151                20.6625               104.4197

                     28                     29                     30
                      A                      A                      A
 Frequencies --    886.0212               897.3225               923.3098
 Red. masses --      1.8286                 2.1549                 1.4863
 Frc consts  --      0.8458                 1.0223                 0.7465
 IR Inten    --     43.4154                47.0985                 7.1113

                     31                     32                     33
                      A                      A                      A
 Frequencies --    958.1857              1000.5325              1011.4199
 Red. masses --      1.7901                 1.8879                 3.5566
 Frc consts  --      0.9683                 1.1135                 2.1436
 IR Inten    --     15.8967                 1.0199                 8.6918

                     34                     35                     36
                      A                      A                      A
 Frequencies --   1036.9787              1062.6041              1065.9803
 Red. masses --      1.5135                 3.1938                 4.4533
 Frc consts  --      0.9589                 2.1247                 2.9815
 IR Inten    --      3.9090                16.6930                91.5307

                     37                     38                     39
                      A                      A                      A
 Frequencies --   1077.3370              1084.1091              1111.7816
 Red. masses --      1.6587                 2.2293                 2.3608
 Frc consts  --      1.1343                 1.5437                 1.7193
 IR Inten    --      3.7639                21.0062                 4.0668

                     40                     41                     42
                      A                      A                      A
 Frequencies --   1151.0318              1157.6959              1171.1183
 Red. masses --      1.2766                 1.4199                 2.2449
 Frc consts  --      0.9965                 1.1213                 1.8140
 IR Inten    --      3.5990                 3.6748                22.8911

                     43                     44                     45
                      A                      A                      A
 Frequencies --   1209.2444              1251.6252              1278.5634
 Red. masses --      1.2488                 1.5061                 1.3025
 Frc consts  --      1.0759                 1.3901                 1.2545
 IR Inten    --     20.9050                53.0778                 9.0768

                     46                     47                     48
                      A                      A                      A
 Frequencies --   1279.3138              1282.4029              1307.0061
 Red. masses --      1.3589                 1.6845                 1.4897
 Frc consts  --      1.3103                 1.6322                 1.4993
 IR Inten    --      2.1961                35.1290                 5.6254

                     49                     50                     51
                      A                      A                      A
 Frequencies --   1329.0752              1330.9778              1345.2407
 Red. masses --      1.5816                 1.4330                 1.4964
 Frc consts  --      1.6461                 1.4957                 1.5956
 IR Inten    --     28.9091                 9.8531                26.5369

                     52                     53                     54
                      A                      A                      A
 Frequencies --   1365.6022              1403.0833              1435.6026
 Red. masses --      1.3814                 1.3429                 1.2253
 Frc consts  --      1.5178                 1.5576                 1.4878
 IR Inten    --     31.6348                10.1058                 3.7858

                     55                     56                     57
                      A                      A                      A
 Frequencies --   1438.9560              1465.6388              1479.9844
 Red. masses --      1.5411                 1.9500                 1.1622
 Frc consts  --      1.8801                 2.4679                 1.4999
 IR Inten    --     35.6139                67.0596                 2.8395

                     58                     59                     60
                      A                      A                      A
 Frequencies --   1496.2790              1519.2497              1524.9437
 Red. masses --      1.1029                 1.0816                 1.0486
 Frc consts  --      1.4549                 1.4709                 1.4368
 IR Inten    --      5.1966                 8.3288                10.6555

                     61                     62                     63
                      A                      A                      A
 Frequencies --   1528.1279              1535.7375              1554.1249
 Red. masses --      1.0714                 1.0456                 1.1135
 Frc consts  --      1.4741                 1.4529                 1.5846
 IR Inten    --     15.6522                 5.8603                 9.2312

                     64                     65                     66
                      A                      A                      A
 Frequencies --   1696.1527              1805.6612              2985.0090
 Red. masses --      1.0947                11.4380                 1.0709
 Frc consts  --      1.8556                21.9721                 5.6218
 IR Inten    --     27.9166               293.9623                62.0084

                     67                     68                     69
                      A                      A                      A
 Frequencies --   3035.7908              3044.5927              3055.1204
 Red. masses --      1.0688                 1.0745                 1.0374
 Frc consts  --      5.8035                 5.8682                 5.7052
 IR Inten    --     39.2766                 6.0051                17.0026

                     70                     71                     72
                      A                      A                      A
 Frequencies --   3057.9855              3075.0190              3079.0655
 Red. masses --      1.0812                 1.0910                 1.0618
 Frc consts  --      5.9570                 6.0781                 5.9308
 IR Inten    --     23.2118                36.9964                16.2940

                     73                     74                     75
                      A                      A                      A
 Frequencies --   3083.2424              3111.7572              3116.4927
 Red. masses --      1.0608                 1.0954                 1.1014
 Frc consts  --      5.9418                 6.2491                 6.3028
 IR Inten    --     21.8057                 0.8993                20.4938

                     76                     77                     78
                      A                      A                      A
 Frequencies --   3129.6457              3135.9340              3145.6544
 Red. masses --      1.1017                 1.1048                 1.1051
 Frc consts  --      6.3576                 6.4011                 6.4429
 IR Inten    --     24.6195                11.4054                 5.8459

                     79                     80                     81
                      A                      A                      A
 Frequencies --   3147.9390              3461.6364              3549.9511
 Red. masses --      1.0934                 1.0492                 1.0929
 Frc consts  --      6.3841                 7.4075                 8.1147
 IR Inten    --      7.7538                 0.9066                 0.3304

 - Thermochemistry -
 -------------------
 Temperature   298.150 Kelvin.  Pressure   1.00000 Atm.
 Atom     1 has atomic number  6 and mass  12.00000

 Molecular mass:   204.09325 amu.
 Principal axes and moments of inertia in atomic units:
                           1         2         3
     Eigenvalues --  1393.645334598.851814634.60534
           X            0.99994   0.01096  -0.00295
           Y           -0.01121   0.91416  -0.40520
           Z           -0.00174   0.40520   0.91423
 This molecule is an asymmetric top.
 Rotational symmetry number  1.
 Warning -- assumption of classical behavior for rotation
           may cause significant error
 Rotational temperatures (Kelvin)      0.06215     0.01883     0.01869
 Rotational constants (GHZ):           1.29498     0.39243     0.38941
 Zero-point vibrational energy     651392.2 (Joules/Mol)
                                  155.68647 (Kcal/Mol)
 Warning -- explicit consideration of  22 degrees of freedom as
           vibrations may cause significant error
 Vibrational temperatures:     46.03    80.55   115.79   137.46   183.70
          (Kelvin)            213.93   220.91   281.12   296.20   336.46
                              403.95   412.48   433.28   475.89   520.99
                              534.56   660.65   708.32   742.28   771.71
                              849.73   871.73   942.21   971.12  1109.09
                             1159.94  1240.64  1274.79  1291.05  1328.44
                             1378.62  1439.54  1455.21  1491.98  1528.85
                             1533.71  1550.05  1559.79  1599.61  1656.08
                             1665.67  1684.98  1739.83  1800.81  1839.57
                             1840.65  1845.09  1880.49  1912.24  1914.98
                             1935.50  1964.80  2018.72  2065.51  2070.34
                             2108.73  2129.37  2152.81  2185.86  2194.05
                             2198.64  2209.58  2236.04  2440.39  2597.94
                             4294.76  4367.83  4380.49  4395.64  4399.76
                             4424.27  4430.09  4436.10  4477.12  4483.94
                             4502.86  4511.91  4525.90  4529.18  4980.52
                             5107.59

 Zero-point correction=                           0.248102 (Hartree/Particle)
 Thermal correction to Energy=                    0.262489
 Thermal correction to Enthalpy=                  0.263434
 Thermal correction to Gibbs Free Energy=         0.206347
 Sum of electronic and zero-point Energies=           -972.393733
 Sum of electronic and thermal Energies=              -972.379346
 Sum of electronic and thermal Enthalpies=            -972.378402
 Sum of electronic and thermal Free Energies=         -972.435489

                     E (Thermal)             CV                S
                      KCal/Mol        Cal/Mol-Kelvin    Cal/Mol-Kelvin
 Total                  164.715             53.176            120.149
 Electronic               0.000              0.000              0.000
 Translational            0.889              2.981             41.845
 Rotational               0.889              2.981             31.763
 Vibrational            162.937             47.215             46.542
 Vibration     1          0.594              1.983              5.702
 Vibration     2          0.596              1.975              4.594
 Vibration     3          0.600              1.962              3.879
 Vibration     4          0.603              1.952              3.543
 Vibration     5          0.611              1.926              2.981
 Vibration     6          0.618              1.904              2.689
 Vibration     7          0.619              1.899              2.628
 Vibration     8          0.636              1.846              2.176
 Vibration     9          0.640              1.832              2.080
 Vibration    10          0.654              1.789              1.849
 Vibration    11          0.680              1.709              1.529
 Vibration    12          0.684              1.698              1.493
 Vibration    13          0.693              1.672              1.411
 Vibration    14          0.713              1.614              1.256
 Vibration    15          0.736              1.550              1.113
 Vibration    16          0.743              1.531              1.073
 Vibration    17          0.817              1.341              0.769
 Vibration    18          0.848              1.267              0.678
 Vibration    19          0.871              1.215              0.620
 Vibration    20          0.891              1.170              0.573
 Vibration    21          0.948              1.052              0.466
 Vibration    22          0.965              1.019              0.440

                           ! Non-Optimized Parameters !
 Normal termination of Gaussian 16 at Wed Dec  9 22:30:49 2020.

 ----------------------------------------------------------------------
 # B3LYP/6-311++G(d,p) empiricaldispersion=gd3bj scf=xqc pop=npa geom=c
 heck
 ----------------------------------------------------------------------

 ---------------------------------------
 CID_116260952_JID_3062_Energie_neutraal
 ---------------------------------------
 Structure from the checkpoint file:  "JID_3062.chk"
 Charge =  0 Multiplicity = 1

 SCF Done:  E(RB3LYP) =  -972.845962329     A.U. after   15 cycles
 Normal termination of Gaussian 16 at Wed Dec  9 22:34:00 2020.

 ----------------------------------------------------------------------
 # B3LYP/6-311++G(d,p) empiricaldispersion=gd3bj scf=xqc pop=npa geom=c
 heck
 ----------------------------------------------------------------------

 -------------------------------------
 CID_116260952_JID_3062_Energie_kation
 -------------------------------------
 Structure from the checkpoint file:  "JID_3062.chk"
 Charge =  1 Multiplicity = 2

 SCF Done:  E(UB3LYP) =  -972.544123383     A.U. after   26 cycles
 Normal termination of Gaussian 16 at Wed Dec  9 22:40:57 2020.
 Gaussian 16:  ES64L-G16RevA.03 25-Dec-2016

 ----------------------------------------------------------------------
 # B3LYP/6-311++G(d,p) empiricaldispersion=gd3bj scf=xqc pop=npa geom=c
 heck
 ----------------------------------------------------------------------

 ------------------------------------
 CID_116260952_JID_3062_Energie_anion
 ------------------------------------
 Structure from the checkpoint file:  "JID_3062.chk"
 Charge = -1 Multiplicity = 2

                         Standard orientation:
 ---------------------------------------------------------------------
 Center     Atomic      Atomic             Coordinates (Angstroms)
 Number     Number       Type             X           Y           Z
 ---------------------------------------------------------------------
      1          6           0        1.063100    1.852727   -1.403269
      2          6           0        1.880326    1.417880   -0.191463
      3         16           0        2.799775   -0.158799   -0.441204
      4          8           0        3.361144   -0.541864    0.913962
      5          6           0        1.378089   -1.312665   -0.731339
      6          6           0        0.428680   -1.426471    0.468613
      7          7           0       -0.784740   -0.646056    0.318306
      8          6           0       -1.865600   -1.060668   -0.562802
      9          6           0       -2.823416    0.159531   -0.553368
     10          6           0       -2.585543    0.755016    0.839810
     11          6           0       -1.155656    0.354586    1.187499
     12          8           0       -0.452871    0.820375    2.071024
     13          7           0       -4.227915   -0.087308   -0.837684
     14          1           0        1.656434    1.833266   -2.325009
     15          1           0        0.706501    2.878252   -1.260956
     16          1           0        0.185721    1.214678   -1.544083
     17          1           0        2.682217    2.132304    0.023237
     18          1           0        1.281306    1.308072    0.716948
     19          1           0        0.867531   -1.020868   -1.654216
     20          1           0        1.880298   -2.267605   -0.912791
     21          1           0        0.151957   -2.478864    0.615944
     22          1           0        0.942104   -1.092517    1.376505
     23          1           0       -1.494411   -1.297641   -1.566925
     24          1           0       -2.372435   -1.959668   -0.172851
     25          1           0       -2.460401    0.874403   -1.302026
     26          1           0       -3.258959    0.297006    1.578117
     27          1           0       -2.723853    1.836103    0.897335
     28          1           0       -4.341680   -0.460132   -1.778825
     29          1           0       -4.596212   -0.790162   -0.197465
 ---------------------------------------------------------------------

 SCF Done:  E(UB3LYP) =  -972.842721234     A.U. after   32 cycles

 The electronic state is 2-A.
 Alpha  occ. eigenvalues --  -88.85005 -18.99908 -18.98625 -14.25126 -14.19842
 Alpha  occ. eigenvalues --  -10.17800 -10.12248 -10.11358 -10.11061 -10.10723
 Alpha  occ. eigenvalues --  -10.10417 -10.08504 -10.08443  -7.92752  -5.89014
 Alpha  occ. eigenvalues --   -5.88892  -5.88339  -0.95040  -0.91635  -0.86175
 Alpha  occ. eigenvalues --   -0.79445  -0.72149  -0.69667  -0.65792  -0.61892
 Alpha  occ. eigenvalues --   -0.59619  -0.55731  -0.51030  -0.49132  -0.45687
 Alpha  occ. eigenvalues --   -0.42223  -0.40858  -0.39806  -0.38258  -0.36715
 Alpha  occ. eigenvalues --   -0.35879  -0.34948  -0.34182  -0.33808  -0.32723
 Alpha  occ. eigenvalues --   -0.31380  -0.31006  -0.30332  -0.29296  -0.28652
 Alpha  occ. eigenvalues --   -0.28526  -0.27477  -0.26837  -0.25574  -0.24406
 Alpha  occ. eigenvalues --   -0.17590  -0.17077  -0.15940  -0.15003  -0.13780
 Alpha  occ. eigenvalues --    0.03852
 Alpha virt. eigenvalues --    0.06452   0.07161   0.07646   0.08817   0.09187
 Alpha virt. eigenvalues --    0.09645   0.10083   0.10297   0.10922   0.11327
 Alpha virt. eigenvalues --    0.11922   0.12587   0.12968   0.13288   0.13478

  Beta  occ. eigenvalues --  -88.85004 -18.99904 -18.98620 -14.25126 -14.19785
  Beta  occ. eigenvalues --  -10.17794 -10.12240 -10.11338 -10.11032 -10.10665
  Beta  occ. eigenvalues --  -10.10414 -10.08472 -10.08433  -7.92751  -5.89013
  Beta  occ. eigenvalues --   -5.88891  -5.88335  -0.95029  -0.91625  -0.86156
  Beta  occ. eigenvalues --   -0.79354  -0.72117  -0.69635  -0.65744  -0.61809
  Beta  occ. eigenvalues --   -0.59578  -0.55678  -0.50938  -0.49098  -0.45645
  Beta  occ. eigenvalues --   -0.42160  -0.40804  -0.39751  -0.38226  -0.36677
  Beta  occ. eigenvalues --   -0.35848  -0.34903  -0.34149  -0.33757  -0.32675
  Beta  occ. eigenvalues --   -0.31345  -0.30956  -0.30303  -0.29248  -0.28628
  Beta  occ. eigenvalues --   -0.28500  -0.27427  -0.26809  -0.25551  -0.24357
  Beta  occ. eigenvalues --   -0.17569  -0.17052  -0.15926  -0.14938  -0.13764
  Beta virt. eigenvalues --    0.06505   0.07280   0.07774   0.08367   0.09096
  Beta virt. eigenvalues --    0.09502   0.09904   0.10420   0.10828   0.11194
  Beta virt. eigenvalues --    0.11633   0.12241   0.12893   0.13300   0.13348

 Mulliken charges and spin densities:
               1          2
     1  C    0.057335  -0.699828
     2  C   -0.907563   0.533771
     3  S    0.961606  -0.438478
     4  O   -0.461993   0.008746
     5  C    0.579765  -1.067823
     6  C   -1.508953   1.095431
     7  N    0.247479   0.008794
     8  C    1.670245  -1.983813
     9  C   -0.246990  -0.202038
    10  C    1.247562  -1.586077
    11  C   -0.686355   0.693559
    12  O   -0.335652   0.007074
    13  N   -0.367512   0.103169
    14  H   -0.172087   0.325269
    15  H   -0.118082   0.270687
    16  H    0.638291  -0.442986
    17  H    0.197148   0.040220
    18  H    0.266461   0.002039
    19  H   -0.370082   0.522600
    20  H    0.020574   0.235074
    21  H   -0.093319   0.247609
    22  H    0.223259   0.073520
    23  H   -0.595597   0.790071
    24  H   -0.443801   0.619028
    25  H   -0.611084   0.808041
    26  H    0.065133   0.116223
    27  H    0.106230   0.077226
    28  H   -0.316907   0.568398
    29  H   -0.045113   0.274498
 Sum of Mulliken charges =  -1.00000   1.00000

 Dipole moment (field-independent basis, Debye):
    X=              4.1293    Y=              2.4367    Z=              2.6994  Tot=              5.5024
 Quadrupole moment (field-independent basis, Debye-Ang):
   XX=           -162.8275   YY=           -120.1622   ZZ=           -135.6840
   XY=             -2.8727   XZ=            -20.3577   YZ=             -6.0062

 Summary of Natural Population Analysis:

                                       Natural Population
                Natural  -----------------------------------------------
    Atom  No    Charge         Core      Valence    Rydberg      Total
 -----------------------------------------------------------------------
      C    1   -0.29660      0.99965     2.29101    0.00595     3.29660
      C    2   -0.28726      0.99960     2.27581    0.01186     3.28726
      S    3    0.58050      4.99944     2.36550    0.05456     7.41950
      O    4   -0.48738      0.99993     3.48135    0.00610     4.48738
      C    5   -0.28283      0.99958     2.27112    0.01213     3.28283
      C    6   -0.10202      0.99959     2.08987    0.01256     3.10202
      N    7   -0.26051      0.99963     2.74890    0.01198     3.76051
      C    8   -0.08552      0.99960     2.07341    0.01251     3.08552
      C    9   -0.01690      0.99960     2.00316    0.01413     3.01690
      C   10   -0.22802      0.99958     2.21933    0.00911     3.22802
      C   11    0.35034      0.99964     1.62596    0.02407     2.64966
      O   12   -0.32463      0.99987     3.31958    0.00518     4.32463
      N   13   -0.41768      0.99976     2.90742    0.01050     3.91768
      H   14    0.10031      0.00000     0.39822    0.00147     0.39969
      H   15    0.10645      0.00000     0.39265    0.00090     0.39355
      H   16    0.10402      0.00000     0.39397    0.00201     0.39598
      H   17    0.10396      0.00000     0.39487    0.00117     0.39604
      H   18    0.12567      0.00000     0.37266    0.00167     0.37433
      H   19    0.11377      0.00000     0.38271    0.00352     0.38623
      H   20    0.11048      0.00000     0.38822    0.00131     0.38952
      H   21    0.10050      0.00000     0.39849    0.00101     0.39950
      H   22    0.12506      0.00000     0.37351    0.00143     0.37494
      H   23    0.10433      0.00000     0.38920    0.00646     0.39567
      H   24    0.09112      0.00000     0.40577    0.00310     0.40888
      H   25    0.09506      0.00000     0.40276    0.00218     0.40494
      H   26    0.10897      0.00000     0.39000    0.00103     0.39103
      H   27    0.11238      0.00000     0.38668    0.00094     0.38762
      H   28    0.18313      0.00000     0.31193    0.00494     0.31687
      H   29    0.17331      0.00000     0.32401    0.00269     0.32669
 =======================================================================
   * Total *    0.00000     16.99548    37.77806    0.22646    55.00000

 Normal termination of Gaussian 16 at Wed Dec  9 22:49:29 2020.
