 Gaussian 16, Revision A.03,

 -----------------------------------------------------------
 # opt freq B3LYP/6-31G(d) empiricaldispersion=gd3bj scf=xqc
 -----------------------------------------------------------

 ------------------------------
 CID_44256496_JID_2732_neutraal
 ------------------------------
 Symbolic Z-matrix:
 Charge =  0 Multiplicity = 1

 SCF Done:  E(RB3LYP) =  -537.395401721     A.U. after   16 cycles
 SCF Done:  E(RB3LYP) =  -537.442785988     A.U. after   13 cycles
 SCF Done:  E(RB3LYP) =  -537.449327126     A.U. after   14 cycles
 SCF Done:  E(RB3LYP) =  -537.431019041     A.U. after   17 cycles
 SCF Done:  E(RB3LYP) =  -537.450298785     A.U. after   14 cycles
 SCF Done:  E(RB3LYP) =  -537.449105532     A.U. after   15 cycles
 SCF Done:  E(RB3LYP) =  -537.450215185     A.U. after   14 cycles
 SCF Done:  E(RB3LYP) =  -537.450474978     A.U. after   11 cycles
 SCF Done:  E(RB3LYP) =  -537.449928445     A.U. after   14 cycles
 SCF Done:  E(RB3LYP) =  -537.450574097     A.U. after   13 cycles
 SCF Done:  E(RB3LYP) =  -537.451006120     A.U. after    9 cycles
 SCF Done:  E(RB3LYP) =  -537.451006182     A.U. after    8 cycles
 SCF Done:  E(RB3LYP) =  -537.451006217     A.U. after    8 cycles
 SCF Done:  E(RB3LYP) =  -537.451006233     A.U. after    8 cycles
 SCF Done:  E(RB3LYP) =  -537.451006234     A.U. after    8 cycles
 Optimization completed.
    -- Stationary point found.
 Normal termination of Gaussian 16 at Wed Dec  9 18:32:10 2020.

 --------------------------------------------------------------------
 #N Geom=AllCheck Guess=TCheck SCRF=Check GenChk RB3LYP/6-31G(d) Freq
 --------------------------------------------------------------------

 Structure from the checkpoint file:  "JID_2732.chk"
 ------------------------------
 CID_44256496_JID_2732_neutraal
 ------------------------------
 Charge =  0 Multiplicity = 1

 SCF Done:  E(RB3LYP) =  -537.451006234     A.U. after    1 cycles

  Exact polarizability: 216.646 -32.919  91.423  10.944   5.548  74.146
 Approx polarizability: 349.951 -66.346 128.686  30.599   8.566 117.454

                      1                      2                      3
                      A                      A                      A
 Frequencies --      5.4714                28.3592                34.7357
 Red. masses --      3.4935                 6.0575                 9.2214
 Frc consts  --      0.0001                 0.0029                 0.0066
 IR Inten    --      0.4951                 0.5505                 2.1406

                      4                      5                      6
                      A                      A                      A
 Frequencies --     64.7595                82.6544               131.6489
 Red. masses --      4.3095                 3.6638                 2.1401
 Frc consts  --      0.0106                 0.0147                 0.0219
 IR Inten    --      1.1413                 1.4611                 0.3139

                      7                      8                      9
                      A                      A                      A
 Frequencies --    148.0601               177.2431               245.1805
 Red. masses --      1.5636                 3.0348                 3.9183
 Frc consts  --      0.0202                 0.0562                 0.1388
 IR Inten    --      0.3669                 0.3708                 4.2512

                     10                     11                     12
                      A                      A                      A
 Frequencies --    293.4424               301.1491               392.3001
 Red. masses --      3.3059                 3.9375                 5.1518
 Frc consts  --      0.1677                 0.2104                 0.4671
 IR Inten    --      0.3017                 1.0226                 4.1059

                     13                     14                     15
                      A                      A                      A
 Frequencies --    401.1173               481.2453               498.0441
 Red. masses --      4.4199                 3.2228                 3.0616
 Frc consts  --      0.4190                 0.4398                 0.4474
 IR Inten    --      3.0661                 4.9020                 3.0648

                     16                     17                     18
                      A                      A                      A
 Frequencies --    532.5632               560.1503               624.0468
 Red. masses --      2.1111                 3.6267                 3.0075
 Frc consts  --      0.3528                 0.6705                 0.6901
 IR Inten    --     39.2642                22.7533                 9.9755

                     19                     20                     21
                      A                      A                      A
 Frequencies --    664.4036               695.4695               709.4125
 Red. masses --      5.0794                 1.6326                 2.6172
 Frc consts  --      1.3211                 0.4653                 0.7760
 IR Inten    --      1.3092                90.6359                 7.7366

                     22                     23                     24
                      A                      A                      A
 Frequencies --    728.3842               783.0702               809.5051
 Red. masses --      4.1264                 2.3243                 2.7842
 Frc consts  --      1.2899                 0.8397                 1.0749
 IR Inten    --     29.6437                19.2610                 9.8118

                     25                     26                     27
                      A                      A                      A
 Frequencies --    895.6938               943.3283               972.2893
 Red. masses --      3.5522                 2.1497                 2.1457
 Frc consts  --      1.6791                 1.1271                 1.1951
 IR Inten    --      4.1975                10.7044                 5.0262

                     28                     29                     30
                      A                      A                      A
 Frequencies --    983.0370              1016.7583              1052.2530
 Red. masses --      1.1824                 2.2040                 2.8729
 Frc consts  --      0.6732                 1.3425                 1.8742
 IR Inten    --      0.6421                14.3329                13.3822

                     31                     32                     33
                      A                      A                      A
 Frequencies --   1072.4562              1127.1854              1171.1192
 Red. masses --      1.5186                 1.7726                 2.0212
 Frc consts  --      1.0291                 1.3270                 1.6333
 IR Inten    --      0.3524                 2.9369               233.8424

                     34                     35                     36
                      A                      A                      A
 Frequencies --   1223.9719              1257.9271              1262.0992
 Red. masses --      1.2887                 1.4597                 1.2344
 Frc consts  --      1.1375                 1.3609                 1.1585
 IR Inten    --     46.4578                 2.1301                15.6630

                     37                     38                     39
                      A                      A                      A
 Frequencies --   1308.5840              1333.5183              1381.4508
 Red. masses --      1.8111                 1.4700                 1.5272
 Frc consts  --      1.8273                 1.5401                 1.7172
 IR Inten    --      2.5424                10.6445                49.4295

                     40                     41                     42
                      A                      A                      A
 Frequencies --   1425.1851              1432.5662              1460.6353
 Red. masses --      1.2970                 2.0845                 1.5802
 Frc consts  --      1.5522                 2.5205                 1.9863
 IR Inten    --     10.1335                52.4295                 7.4136

                     43                     44                     45
                      A                      A                      A
 Frequencies --   1490.7536              1492.0291              1511.0960
 Red. masses --      1.0951                 1.1069                 1.0989
 Frc consts  --      1.4338                 1.4519                 1.4784
 IR Inten    --     20.7060                13.8773                 6.1349

                     46                     47                     48
                      A                      A                      A
 Frequencies --   1511.5628              1693.1066              1851.9745
 Red. masses --      1.0457                 5.7463                 9.6608
 Frc consts  --      1.4077                 9.7052                19.5225
 IR Inten    --      6.3656                 8.7520               235.9947

                     49                     50                     51
                      A                      A                      A
 Frequencies --   2259.2092              2354.8340              3035.7706
 Red. masses --     11.9211                11.9186                 1.0392
 Frc consts  --     35.8491                38.9400                 5.6425
 IR Inten    --      0.1345                 0.4145                26.4062

                     52                     53                     54
                      A                      A                      A
 Frequencies --   3046.7252              3060.1512              3080.5236
 Red. masses --      1.0615                 1.0667                 1.0995
 Frc consts  --      5.8057                 5.8857                 6.1472
 IR Inten    --     17.5817                33.2000                19.6143

                     55                     56                     57
                      A                      A                      A
 Frequencies --   3087.7467              3129.9221              3140.6140
 Red. masses --      1.1012                 1.0952                 1.0972
 Frc consts  --      6.1861                 6.3214                 6.3765
 IR Inten    --      3.8830                 7.3662                 5.4949

                     58                     59                     60
                      A                      A                      A
 Frequencies --   3154.9447              3178.6010              3682.6794
 Red. masses --      1.0852                 1.0936                 1.0639
 Frc consts  --      6.3643                 6.5101                 8.5011
 IR Inten    --      2.9403                41.3604                43.9078

 - Thermochemistry -
 -------------------
 Temperature   298.150 Kelvin.  Pressure   1.00000 Atm.
 Atom     1 has atomic number  6 and mass  12.00000

 Molecular mass:   162.06808 amu.
 Principal axes and moments of inertia in atomic units:
                           1         2         3
     Eigenvalues --  1027.156726217.146726713.01937
           X            0.99980  -0.01941  -0.00376
           Y            0.01946   0.99972   0.01353
           Z            0.00350  -0.01360   0.99990
 This molecule is an asymmetric top.
 Rotational symmetry number  1.
 Warning -- assumption of classical behavior for rotation
           may cause significant error
 Rotational temperatures (Kelvin)      0.08432     0.01393     0.01290
 Rotational constants (GHZ):           1.75703     0.29028     0.26884
 Zero-point vibrational energy     457420.4 (Joules/Mol)
                                  109.32610 (Kcal/Mol)
 Warning -- explicit consideration of  17 degrees of freedom as
           vibrations may cause significant error
 Vibrational temperatures:      7.87    40.80    49.98    93.17   118.92
          (Kelvin)            189.41   213.03   255.01   352.76   422.20
                              433.29   564.43   577.12   692.40   716.57
                              766.24   805.93   897.86   955.93  1000.63
                             1020.69  1047.98  1126.66  1164.70  1288.70
                             1357.24  1398.91  1414.37  1462.89  1513.96
                             1543.03  1621.77  1684.98  1761.02  1809.88
                             1815.88  1882.76  1918.64  1987.60  2050.52
                             2061.14  2101.53  2144.86  2146.70  2174.13
                             2174.80  2436.00  2664.58  3250.50  3388.08
                             4367.80  4383.56  4402.88  4432.19  4442.58
                             4503.26  4518.64  4539.26  4573.30  5298.55

 Zero-point correction=                           0.174222 (Hartree/Particle)
 Thermal correction to Energy=                    0.187227
 Thermal correction to Enthalpy=                  0.188172
 Thermal correction to Gibbs Free Energy=         0.130076
 Sum of electronic and zero-point Energies=           -537.276784
 Sum of electronic and thermal Energies=              -537.263779
 Sum of electronic and thermal Enthalpies=            -537.262835
 Sum of electronic and thermal Free Energies=         -537.320930

                     E (Thermal)             CV                S
                      KCal/Mol        Cal/Mol-Kelvin    Cal/Mol-Kelvin
 Total                  117.487             44.871            122.273
 Electronic               0.000              0.000              0.000
 Translational            0.889              2.981             41.157
 Rotational               0.889              2.981             32.128
 Vibrational            115.710             38.909             48.988
 Vibration     1          0.593              1.987              9.209
 Vibration     2          0.593              1.984              5.941
 Vibration     3          0.594              1.983              5.539
 Vibration     4          0.597              1.971              4.307
 Vibration     5          0.600              1.961              3.827
 Vibration     6          0.612              1.922              2.922
 Vibration     7          0.617              1.905              2.697
 Vibration     8          0.628              1.870              2.357
 Vibration     9          0.660              1.771              1.765
 Vibration    10          0.688              1.686              1.454
 Vibration    11          0.693              1.672              1.411
 Vibration    12          0.760              1.487              0.991
 Vibration    13          0.767              1.468              0.959
 Vibration    14          0.838              1.292              0.707
 Vibration    15          0.854              1.254              0.663
 Vibration    16          0.888              1.178              0.582
 Vibration    17          0.916              1.118              0.524

 Optimization completed.
    -- Stationary point found.
 Normal termination of Gaussian 16 at Wed Dec  9 18:35:35 2020.

 ----------------------------------------------------------------------
 # B3LYP/6-311++G(d,p) empiricaldispersion=gd3bj scf=xqc pop=npa geom=c
 heck
 ----------------------------------------------------------------------

 --------------------------------------
 CID_44256496_JID_2732_Energie_neutraal
 --------------------------------------
 Structure from the checkpoint file:  "JID_2732.chk"
 Charge =  0 Multiplicity = 1

 SCF Done:  E(RB3LYP) =  -537.614743577     A.U. after   15 cycles
 Normal termination of Gaussian 16 at Wed Dec  9 18:37:14 2020.

 ----------------------------------------------------------------------
 # B3LYP/6-311++G(d,p) empiricaldispersion=gd3bj scf=xqc pop=npa geom=c
 heck
 ----------------------------------------------------------------------

 ------------------------------------
 CID_44256496_JID_2732_Energie_kation
 ------------------------------------
 Structure from the checkpoint file:  "JID_2732.chk"
 Charge =  1 Multiplicity = 2

 SCF Done:  E(UB3LYP) =  -537.320801633     A.U. after   23 cycles
 Normal termination of Gaussian 16 at Wed Dec  9 18:40:51 2020.
 Gaussian 16:  ES64L-G16RevA.03 25-Dec-2016

 ----------------------------------------------------------------------
 # B3LYP/6-311++G(d,p) empiricaldispersion=gd3bj scf=xqc pop=npa geom=c
 heck
 ----------------------------------------------------------------------

 -----------------------------------
 CID_44256496_JID_2732_Energie_anion
 -----------------------------------
 Structure from the checkpoint file:  "JID_2732.chk"
 Charge = -1 Multiplicity = 2

                         Standard orientation:
 ---------------------------------------------------------------------
 Center     Atomic      Atomic             Coordinates (Angstroms)
 Number     Number       Type             X           Y           Z
 ---------------------------------------------------------------------
      1          6           0       -4.379538    1.483447    0.758465
      2          6           0       -4.812296    0.439739   -0.221317
      3          6           0       -4.030161   -0.533918   -0.728352
      4          6           0       -2.663841   -0.717633   -0.405811
      5          6           0       -1.484719   -0.905651   -0.151409
      6          6           0       -0.168884   -1.104165    0.140771
      7          6           0        1.004305   -1.283111    0.408818
      8          6           0        2.424145   -1.474585    0.680999
      9          6           0        3.318310   -0.696196   -0.300201
     10          6           0        3.236080    0.798041   -0.069686
     11          8           0        2.917658    1.332815    0.968203
     12          8           0        3.604422    1.492580   -1.172230
     13          1           0       -3.326252    1.367839    1.027090
     14          1           0       -4.981344    1.430591    1.675627
     15          1           0       -4.525946    2.490537    0.345534
     16          1           0       -5.849444    0.472342   -0.551081
     17          1           0       -4.459451   -1.240275   -1.437939
     18          1           0        2.651815   -1.143793    1.701331
     19          1           0        2.672706   -2.541941    0.622394
     20          1           0        4.366953   -0.989759   -0.158453
     21          1           0        3.061178   -0.920393   -1.338767
     22          1           0        3.552741    2.435878   -0.927180
 ---------------------------------------------------------------------

 SCF Done:  E(UB3LYP) =  -537.615719104     A.U. after   33 cycles
 SCF Done:  E(UB3LYP) =  -537.615719104     a.u. after    1 cycles

 The electronic state is 2-A.
 Alpha  occ. eigenvalues --  -19.07136 -19.01256 -10.20335 -10.08600 -10.08167
 Alpha  occ. eigenvalues --  -10.05358 -10.05336 -10.04553 -10.04237 -10.04005
 Alpha  occ. eigenvalues --  -10.03874 -10.03671  -1.00998  -0.92014  -0.70338
 Alpha  occ. eigenvalues --   -0.68590  -0.64954  -0.61526  -0.58566  -0.56063
 Alpha  occ. eigenvalues --   -0.49852  -0.47616  -0.43378  -0.40099  -0.38751
 Alpha  occ. eigenvalues --   -0.38117  -0.36218  -0.34178  -0.32985  -0.32193
 Alpha  occ. eigenvalues --   -0.30400  -0.29416  -0.28066  -0.26871  -0.26287
 Alpha  occ. eigenvalues --   -0.24272  -0.22634  -0.22161  -0.20064  -0.18278
 Alpha  occ. eigenvalues --   -0.16812  -0.10727  -0.09551   0.04201
 Alpha virt. eigenvalues --    0.06571   0.07493   0.07856   0.09519   0.09846
 Alpha virt. eigenvalues --    0.10278   0.10872   0.11182   0.11379   0.12087
 Alpha virt. eigenvalues --    0.12937   0.14765   0.15578   0.15648   0.16076

  Beta  occ. eigenvalues --  -19.07107 -19.01243 -10.20318 -10.08613 -10.08092
  Beta  occ. eigenvalues --  -10.05364 -10.05355 -10.04541 -10.03849 -10.03838
  Beta  occ. eigenvalues --  -10.03764 -10.03560  -1.00946  -0.91975  -0.70168
  Beta  occ. eigenvalues --   -0.68141  -0.64640  -0.61273  -0.58403  -0.55994
  Beta  occ. eigenvalues --   -0.49633  -0.47146  -0.43016  -0.40030  -0.38691
  Beta  occ. eigenvalues --   -0.38011  -0.36092  -0.34052  -0.32777  -0.32138
  Beta  occ. eigenvalues --   -0.30016  -0.29224  -0.27996  -0.26765  -0.26176
  Beta  occ. eigenvalues --   -0.24096  -0.22584  -0.21293  -0.19972  -0.18244
  Beta  occ. eigenvalues --   -0.15830  -0.10609  -0.08255
  Beta virt. eigenvalues --    0.07060   0.07828   0.08183   0.09292   0.09484
  Beta virt. eigenvalues --    0.09938   0.10669   0.11037   0.11262   0.11357
  Beta virt. eigenvalues --    0.12279   0.13048   0.14674   0.15608   0.15744

 Mulliken charges and spin densities:
               1          2
     1  C   -0.799089  -0.017912
     2  C    0.029238   0.299203
     3  C   -1.203629   0.050962
     4  C    0.455051   0.100293
     5  C    0.285146  -0.046470
     6  C    0.542868  -0.069070
     7  C    0.386635  -0.594711
     8  C   -1.393332   1.043375
     9  C    1.202356  -1.339648
    10  C   -0.057346  -0.002026
    11  O   -0.298662   0.011317
    12  O   -0.199546   0.038656
    13  H    0.150375   0.001478
    14  H    0.105185   0.009101
    15  H    0.099327   0.016772
    16  H    0.130205  -0.017896
    17  H    0.117240   0.000183
    18  H    0.139362   0.030310
    19  H    0.046314   0.115923
    20  H   -0.863939   1.072404
    21  H    0.178300  -0.025332
    22  H   -0.052057   0.323087
 Sum of Mulliken charges =  -1.00000   1.00000

 Dipole moment (field-independent basis, Debye):
    X=             -2.1412    Y=              0.9470    Z=             -0.2353  Tot=              2.3531
 Quadrupole moment (field-independent basis, Debye-Ang):
   XX=           -145.6516   YY=            -88.9830   ZZ=            -86.0304
   XY=             -0.3479   XZ=             -0.7670   YZ=             -0.1418

 Summary of Natural Population Analysis:

                                       Natural Population
                Natural  -----------------------------------------------
    Atom  No    Charge         Core      Valence    Rydberg      Total
 -----------------------------------------------------------------------
      C    1   -0.31019      0.99966     2.30513    0.00540     3.31019
      C    2   -0.00223      0.99959     1.99056    0.01207     3.00223
      C    3   -0.16764      0.99938     2.15365    0.01461     3.16764
      C    4    0.06966      0.99938     1.92334    0.00762     2.93034
      C    5   -0.02544      0.99934     2.00978    0.01631     3.02544
      C    6   -0.06395      0.99928     2.05394    0.01074     3.06395
      C    7    0.04133      0.99928     1.95074    0.00865     2.95867
      C    8   -0.22919      0.99959     2.21946    0.01014     3.22919
      C    9   -0.22864      0.99958     2.22022    0.00884     3.22864
      C   10    0.41055      0.99972     1.56407    0.02566     2.58945
      O   11   -0.30630      0.99987     3.30033    0.00610     4.30630
      O   12   -0.34572      0.99988     3.33956    0.00629     4.34572
      H   13    0.10844      0.00000     0.39066    0.00091     0.39156
      H   14    0.09809      0.00000     0.40080    0.00111     0.40191
      H   15    0.09881      0.00000     0.40008    0.00111     0.40119
      H   16    0.07840      0.00000     0.42049    0.00111     0.42160
      H   17    0.10028      0.00000     0.39856    0.00117     0.39972
      H   18    0.11744      0.00000     0.38134    0.00122     0.38256
      H   19    0.11075      0.00000     0.38803    0.00123     0.38925
      H   20    0.11773      0.00000     0.37577    0.00650     0.38227
      H   21    0.11146      0.00000     0.38738    0.00116     0.38854
      H   22    0.23881      0.00000     0.25649    0.00470     0.26119
 =======================================================================
   * Total *    0.02245     11.99454    30.83037    0.15264    42.97755

 Normal termination of Gaussian 16 at Wed Dec  9 18:45:54 2020.
