 Gaussian 16, Revision A.03,

 -----------------------------------------------------------
 # opt freq B3LYP/6-31G(d) empiricaldispersion=gd3bj scf=xqc
 -----------------------------------------------------------

 ------------------------------
 CID_63656317_JID_8711_neutraal
 ------------------------------
 Symbolic Z-matrix:
 Charge =  0 Multiplicity = 1

 SCF Done:  E(RB3LYP) =  -750.969176502     A.U. after   14 cycles
 SCF Done:  E(RB3LYP) =  -750.976434221     A.U. after   12 cycles
 SCF Done:  E(RB3LYP) =  -750.977074403     A.U. after   11 cycles
 SCF Done:  E(RB3LYP) =  -750.977124840     A.U. after   12 cycles
 SCF Done:  E(RB3LYP) =  -750.977346816     A.U. after   11 cycles
 SCF Done:  E(RB3LYP) =  -750.977429152     A.U. after   10 cycles
 SCF Done:  E(RB3LYP) =  -750.977582239     A.U. after   12 cycles
 SCF Done:  E(RB3LYP) =  -750.977593045     A.U. after   11 cycles
 SCF Done:  E(RB3LYP) =  -750.977595232     A.U. after   10 cycles
 SCF Done:  E(RB3LYP) =  -750.977717400     A.U. after   10 cycles
 SCF Done:  E(RB3LYP) =  -750.982076002     A.U. after    6 cycles
 SCF Done:  E(RB3LYP) =  -750.982076061     A.U. after    6 cycles
 SCF Done:  E(RB3LYP) =  -750.982076120     A.U. after    7 cycles
 SCF Done:  E(RB3LYP) =  -750.982076162     A.U. after    7 cycles
 SCF Done:  E(RB3LYP) =  -750.982076176     A.U. after    6 cycles
 Optimization completed.
    -- Stationary point found.
 Normal termination of Gaussian 16 at Fri Dec 11 22:39:15 2020.

 --------------------------------------------------------------------
 #N Geom=AllCheck Guess=TCheck SCRF=Check GenChk RB3LYP/6-31G(d) Freq
 --------------------------------------------------------------------

 Structure from the checkpoint file:  "JID_8711.chk"
 ------------------------------
 CID_63656317_JID_8711_neutraal
 ------------------------------
 Charge =  0 Multiplicity = 1

 SCF Done:  E(RB3LYP) =  -750.982076176     A.U. after    1 cycles

  Exact polarizability: 211.718   2.017 174.964 -23.989  -3.486 146.031
 Approx polarizability: 278.099   1.898 270.440 -51.157  -8.345 217.654

                      1                      2                      3
                      A                      A                      A
 Frequencies --     16.4371                30.6577                37.9534
 Red. masses --      3.7052                 2.5065                 3.7446
 Frc consts  --      0.0006                 0.0014                 0.0032
 IR Inten    --      0.0757                 0.0151                 0.2108

                      4                      5                      6
                      A                      A                      A
 Frequencies --     50.5109                64.2911                77.7421
 Red. masses --      2.7991                 3.1765                 1.7774
 Frc consts  --      0.0042                 0.0077                 0.0063
 IR Inten    --      0.0324                 0.2345                 0.3725

                      7                      8                      9
                      A                      A                      A
 Frequencies --     82.5190               107.9406               147.1104
 Red. masses --      1.8276                 1.8708                 3.5947
 Frc consts  --      0.0073                 0.0128                 0.0458
 IR Inten    --      0.7439                 0.6844                 3.0093

                     10                     11                     12
                      A                      A                      A
 Frequencies --    154.6978               171.0462               185.1637
 Red. masses --      2.1172                 2.3792                 3.1801
 Frc consts  --      0.0299                 0.0410                 0.0642
 IR Inten    --      0.9243                 0.2039                 2.9214

                     13                     14                     15
                      A                      A                      A
 Frequencies --    213.1118               241.7317               259.0920
 Red. masses --      3.0053                 3.2278                 1.2522
 Frc consts  --      0.0804                 0.1111                 0.0495
 IR Inten    --      1.1931                 1.0344                 0.1090

                     16                     17                     18
                      A                      A                      A
 Frequencies --    281.7644               288.5284               309.0201
 Red. masses --      3.0538                 2.7941                 3.3564
 Frc consts  --      0.1428                 0.1370                 0.1888
 IR Inten    --     13.5308                 0.6046                 0.5827

                     19                     20                     21
                      A                      A                      A
 Frequencies --    354.7812               432.4473               452.1708
 Red. masses --      2.2336                 2.4443                 2.9802
 Frc consts  --      0.1656                 0.2693                 0.3590
 IR Inten    --      0.5411                 1.4147                 2.5721

                     22                     23                     24
                      A                      A                      A
 Frequencies --    466.9437               496.1486               522.1426
 Red. masses --      2.3580                 2.9795                 3.0532
 Frc consts  --      0.3029                 0.4321                 0.4904
 IR Inten    --      1.8571                 0.9388                 8.6109

                     25                     26                     27
                      A                      A                      A
 Frequencies --    542.9770               568.8999               630.6444
 Red. masses --      4.3141                 3.3635                 2.5882
 Frc consts  --      0.7494                 0.6414                 0.6065
 IR Inten    --      4.4813                 3.3506                 0.2998

                     28                     29                     30
                      A                      A                      A
 Frequencies --    662.1270               695.9755               750.0709
 Red. masses --      4.0216                 3.9464                 2.8581
 Frc consts  --      1.0388                 1.1263                 0.9474
 IR Inten    --      2.3079                23.4605                35.8064

                     31                     32                     33
                      A                      A                      A
 Frequencies --    762.7392               772.9504               790.5039
 Red. masses --      2.7316                 1.4225                 1.7758
 Frc consts  --      0.9363                 0.5007                 0.6538
 IR Inten    --     19.7160                37.4286                52.2199

                     34                     35                     36
                      A                      A                      A
 Frequencies --    821.4397               823.9553               830.4697
 Red. masses --      1.6781                 1.4696                 1.2037
 Frc consts  --      0.6671                 0.5878                 0.4891
 IR Inten    --      8.7244                 9.2222                 4.6334

                     37                     38                     39
                      A                      A                      A
 Frequencies --    859.6235               869.1927               884.4739
 Red. masses --      1.8804                 2.0933                 2.4354
 Frc consts  --      0.8187                 0.9318                 1.1225
 IR Inten    --      8.8730                 4.5815                10.7265

                     40                     41                     42
                      A                      A                      A
 Frequencies --    900.4022               902.1201               913.9351
 Red. masses --      2.1578                 2.2897                 2.3271
 Frc consts  --      1.0307                 1.0979                 1.1453
 IR Inten    --     19.6842                 2.4228                21.3409

                     43                     44                     45
                      A                      A                      A
 Frequencies --    969.8314               975.6372               983.9844
 Red. masses --      1.3475                 1.8410                 1.4737
 Frc consts  --      0.7467                 1.0325                 0.8407
 IR Inten    --      0.1613                 0.5728                 5.4730

                     46                     47                     48
                      A                      A                      A
 Frequencies --    992.7275               996.1013              1005.0913
 Red. masses --      1.6170                 1.9519                 2.4396
 Frc consts  --      0.9389                 1.1411                 1.4520
 IR Inten    --      2.9302                 0.8887                 6.4698

                     49                     50                     51
                      A                      A                      A
 Frequencies --   1027.1648              1044.2259              1054.0476
 Red. masses --      2.4482                 2.8399                 2.4535
 Frc consts  --      1.5218                 1.8245                 1.6060
 IR Inten    --      8.1687                 1.4110                11.4552

                     52                     53                     54
                      A                      A                      A
 Frequencies --   1083.2688              1111.6693              1133.1330
 Red. masses --      1.9342                 1.8646                 2.6994
 Frc consts  --      1.3373                 1.3576                 2.0421
 IR Inten    --      5.0663                11.9903                18.5713

                     55                     56                     57
                      A                      A                      A
 Frequencies --   1135.6170              1150.3831              1155.6100
 Red. masses --      1.6277                 1.8233                 1.3418
 Frc consts  --      1.2368                 1.4217                 1.0557
 IR Inten    --      4.2929                20.0699                 9.6116

                     58                     59                     60
                      A                      A                      A
 Frequencies --   1171.7181              1179.4318              1202.0664
 Red. masses --      1.8574                 1.6304                 1.3671
 Frc consts  --      1.5025                 1.3363                 1.1639
 IR Inten    --     20.4166                14.9507                 1.9001

                     61                     62                     63
                      A                      A                      A
 Frequencies --   1217.6140              1225.3394              1250.2166
 Red. masses --      1.9868                 1.5208                 1.5367
 Frc consts  --      1.7355                 1.3453                 1.4152
 IR Inten    --      4.2864                 1.2406                 1.4460

                     64                     65                     66
                      A                      A                      A
 Frequencies --   1266.8650              1275.8589              1282.7558
 Red. masses --      2.2602                 1.4043                 1.4008
 Frc consts  --      2.1373                 1.3468                 1.3580
 IR Inten    --     15.0773                10.1759                 3.2503

                     67                     68                     69
                      A                      A                      A
 Frequencies --   1304.3405              1320.8045              1328.3219
 Red. masses --      1.2927                 1.4132                 1.3254
 Frc consts  --      1.2957                 1.4526                 1.3779
 IR Inten    --     29.3888                 8.0685                 3.9847

                     70                     71                     72
                      A                      A                      A
 Frequencies --   1333.0502              1347.8318              1348.6742
 Red. masses --      1.3162                 1.3128                 2.8107
 Frc consts  --      1.3780                 1.4052                 3.0122
 IR Inten    --      8.4540                 2.9615                30.0676

                     73                     74                     75
                      A                      A                      A
 Frequencies --   1357.5052              1361.5906              1380.7671
 Red. masses --      1.4005                 1.4001                 1.3199
 Frc consts  --      1.5206                 1.5293                 1.4826
 IR Inten    --      2.9473                 3.9875                11.9074

                     76                     77                     78
                      A                      A                      A
 Frequencies --   1382.6528              1394.6766              1410.4102
 Red. masses --      1.5627                 1.5100                 1.4648
 Frc consts  --      1.7602                 1.7305                 1.7168
 IR Inten    --     21.2681                10.4713                 3.5676

                     79                     80                     81
                      A                      A                      A
 Frequencies --   1414.6977              1428.8890              1442.5374
 Red. masses --      1.6786                 1.4238                 1.3205
 Frc consts  --      1.9793                 1.7128                 1.6190
 IR Inten    --      0.8794                76.0039                 7.6218

                     82                     83                     84
                      A                      A                      A
 Frequencies --   1468.2219              1498.3320              1501.6945
 Red. masses --      1.4733                 1.3109                 1.2335
 Frc consts  --      1.8713                 1.7340                 1.6389
 IR Inten    --    127.1182                19.5233                37.9613

                     85                     86                     87
                      A                      A                      A
 Frequencies --   1510.0289              1513.0983              1515.3919
 Red. masses --      1.2276                 1.1174                 1.0787
 Frc consts  --      1.6493                 1.5073                 1.4595
 IR Inten    --      6.6641                12.2191                 2.3717

                     88                     89                     90
                      A                      A                      A
 Frequencies --   1525.4894              1526.5414              1528.1873
 Red. masses --      1.0899                 1.1283                 1.0761
 Frc consts  --      1.4944                 1.5492                 1.4807
 IR Inten    --      3.4094                 2.0560                16.2014

                     91                     92                     93
                      A                      A                      A
 Frequencies --   1529.9210              1531.6554              1534.6785
 Red. masses --      1.2878                 1.1008                 1.2065
 Frc consts  --      1.7759                 1.5215                 1.6742
 IR Inten    --      7.7208                 6.0952                 8.5695

                     94                     95                     96
                      A                      A                      A
 Frequencies --   1549.7682              1554.6997              1559.8870
 Red. masses --      1.1175                 1.0930                 1.6128
 Frc consts  --      1.5814                 1.5565                 2.3122
 IR Inten    --      4.7547                 7.0134               154.7192

                     97                     98                     99
                      A                      A                      A
 Frequencies --   1612.8800              1661.7223              2971.9540
 Red. masses --      6.3505                 5.6086                 1.0709
 Frc consts  --      9.7333                 9.1247                 5.5731
 IR Inten    --     77.6501               294.9387                53.1805

                    100                    101                    102
                      A                      A                      A
 Frequencies --   3001.1865              3035.9811              3042.8649
 Red. masses --      1.0822                 1.0498                 1.0737
 Frc consts  --      5.7429                 5.7008                 5.8572
 IR Inten    --     26.0325                42.8697                10.2561

                    103                    104                    105
                      A                      A                      A
 Frequencies --   3045.4706              3048.1439              3049.2034
 Red. masses --      1.0645                 1.0493                 1.0624
 Frc consts  --      5.8168                 5.7441                 5.8199
 IR Inten    --     70.0692                15.6700                61.1476

                    106                    107                    108
                      A                      A                      A
 Frequencies --   3050.9379              3054.3388              3059.8156
 Red. masses --      1.0589                 1.0668                 1.0597
 Frc consts  --      5.8073                 5.8636                 5.8453
 IR Inten    --     40.0828                24.6653                57.6109

                    109                    110                    111
                      A                      A                      A
 Frequencies --   3071.9110              3087.8531              3089.6127
 Red. masses --      1.0639                 1.1000                 1.1002
 Frc consts  --      5.9154                 6.1797                 6.1878
 IR Inten    --     35.8463                19.7915                31.1194

                    112                    113                    114
                      A                      A                      A
 Frequencies --   3092.5621              3096.4334              3104.5554
 Red. masses --      1.1063                 1.1040                 1.1049
 Frc consts  --      6.2338                 6.2366                 6.2742
 IR Inten    --     22.3900                21.1814                 8.6858

                    115                    116                    117
                      A                      A                      A
 Frequencies --   3110.5143              3119.2309              3121.2710
 Red. masses --      1.0993                 1.1041                 1.0866
 Frc consts  --      6.2669                 6.3292                 6.2369
 IR Inten    --     40.0542                73.0849                37.8070

                    118                    119                    120
                      A                      A                      A
 Frequencies --   3132.5060              3158.1022              3163.8604
 Red. masses --      1.1032                 1.0885                 1.1046
 Frc consts  --      6.3778                 6.3962                 6.5148
 IR Inten    --     27.8242                40.3327                15.6073

                    121                    122                    123
                      A                      A                      A
 Frequencies --   3194.7688              3229.8888              3470.7798
 Red. masses --      1.0935                 1.0890                 1.0735
 Frc consts  --      6.5756                 6.6937                 7.6190
 IR Inten    --     24.0243                 9.9791                 0.9160

 - Thermochemistry -
 -------------------
 Temperature   298.150 Kelvin.  Pressure   1.00000 Atm.
 Atom     1 has atomic number  6 and mass  12.00000

 Molecular mass:   247.20485 amu.
 Principal axes and moments of inertia in atomic units:
                           1         2         3
     Eigenvalues --  3019.265808143.007129235.42254
           X            0.99995  -0.00693   0.00731
           Y            0.00690   0.99997   0.00464
           Z           -0.00734  -0.00459   0.99996
 This molecule is an asymmetric top.
 Rotational symmetry number  1.
 Warning -- assumption of classical behavior for rotation
           may cause significant error
 Rotational temperatures (Kelvin)      0.02869     0.01064     0.00938
 Rotational constants (GHZ):           0.59774     0.22163     0.19542
 Zero-point vibrational energy    1020411.6 (Joules/Mol)
                                  243.88424 (Kcal/Mol)
 Warning -- explicit consideration of  26 degrees of freedom as
           vibrations may cause significant error
 Vibrational temperatures:     23.65    44.11    54.61    72.67    92.50
          (Kelvin)            111.85   118.73   155.30   211.66   222.58
                              246.10   266.41   306.62   347.80   372.78
                              405.40   415.13   444.61   510.45   622.20
                              650.57   671.83   713.85   751.25   781.22
                              818.52   907.36   952.65  1001.35  1079.18
                             1097.41  1112.10  1137.36  1181.87  1185.49
                             1194.86  1236.81  1250.57  1272.56  1295.48
                             1297.95  1314.95  1395.37  1403.72  1415.73
                             1428.31  1433.17  1446.10  1477.86  1502.41
                             1516.54  1558.58  1599.44  1630.33  1633.90
                             1655.14  1662.67  1685.84  1696.94  1729.51
                             1751.87  1762.99  1798.78  1822.74  1835.68
                             1845.60  1876.66  1900.34  1911.16  1917.96
                             1939.23  1940.44  1953.15  1959.03  1986.62
                             1989.33  2006.63  2029.27  2035.43  2055.85
                             2075.49  2112.44  2155.77  2160.60  2172.59
                             2177.01  2180.31  2194.84  2196.35  2198.72
                             2201.22  2203.71  2208.06  2229.77  2236.87
                             2244.33  2320.57  2390.85  4275.98  4318.04
                             4368.10  4378.00  4381.75  4385.60  4387.12
                             4389.62  4394.51  4402.39  4419.79  4442.73
                             4445.26  4449.51  4455.08  4466.76  4475.34
                             4487.88  4490.81  4506.98  4543.80  4552.09
                             4596.56  4647.09  4993.68

 Zero-point correction=                           0.388654 (Hartree/Particle)
 Thermal correction to Energy=                    0.407354
 Thermal correction to Enthalpy=                  0.408298
 Thermal correction to Gibbs Free Energy=         0.339053
 Sum of electronic and zero-point Energies=           -750.593422
 Sum of electronic and thermal Energies=              -750.574722
 Sum of electronic and thermal Enthalpies=            -750.573778
 Sum of electronic and thermal Free Energies=         -750.643023

                     E (Thermal)             CV                S
                      KCal/Mol        Cal/Mol-Kelvin    Cal/Mol-Kelvin
 Total                  255.618             69.969            145.739
 Electronic               0.000              0.000              0.000
 Translational            0.889              2.981             42.416
 Rotational               0.889              2.981             33.784
 Vibrational            253.841             64.007             69.539
 Vibration     1          0.593              1.986              7.024
 Vibration     2          0.594              1.984              5.786
 Vibration     3          0.594              1.982              5.363
 Vibration     4          0.595              1.977              4.797
 Vibration     5          0.597              1.971              4.321
 Vibration     6          0.599              1.964              3.947
 Vibration     7          0.600              1.961              3.830
 Vibration     8          0.606              1.943              3.306
 Vibration     9          0.617              1.906              2.709
 Vibration    10          0.620              1.897              2.614
 Vibration    11          0.626              1.878              2.424
 Vibration    12          0.631              1.860              2.276
 Vibration    13          0.644              1.821              2.017
 Vibration    14          0.658              1.776              1.790
 Vibration    15          0.668              1.747              1.668
 Vibration    16          0.681              1.707              1.523
 Vibration    17          0.685              1.695              1.483
 Vibration    18          0.698              1.657              1.368
 Vibration    19          0.731              1.565              1.145
 Vibration    20          0.793              1.400              0.851
 Vibration    21          0.811              1.356              0.789
 Vibration    22          0.824              1.323              0.746
 Vibration    23          0.852              1.259              0.668
 Vibration    24          0.877              1.201              0.605
 Vibration    25          0.898              1.155              0.559
 Vibration    26          0.925              1.099              0.506

                           ! Non-Optimized Parameters !
 Normal termination of Gaussian 16 at Fri Dec 11 22:59:29 2020.

 ----------------------------------------------------------------------
 # B3LYP/6-311++G(d,p) empiricaldispersion=gd3bj scf=xqc pop=npa geom=c
 heck
 ----------------------------------------------------------------------

 --------------------------------------
 CID_63656317_JID_8711_Energie_neutraal
 --------------------------------------
 Structure from the checkpoint file:  "JID_8711.chk"
 Charge =  0 Multiplicity = 1

 SCF Done:  E(RB3LYP) =  -751.184419282     A.U. after   15 cycles
 Normal termination of Gaussian 16 at Fri Dec 11 23:08:39 2020.

 ----------------------------------------------------------------------
 # B3LYP/6-311++G(d,p) empiricaldispersion=gd3bj scf=xqc pop=npa geom=c
 heck
 ----------------------------------------------------------------------

 ------------------------------------
 CID_63656317_JID_8711_Energie_kation
 ------------------------------------
 Structure from the checkpoint file:  "JID_8711.chk"
 Charge =  1 Multiplicity = 2

 SCF Done:  E(UB3LYP) =  -750.921168150     A.U. after   25 cycles
 Normal termination of Gaussian 16 at Fri Dec 11 23:29:02 2020.
 Gaussian 16:  ES64L-G16RevA.03 25-Dec-2016

 ----------------------------------------------------------------------
 # B3LYP/6-311++G(d,p) empiricaldispersion=gd3bj scf=xqc pop=npa geom=c
 heck
 ----------------------------------------------------------------------

 -----------------------------------
 CID_63656317_JID_8711_Energie_anion
 -----------------------------------
 Structure from the checkpoint file:  "JID_8711.chk"
 Charge = -1 Multiplicity = 2

                         Standard orientation:
 ---------------------------------------------------------------------
 Center     Atomic      Atomic             Coordinates (Angstroms)
 Number     Number       Type             X           Y           Z
 ---------------------------------------------------------------------
      1          6           0        4.742311   -1.760295    1.709344
      2          6           0        3.519653   -1.489493    0.838179
      3          7           0        3.931856   -1.089383   -0.507168
      4          6           0        2.820508   -0.815866   -1.426118
      5          6           0        1.936568    0.347678   -1.019429
      6          6           0        0.760290    0.137028   -0.313145
      7          6           0       -0.001248    1.249568    0.123529
      8          7           0        0.379724    2.512769   -0.147537
      9          6           0        1.508656    2.695316   -0.840915
     10          6           0        2.326776    1.668409   -1.291768
     11          7           0       -1.174444    1.115225    0.836041
     12          6           0       -1.834081    2.332169    1.296527
     13          6           0       -1.560300   -0.145646    1.459270
     14          6           0       -2.623613   -0.951221    0.697348
     15          6           0       -3.957791   -0.225925    0.457703
     16          6           0       -4.698317   -1.140986   -0.534118
     17          6           0       -3.579688   -1.799252   -1.394801
     18          6           0       -2.241192   -1.397766   -0.725439
     19          1           0        5.381715   -2.520813    1.250179
     20          1           0        4.443103   -2.104613    2.705252
     21          1           0        5.340031   -0.849181    1.839717
     22          1           0        2.924722   -2.407637    0.736807
     23          1           0        2.866338   -0.748884    1.331921
     24          1           0        4.510432   -0.252104   -0.437029
     25          1           0        3.250381   -0.623285   -2.416080
     26          1           0        2.221528   -1.731418   -1.503436
     27          1           0        0.431244   -0.877221   -0.126550
     28          1           0        1.767463    3.733797   -1.044999
     29          1           0        3.232649    1.882849   -1.851869
     30          1           0       -2.032824    3.002073    0.457477
     31          1           0       -2.779684    2.056502    1.766133
     32          1           0       -1.217326    2.883259    2.019339
     33          1           0       -0.667474   -0.761081    1.612174
     34          1           0       -1.942375    0.080957    2.462556
     35          1           0       -2.827043   -1.848454    1.303515
     36          1           0       -4.522723   -0.041830    1.379008
     37          1           0       -3.754961    0.745759   -0.009303
     38          1           0       -5.428369   -0.594705   -1.139616
     39          1           0       -5.253228   -1.910613    0.015052
     40          1           0       -3.615895   -1.461719   -2.435389
     41          1           0       -3.699098   -2.887658   -1.413959
     42          1           0       -1.795279   -0.547895   -1.253704
     43          1           0       -1.504473   -2.208678   -0.733552
 ---------------------------------------------------------------------

 SCF Done:  E(UB3LYP) =  -751.171884406     A.U. after   33 cycles
 SCF Done:  E(UB3LYP) =  -751.171957394     a.u. after    5 cycles

 The electronic state is 2-A.
 Alpha  occ. eigenvalues --  -14.24025 -14.21316 -14.20550 -10.15001 -10.11316
 Alpha  occ. eigenvalues --  -10.11114 -10.10815 -10.10042 -10.10028 -10.09865
 Alpha  occ. eigenvalues --  -10.07879 -10.07648 -10.07553 -10.07245 -10.06988
 Alpha  occ. eigenvalues --  -10.06961 -10.06696 -10.06548  -0.88160  -0.82467
 Alpha  occ. eigenvalues --   -0.81717  -0.74331  -0.71847  -0.66927  -0.65989
 Alpha  occ. eigenvalues --   -0.64979  -0.61393  -0.60253  -0.58200  -0.56964
 Alpha  occ. eigenvalues --   -0.52888  -0.52065  -0.48978  -0.47250  -0.46223
 Alpha  occ. eigenvalues --   -0.42955  -0.41590  -0.39540  -0.39334  -0.38383
 Alpha  occ. eigenvalues --   -0.38147  -0.37184  -0.36028  -0.35807  -0.34773
 Alpha  occ. eigenvalues --   -0.33937  -0.32634  -0.32063  -0.31235  -0.30648
 Alpha  occ. eigenvalues --   -0.29918  -0.29713  -0.29187  -0.28141  -0.27178
 Alpha  occ. eigenvalues --   -0.26534  -0.25972  -0.25381  -0.24589  -0.24310
 Alpha  occ. eigenvalues --   -0.22945  -0.22605  -0.22094  -0.20207  -0.18561
 Alpha  occ. eigenvalues --   -0.16977  -0.14316  -0.11336   0.04086
 Alpha virt. eigenvalues --    0.05643   0.06320   0.06496   0.06940   0.07399
 Alpha virt. eigenvalues --    0.07701   0.08149   0.08551   0.09088   0.09181
 Alpha virt. eigenvalues --    0.09823   0.10078   0.10224   0.10328   0.10457

  Beta  occ. eigenvalues --  -14.24027 -14.21305 -14.20550 -10.14997 -10.11306
  Beta  occ. eigenvalues --  -10.11104 -10.10796 -10.10028 -10.10013 -10.09868
  Beta  occ. eigenvalues --  -10.07857 -10.07637 -10.07537 -10.07223 -10.06973
  Beta  occ. eigenvalues --  -10.06948 -10.06678 -10.06532  -0.88151  -0.82451
  Beta  occ. eigenvalues --   -0.81704  -0.74302  -0.71828  -0.66899  -0.65960
  Beta  occ. eigenvalues --   -0.64950  -0.61356  -0.60225  -0.58166  -0.56926
  Beta  occ. eigenvalues --   -0.52856  -0.52008  -0.48949  -0.47205  -0.46181
  Beta  occ. eigenvalues --   -0.42930  -0.41568  -0.39506  -0.39306  -0.38349
  Beta  occ. eigenvalues --   -0.38106  -0.37151  -0.36004  -0.35783  -0.34749
  Beta  occ. eigenvalues --   -0.33907  -0.32610  -0.32037  -0.31204  -0.30624
  Beta  occ. eigenvalues --   -0.29898  -0.29690  -0.29163  -0.28117  -0.27137
  Beta  occ. eigenvalues --   -0.26514  -0.25942  -0.25345  -0.24552  -0.24278
  Beta  occ. eigenvalues --   -0.22906  -0.22571  -0.22067  -0.20178  -0.18516
  Beta  occ. eigenvalues --   -0.16972  -0.14302  -0.11306
  Beta virt. eigenvalues --    0.05830   0.06248   0.06591   0.06880   0.07351
  Beta virt. eigenvalues --    0.07762   0.08090   0.08333   0.08676   0.09337
  Beta virt. eigenvalues --    0.09402   0.10055   0.10248   0.10464   0.10610

 Mulliken charges and spin densities:
               1          2
     1  C    0.242631  -0.875510
     2  C   -0.130151  -0.178052
     3  N   -0.035625   0.043024
     4  C   -0.110351  -0.502517
     5  C    1.189874   0.173354
     6  C    0.059404   0.116361
     7  C   -1.382135   0.107432
     8  N   -0.052910   0.002176
     9  C    0.420842  -0.423858
    10  C   -0.897350   0.069564
    11  N    0.222167   0.024538
    12  C   -0.018168  -0.371262
    13  C    0.083939  -0.941091
    14  C   -0.333363   1.313339
    15  C    0.299523  -0.751630
    16  C    0.333965  -0.748892
    17  C    0.061371  -0.695119
    18  C    0.146400  -0.495867
    19  H   -0.008170   0.160199
    20  H   -0.125019   0.262052
    21  H   -0.096238   0.222859
    22  H   -0.277649   0.448614
    23  H    0.258194  -0.069049
    24  H    0.171507   0.034753
    25  H    0.032141   0.161717
    26  H   -0.031624   0.183539
    27  H    0.475670  -0.329854
    28  H    0.028562   0.142926
    29  H   -0.179473   0.322672
    30  H    0.119476   0.077149
    31  H   -0.076897   0.221377
    32  H   -0.029529   0.196179
    33  H   -0.295451   0.450193
    34  H   -0.324773   0.508445
    35  H   -0.459769   0.685853
    36  H   -0.294267   0.462184
    37  H    0.213677  -0.077215
    38  H   -0.085216   0.228233
    39  H   -0.027561   0.174468
    40  H    0.057397   0.071419
    41  H   -0.098499   0.255741
    42  H    0.059985   0.099172
    43  H   -0.106537   0.240387
 Sum of Mulliken charges =  -1.00000   1.00000

 Dipole moment (field-independent basis, Debye):
    X=              1.7054    Y=              3.7822    Z=             -3.5248  Tot=              5.4441
 Quadrupole moment (field-independent basis, Debye-Ang):
   XX=           -200.5575   YY=           -165.6002   ZZ=           -155.1767
   XY=             -0.8616   XZ=              4.9777   YZ=              3.9675

 Summary of Natural Population Analysis:

                                       Natural Population
                Natural  -----------------------------------------------
    Atom  No    Charge         Core      Valence    Rydberg      Total
 -----------------------------------------------------------------------
      C    1   -0.28584      0.99967     2.28165    0.00452     3.28584
      C    2   -0.09179      0.99964     2.08144    0.01071     3.09179
      N    3   -0.33213      0.99975     2.82075    0.01162     3.83213
      C    4   -0.09409      0.99958     2.08309    0.01142     3.09409
      C    5   -0.00125      0.99951     1.99254    0.00921     3.00125
      C    6   -0.14390      0.99947     2.13615    0.00828     3.14390
      C    7    0.21508      0.99951     1.77098    0.01442     2.78492
      N    8   -0.26677      0.99968     2.75725    0.00985     3.76677
      C    9    0.03833      0.99959     1.94771    0.01437     2.96167
      C   10   -0.15296      0.99950     2.14401    0.00945     3.15296
      N   11   -0.24939      0.99964     2.73894    0.01081     3.74939
      C   12   -0.17498      0.99963     2.16670    0.00864     3.17498
      C   13   -0.07773      0.99957     2.06544    0.01271     3.07773
      C   14   -0.11509      0.99958     2.10319    0.01232     3.11509
      C   15   -0.19148      0.99962     2.18315    0.00871     3.19148
      C   16   -0.19103      0.99964     2.18394    0.00745     3.19103
      C   17   -0.19149      0.99965     2.18420    0.00765     3.19149
      C   18   -0.19323      0.99962     2.18473    0.00889     3.19323
      H   19    0.09871      0.00000     0.39989    0.00140     0.40129
      H   20    0.10105      0.00000     0.39791    0.00105     0.39895
      H   21    0.09327      0.00000     0.40542    0.00131     0.40673
      H   22    0.09074      0.00000     0.40754    0.00171     0.40926
      H   23    0.08436      0.00000     0.41377    0.00187     0.41564
      H   24    0.16831      0.00000     0.32853    0.00316     0.33169
      H   25    0.09658      0.00000     0.40235    0.00107     0.40342
      H   26    0.09710      0.00000     0.40146    0.00144     0.40290
      H   27    0.10744      0.00000     0.38974    0.00282     0.39256
      H   28    0.08695      0.00000     0.41203    0.00101     0.41305
      H   29    0.10084      0.00000     0.39789    0.00127     0.39916
      H   30    0.10298      0.00000     0.39587    0.00115     0.39702
      H   31    0.09689      0.00000     0.40221    0.00090     0.40311
      H   32    0.09456      0.00000     0.40424    0.00119     0.40544
      H   33    0.10087      0.00000     0.39711    0.00202     0.39913
      H   34    0.09951      0.00000     0.39893    0.00156     0.40049
      H   35    0.09863      0.00000     0.39879    0.00259     0.40137
      H   36    0.10175      0.00000     0.39693    0.00132     0.39825
      H   37    0.09445      0.00000     0.40390    0.00165     0.40555
      H   38    0.09591      0.00000     0.40324    0.00085     0.40409
      H   39    0.09658      0.00000     0.40211    0.00131     0.40342
      H   40    0.09513      0.00000     0.40401    0.00086     0.40487
      H   41    0.09780      0.00000     0.40115    0.00105     0.40220
      H   42    0.09813      0.00000     0.40006    0.00181     0.40187
      H   43    0.10118      0.00000     0.39730    0.00152     0.39882
 =======================================================================
   * Total *    0.00000     17.99285    49.78826    0.21889    68.00000

 Normal termination of Gaussian 16 at Sat Dec 12 01:56:06 2020.
