 Gaussian 16, Revision A.03,

 -----------------------------------------------------------
 # opt freq B3LYP/6-31G(d) empiricaldispersion=gd3bj scf=xqc
 -----------------------------------------------------------

 -------------------------------
 CID_84207435_JID_10749_neutraal
 -------------------------------
 Symbolic Z-matrix:
 Charge =  0 Multiplicity = 1

 SCF Done:  E(RB3LYP) =  -826.001555949     A.U. after   14 cycles
 SCF Done:  E(RB3LYP) =  -826.008315760     A.U. after   12 cycles
 SCF Done:  E(RB3LYP) =  -826.010275067     A.U. after   12 cycles
 SCF Done:  E(RB3LYP) =  -826.007875621     A.U. after   14 cycles
 SCF Done:  E(RB3LYP) =  -826.010697168     A.U. after   12 cycles
 SCF Done:  E(RB3LYP) =  -826.011002704     A.U. after   12 cycles
 SCF Done:  E(RB3LYP) =  -826.011053174     A.U. after   11 cycles
 SCF Done:  E(RB3LYP) =  -826.011072296     A.U. after   10 cycles
 SCF Done:  E(RB3LYP) =  -826.011074019     A.U. after    8 cycles
 SCF Done:  E(RB3LYP) =  -826.011074824     A.U. after    7 cycles
 SCF Done:  E(RB3LYP) =  -826.011108315     A.U. after    9 cycles
 SCF Done:  E(RB3LYP) =  -826.011109846     A.U. after    8 cycles
 SCF Done:  E(RB3LYP) =  -826.011110256     A.U. after    7 cycles
 SCF Done:  E(RB3LYP) =  -826.011110700     A.U. after    9 cycles
 SCF Done:  E(RB3LYP) =  -826.011110733     A.U. after    7 cycles
 Optimization completed.
    -- Stationary point found.
 Normal termination of Gaussian 16 at Sat Dec 12 17:05:05 2020.

 --------------------------------------------------------------------
 #N Geom=AllCheck Guess=TCheck SCRF=Check GenChk RB3LYP/6-31G(d) Freq
 --------------------------------------------------------------------

 Structure from the checkpoint file:  "JID_10749.chk"
 -------------------------------
 CID_84207435_JID_10749_neutraal
 -------------------------------
 Charge =  0 Multiplicity = 1

 SCF Done:  E(RB3LYP) =  -826.011110733     A.U. after    1 cycles

  Exact polarizability: 237.573  -6.272 201.779  12.912   3.802 135.321
 Approx polarizability: 323.509  -8.679 305.175  26.243   6.505 216.408

                      1                      2                      3
                      A                      A                      A
 Frequencies --     33.1008                35.4300                42.4343
 Red. masses --      2.4173                 1.2196                 4.1196
 Frc consts  --      0.0016                 0.0009                 0.0044
 IR Inten    --      0.3345                 0.3002                 1.0216

                      4                      5                      6
                      A                      A                      A
 Frequencies --     49.1825                75.1775                95.3840
 Red. masses --      3.9975                 3.2937                 1.2780
 Frc consts  --      0.0057                 0.0110                 0.0069
 IR Inten    --      0.7183                 1.2028                 0.1470

                      7                      8                      9
                      A                      A                      A
 Frequencies --    100.0514               120.9774               139.1585
 Red. masses --      3.7587                 1.7136                 2.4002
 Frc consts  --      0.0222                 0.0148                 0.0274
 IR Inten    --      1.5195                 0.4156                 2.0846

                     10                     11                     12
                      A                      A                      A
 Frequencies --    152.5641               177.3456               202.2783
 Red. masses --      1.5288                 3.0156                 3.4815
 Frc consts  --      0.0210                 0.0559                 0.0839
 IR Inten    --      0.2153                 0.5353                 0.7610

                     13                     14                     15
                      A                      A                      A
 Frequencies --    229.7921               241.8941               260.7622
 Red. masses --      3.1525                 3.1511                 2.7760
 Frc consts  --      0.0981                 0.1086                 0.1112
 IR Inten    --      0.5604                 1.8313                 0.9590

                     16                     17                     18
                      A                      A                      A
 Frequencies --    289.9686               314.0111               345.7435
 Red. masses --      2.5258                 3.0398                 2.4499
 Frc consts  --      0.1251                 0.1766                 0.1725
 IR Inten    --      0.6511                 0.2351                 0.4912

                     19                     20                     21
                      A                      A                      A
 Frequencies --    358.1456               401.0992               426.1895
 Red. masses --      2.4560                 3.9495                 3.4066
 Frc consts  --      0.1856                 0.3744                 0.3646
 IR Inten    --      1.5491                 0.8608                 1.5342

                     22                     23                     24
                      A                      A                      A
 Frequencies --    444.4401               455.9416               475.6512
 Red. masses --      2.8245                 3.3020                 3.5395
 Frc consts  --      0.3287                 0.4044                 0.4718
 IR Inten    --      0.3125                14.5292                 1.2646

                     25                     26                     27
                      A                      A                      A
 Frequencies --    477.9926               526.0176               533.2494
 Red. masses --      3.0514                 3.0335                 3.6883
 Frc consts  --      0.4108                 0.4945                 0.6179
 IR Inten    --      3.7904                 3.6679                 5.1657

                     28                     29                     30
                      A                      A                      A
 Frequencies --    557.9003               622.6449               627.5650
 Red. masses --      3.8013                 3.4522                 3.0558
 Frc consts  --      0.6971                 0.7885                 0.7091
 IR Inten    --      1.7029                 0.4783                 3.6408

                     31                     32                     33
                      A                      A                      A
 Frequencies --    644.7909               700.8987               724.3503
 Red. masses --      3.1118                 3.6767                 4.7743
 Frc consts  --      0.7623                 1.0642                 1.4759
 IR Inten    --     29.3512                 2.3412                 0.4913

                     34                     35                     36
                      A                      A                      A
 Frequencies --    729.0709               752.8079               757.1615
 Red. masses --      4.1803                 3.8364                 3.8199
 Frc consts  --      1.3092                 1.2810                 1.2903
 IR Inten    --      2.3648                 2.4955                 2.2582

                     37                     38                     39
                      A                      A                      A
 Frequencies --    767.0651               771.2208               796.6911
 Red. masses --      2.3715                 1.3977                 2.0682
 Frc consts  --      0.8221                 0.4898                 0.7734
 IR Inten    --     47.6680                 4.8660                27.3462

                     40                     41                     42
                      A                      A                      A
 Frequencies --    824.8457               871.6931               911.2535
 Red. masses --      1.2638                 2.1226                 2.1355
 Frc consts  --      0.5066                 0.9503                 1.0448
 IR Inten    --     13.8154                 9.3335                 2.5381

                     43                     44                     45
                      A                      A                      A
 Frequencies --    923.5476               944.4053               950.5434
 Red. masses --      3.3037                 1.2686                 2.6770
 Frc consts  --      1.6602                 0.6667                 1.4251
 IR Inten    --      3.5069                 0.1567                24.5161

                     46                     47                     48
                      A                      A                      A
 Frequencies --    968.2722               988.6508              1010.3013
 Red. masses --      1.3446                 2.0043                 1.9207
 Frc consts  --      0.7427                 1.1543                 1.1551
 IR Inten    --     20.2599                 4.6155                 0.1424

                     49                     50                     51
                      A                      A                      A
 Frequencies --   1020.3972              1037.4395              1050.9719
 Red. masses --      2.0212                 1.5406                 1.8712
 Frc consts  --      1.2399                 0.9770                 1.2177
 IR Inten    --      3.5136                 3.1224                 1.2830

                     52                     53                     54
                      A                      A                      A
 Frequencies --   1070.0557              1077.2536              1079.0538
 Red. masses --      1.6355                 1.8159                 1.5412
 Frc consts  --      1.1033                 1.2416                 1.0573
 IR Inten    --      1.3495                 2.7182                16.8637

                     55                     56                     57
                      A                      A                      A
 Frequencies --   1082.9808              1094.5008              1119.7853
 Red. masses --      2.1623                 2.1751                 2.6400
 Frc consts  --      1.4942                 1.5352                 1.9504
 IR Inten    --      6.6000                 5.2386                10.6300

                     58                     59                     60
                      A                      A                      A
 Frequencies --   1138.7812              1153.2719              1160.2357
 Red. masses --      2.7529                 3.1157                 1.3063
 Frc consts  --      2.1034                 2.4416                 1.0361
 IR Inten    --     14.0783                18.9044                 0.1435

                     61                     62                     63
                      A                      A                      A
 Frequencies --   1193.6567              1199.9397              1213.8881
 Red. masses --      1.4724                 1.7030                 1.3982
 Frc consts  --      1.2360                 1.4447                 1.2139
 IR Inten    --      2.0545                 2.3787                10.6828

                     64                     65                     66
                      A                      A                      A
 Frequencies --   1231.6214              1243.3639              1253.9356
 Red. masses --      1.2695                 1.5034                 1.3926
 Frc consts  --      1.1346                 1.3694                 1.2901
 IR Inten    --      2.1191                 1.6351                 8.0393

                     67                     68                     69
                      A                      A                      A
 Frequencies --   1257.4432              1265.0958              1280.8280
 Red. masses --      1.7287                 1.5071                 3.4382
 Frc consts  --      1.6104                 1.4212                 3.3232
 IR Inten    --      6.0792                 6.0363                 0.4458

                     70                     71                     72
                      A                      A                      A
 Frequencies --   1310.3716              1341.2892              1347.0503
 Red. masses --      2.0138                 1.3523                 2.3683
 Frc consts  --      2.0373                 1.4334                 2.5319
 IR Inten    --     19.6512                 3.1824                 2.8323

                     73                     74                     75
                      A                      A                      A
 Frequencies --   1359.6812              1367.5235              1376.0032
 Red. masses --      2.3700                 1.5167                 1.5575
 Frc consts  --      2.5815                 1.6711                 1.7374
 IR Inten    --      5.5978                10.6433                 1.2347

                     76                     77                     78
                      A                      A                      A
 Frequencies --   1385.2761              1403.9383              1410.3146
 Red. masses --      1.3772                 1.3223                 2.8188
 Frc consts  --      1.5571                 1.5356                 3.3033
 IR Inten    --      3.1155                 5.6067                37.1812

                     79                     80                     81
                      A                      A                      A
 Frequencies --   1438.3505              1440.6557              1445.0851
 Red. masses --      1.8879                 1.2656                 1.2857
 Frc consts  --      2.3012                 1.5476                 1.5819
 IR Inten    --      1.8390                 0.0435                 0.1979

                     82                     83                     84
                      A                      A                      A
 Frequencies --   1459.1298              1460.1357              1476.6418
 Red. masses --      4.3652                 2.7524                 1.3570
 Frc consts  --      5.4758                 3.4574                 1.7433
 IR Inten    --      0.7661                 5.3152                37.3025

                     85                     86                     87
                      A                      A                      A
 Frequencies --   1500.3541              1507.4575              1511.7942
 Red. masses --      1.2087                 1.1272                 1.0642
 Frc consts  --      1.6031                 1.5092                 1.4330
 IR Inten    --      2.8668                 5.8274                 7.3765

                     88                     89                     90
                      A                      A                      A
 Frequencies --   1514.1249              1517.3991              1518.7886
 Red. masses --      1.1418                 1.0942                 1.0915
 Frc consts  --      1.5422                 1.4843                 1.4834
 IR Inten    --      2.6488                 2.7827                 6.4326

                     91                     92                     93
                      A                      A                      A
 Frequencies --   1519.4695              1527.5579              1531.5141
 Red. masses --      1.0623                 1.1400                 1.1545
 Frc consts  --      1.4451                 1.5673                 1.5954
 IR Inten    --      4.4112                 6.4793                11.6483

                     94                     95                     96
                      A                      A                      A
 Frequencies --   1533.0097              1545.3525              1545.8579
 Red. masses --      1.1184                 1.1272                 2.6464
 Frc consts  --      1.5486                 1.5860                 3.7260
 IR Inten    --     23.5889                10.1575                74.7309

                     97                     98                     99
                      A                      A                      A
 Frequencies --   1558.7225              1635.0660              1641.2435
 Red. masses --      2.6046                 5.4414                 7.7411
 Frc consts  --      3.7285                 8.5711                12.2856
 IR Inten    --     18.4854                 2.6700                 8.1839

                    100                    101                    102
                      A                      A                      A
 Frequencies --   1676.1784              2957.6753              3024.7522
 Red. masses --      5.7595                 1.0730                 1.0609
 Frc consts  --      9.5340                 5.5301                 5.7190
 IR Inten    --      7.8801                55.7255                30.5781

                    103                    104                    105
                      A                      A                      A
 Frequencies --   3025.1144              3037.6637              3039.9528
 Red. masses --      1.0591                 1.0408                 1.0393
 Frc consts  --      5.7105                 5.6586                 5.6590
 IR Inten    --     43.2156                46.5106                27.4933

                    106                    107                    108
                      A                      A                      A
 Frequencies --   3054.5761              3057.4495              3059.4189
 Red. masses --      1.0769                 1.0497                 1.0813
 Frc consts  --      5.9201                 5.7812                 5.9633
 IR Inten    --     31.7570                27.8124                48.0557

                    109                    110                    111
                      A                      A                      A
 Frequencies --   3060.6616              3076.8676              3089.0134
 Red. masses --      1.0807                 1.0966                 1.0990
 Frc consts  --      5.9649                 6.1166                 6.1785
 IR Inten    --     24.6189                76.2679                22.4865

                    112                    113                    114
                      A                      A                      A
 Frequencies --   3092.9387              3094.2486              3117.2018
 Red. masses --      1.0903                 1.0949                 1.1059
 Frc consts  --      6.1454                 6.1765                 6.3312
 IR Inten    --     53.9189                24.5930                19.3855

                    115                    116                    117
                      A                      A                      A
 Frequencies --   3119.1554              3121.8480              3122.1798
 Red. masses --      1.0971                 1.1001                 1.1027
 Frc consts  --      6.2888                 6.3168                 6.3333
 IR Inten    --     23.9727                10.2211                24.1901

                    118                    119                    120
                      A                      A                      A
 Frequencies --   3155.4494              3165.1550              3182.3927
 Red. masses --      1.1025                 1.0864                 1.0915
 Frc consts  --      6.4679                 6.4123                 6.5131
 IR Inten    --     10.5115                16.1544                 1.3532

                    121                    122                    123
                      A                      A                      A
 Frequencies --   3184.4247              3257.7744              3510.4656
 Red. masses --      1.0942                 1.0962                 1.0744
 Frc consts  --      6.5376                 6.8545                 7.8010
 IR Inten    --     47.8990                 4.3906                 1.0722

 - Thermochemistry -
 -------------------
 Temperature   298.150 Kelvin.  Pressure   1.00000 Atm.
 Atom     1 has atomic number  6 and mass  12.00000

 Molecular mass:   269.18920 amu.
 Principal axes and moments of inertia in atomic units:
                           1         2         3
     Eigenvalues --  3012.220608984.59036**********
           X            1.00000  -0.00076   0.00077
           Y            0.00074   0.99984   0.01768
           Z           -0.00078  -0.01768   0.99984
 This molecule is an asymmetric top.
 Rotational symmetry number  1.
 Warning -- assumption of classical behavior for rotation
           may cause significant error
 Rotational temperatures (Kelvin)      0.02875     0.00964     0.00814
 Rotational constants (GHZ):           0.59914     0.20087     0.16965
 Zero-point vibrational energy     989825.4 (Joules/Mol)
                                  236.57394 (Kcal/Mol)
 Warning -- explicit consideration of  28 degrees of freedom as
           vibrations may cause significant error
 Vibrational temperatures:     47.62    50.98    61.05    70.76   108.16
          (Kelvin)            137.24   143.95   174.06   200.22   219.51
                              255.16   291.03   330.62   348.03   375.18
                              417.20   451.79   497.45   515.29   577.09
                              613.19   639.45   656.00   684.36   687.72
                              756.82   767.23   802.69   895.85   902.93
                              927.71  1008.44  1042.18  1048.97  1083.12
                             1089.39  1103.64  1109.61  1146.26  1186.77
                             1254.17  1311.09  1328.78  1358.79  1367.62
                             1393.13  1422.45  1453.60  1468.12  1492.64
                             1512.11  1539.57  1549.93  1552.52  1558.17
                             1574.74  1611.12  1638.45  1659.30  1669.32
                             1717.41  1726.45  1746.51  1772.03  1788.92
                             1804.13  1809.18  1820.19  1842.83  1885.33
                             1929.82  1938.10  1956.28  1967.56  1979.76
                             1993.10  2019.95  2029.13  2069.47  2072.78
                             2079.16  2099.36  2100.81  2124.56  2158.67
                             2168.90  2175.13  2178.49  2183.20  2185.20
                             2186.18  2197.82  2203.51  2205.66  2223.42
                             2224.14  2242.65  2352.50  2361.38  2411.65
                             4255.44  4351.94  4352.46  4370.52  4373.81
                             4394.85  4398.99  4401.82  4403.61  4426.93
                             4444.40  4450.05  4451.93  4484.96  4487.77
                             4491.64  4492.12  4539.99  4553.95  4578.75
                             4581.68  4687.21  5050.78

 Zero-point correction=                           0.377005 (Hartree/Particle)
 Thermal correction to Energy=                    0.396157
 Thermal correction to Enthalpy=                  0.397101
 Thermal correction to Gibbs Free Energy=         0.328325
 Sum of electronic and zero-point Energies=           -825.634106
 Sum of electronic and thermal Energies=              -825.614954
 Sum of electronic and thermal Enthalpies=            -825.614010
 Sum of electronic and thermal Free Energies=         -825.682786

                     E (Thermal)             CV                S
                      KCal/Mol        Cal/Mol-Kelvin    Cal/Mol-Kelvin
 Total                  248.592             73.399            144.751
 Electronic               0.000              0.000              0.000
 Translational            0.889              2.981             42.670
 Rotational               0.889              2.981             34.020
 Vibrational            246.815             67.437             68.061
 Vibration     1          0.594              1.983              5.634
 Vibration     2          0.594              1.982              5.500
 Vibration     3          0.595              1.980              5.142
 Vibration     4          0.595              1.978              4.850
 Vibration     5          0.599              1.966              4.013
 Vibration     6          0.603              1.952              3.547
 Vibration     7          0.604              1.949              3.453
 Vibration     8          0.609              1.932              3.085
 Vibration     9          0.615              1.914              2.815
 Vibration    10          0.619              1.900              2.640
 Vibration    11          0.628              1.870              2.356
 Vibration    12          0.639              1.837              2.112
 Vibration    13          0.652              1.796              1.881
 Vibration    14          0.658              1.776              1.789
 Vibration    15          0.669              1.745              1.657
 Vibration    16          0.686              1.692              1.474
 Vibration    17          0.702              1.647              1.341
 Vibration    18          0.724              1.584              1.186
 Vibration    19          0.733              1.559              1.130
 Vibration    20          0.767              1.468              0.959
 Vibration    21          0.788              1.413              0.871
 Vibration    22          0.804              1.373              0.813
 Vibration    23          0.814              1.348              0.778
 Vibration    24          0.832              1.304              0.722
 Vibration    25          0.834              1.299              0.715
 Vibration    26          0.881              1.192              0.596
 Vibration    27          0.888              1.176              0.580
 Vibration    28          0.913              1.122              0.528

 Optimization completed.
    -- Stationary point found.
 Normal termination of Gaussian 16 at Sat Dec 12 17:27:52 2020.

 ----------------------------------------------------------------------
 # B3LYP/6-311++G(d,p) empiricaldispersion=gd3bj scf=xqc pop=npa geom=c
 heck
 ----------------------------------------------------------------------

 ---------------------------------------
 CID_84207435_JID_10749_Energie_neutraal
 ---------------------------------------
 Structure from the checkpoint file:  "JID_10749.chk"
 Charge =  0 Multiplicity = 1

 SCF Done:  E(RB3LYP) =  -826.225595265     A.U. after   15 cycles
 Normal termination of Gaussian 16 at Sat Dec 12 17:37:12 2020.

 ----------------------------------------------------------------------
 # B3LYP/6-311++G(d,p) empiricaldispersion=gd3bj scf=xqc pop=npa geom=c
 heck
 ----------------------------------------------------------------------

 -------------------------------------
 CID_84207435_JID_10749_Energie_kation
 -------------------------------------
 Structure from the checkpoint file:  "JID_10749.chk"
 Charge =  1 Multiplicity = 2

 SCF Done:  E(UB3LYP) =  -825.957012299     A.U. after   29 cycles
 Normal termination of Gaussian 16 at Sat Dec 12 18:01:37 2020.
 Gaussian 16:  ES64L-G16RevA.03 25-Dec-2016

 ----------------------------------------------------------------------
 # B3LYP/6-311++G(d,p) empiricaldispersion=gd3bj scf=xqc pop=npa geom=c
 heck
 ----------------------------------------------------------------------

 ------------------------------------
 CID_84207435_JID_10749_Energie_anion
 ------------------------------------
 Structure from the checkpoint file:  "JID_10749.chk"
 Charge = -1 Multiplicity = 2

                         Standard orientation:
 ---------------------------------------------------------------------
 Center     Atomic      Atomic             Coordinates (Angstroms)
 Number     Number       Type             X           Y           Z
 ---------------------------------------------------------------------
      1          6           0        2.926626    3.113355    1.025063
      2          6           0        3.071417    1.691886    0.537564
      3          6           0        2.048793    1.084602   -0.199612
      4          6           0        2.156996   -0.223286   -0.684375
      5          6           0        3.335005   -0.957121   -0.434217
      6          6           0        4.355921   -0.347890    0.301572
      7          6           0        4.230606    0.953181    0.785985
      8          6           0        3.520125   -2.364132   -0.952894
      9          6           0        0.990196   -0.830288   -1.434772
     10          6           0        0.052272   -1.660906   -0.533490
     11          6           0       -0.672775   -0.850508    0.566228
     12          6           0       -1.641394    0.158476    0.019682
     13          6           0       -3.001439    0.040927    0.163836
     14          6           0       -3.711850   -1.070619    0.857890
     15          6           0       -2.698111   -2.221763    0.996217
     16          7           0       -1.429033   -1.702434    1.513024
     17          7           0       -3.541647    1.160653   -0.445498
     18          6           0       -2.483437    1.887469   -0.927770
     19          7           0       -1.325055    1.315194   -0.666454
     20          6           0       -4.947399    1.497625   -0.543983
     21          1           0        3.224295    3.832885    0.250428
     22          1           0        1.888450    3.337996    1.291846
     23          1           0        3.553721    3.302093    1.903086
     24          1           0        1.128199    1.629506   -0.396397
     25          1           0        5.268125   -0.906424    0.500351
     26          1           0        5.041595    1.395730    1.360215
     27          1           0        2.752294   -3.050725   -0.576605
     28          1           0        3.467885   -2.403531   -2.048556
     29          1           0        4.494718   -2.762759   -0.654653
     30          1           0        0.407236   -0.032725   -1.903397
     31          1           0        1.354806   -1.479062   -2.239925
     32          1           0       -0.694992   -2.160963   -1.162549
     33          1           0        0.633476   -2.450110   -0.035724
     34          1           0        0.090317   -0.327098    1.154274
     35          1           0       -4.592083   -1.415523    0.298321
     36          1           0       -4.057881   -0.759421    1.853529
     37          1           0       -2.605946   -2.721937    0.015284
     38          1           0       -3.073865   -2.964856    1.706835
     39          1           0       -0.836082   -2.477771    1.798543
     40          1           0       -2.627257    2.820188   -1.457097
     41          1           0       -5.500007    0.710743   -1.068085
     42          1           0       -5.386808    1.634443    0.449748
     43          1           0       -5.049370    2.429365   -1.104503
 ---------------------------------------------------------------------

 SCF Done:  E(UB3LYP) =  -826.215802316     A.U. after   33 cycles
 SCF Done:  E(UB3LYP) =  -826.215802316     a.u. after    1 cycles

 The electronic state is 2-A.
 Alpha  occ. eigenvalues --  -14.27177 -14.20390 -14.19548 -10.12270 -10.11225
 Alpha  occ. eigenvalues --  -10.10538 -10.10139 -10.09695 -10.09394 -10.09351
 Alpha  occ. eigenvalues --  -10.08848 -10.08808 -10.08648 -10.08576 -10.08486
 Alpha  occ. eigenvalues --  -10.08253 -10.08175 -10.07563 -10.07509 -10.07319
 Alpha  occ. eigenvalues --   -0.91927  -0.81983  -0.78850  -0.77665  -0.71269
 Alpha  occ. eigenvalues --   -0.69483  -0.68557  -0.65922  -0.63889  -0.62702
 Alpha  occ. eigenvalues --   -0.61974  -0.57540  -0.56410  -0.52913  -0.52694
 Alpha  occ. eigenvalues --   -0.50759  -0.48425  -0.46799  -0.43741  -0.42122
 Alpha  occ. eigenvalues --   -0.40260  -0.39934  -0.38881  -0.38703  -0.36947
 Alpha  occ. eigenvalues --   -0.36622  -0.35287  -0.34717  -0.34182  -0.33618
 Alpha  occ. eigenvalues --   -0.33018  -0.32333  -0.32038  -0.31537  -0.31204
 Alpha  occ. eigenvalues --   -0.30198  -0.30009  -0.29498  -0.29162  -0.28481
 Alpha  occ. eigenvalues --   -0.27389  -0.26308  -0.25582  -0.25452  -0.24876
 Alpha  occ. eigenvalues --   -0.24243  -0.23440  -0.17645  -0.17157  -0.16055
 Alpha  occ. eigenvalues --   -0.15001  -0.13110  -0.12032   0.03923
 Alpha virt. eigenvalues --    0.05302   0.06084   0.06645   0.06981   0.07247
 Alpha virt. eigenvalues --    0.07437   0.08004   0.08386   0.08998   0.09137
 Alpha virt. eigenvalues --    0.09692   0.09766   0.10237   0.10503   0.10827

  Beta  occ. eigenvalues --  -14.27175 -14.20380 -14.19546 -10.12259 -10.11148
  Beta  occ. eigenvalues --  -10.10538 -10.10120 -10.09693 -10.09394 -10.09348
  Beta  occ. eigenvalues --  -10.08844 -10.08806 -10.08645 -10.08561 -10.08480
  Beta  occ. eigenvalues --  -10.08251 -10.08148 -10.07560 -10.07495 -10.07317
  Beta  occ. eigenvalues --   -0.91917  -0.81965  -0.78835  -0.77657  -0.71258
  Beta  occ. eigenvalues --   -0.69467  -0.68531  -0.65907  -0.63875  -0.62661
  Beta  occ. eigenvalues --   -0.61910  -0.57521  -0.56386  -0.52880  -0.52660
  Beta  occ. eigenvalues --   -0.50746  -0.48385  -0.46772  -0.43710  -0.42061
  Beta  occ. eigenvalues --   -0.40246  -0.39926  -0.38850  -0.38671  -0.36923
  Beta  occ. eigenvalues --   -0.36583  -0.35271  -0.34692  -0.34164  -0.33603
  Beta  occ. eigenvalues --   -0.32997  -0.32312  -0.32022  -0.31519  -0.31166
  Beta  occ. eigenvalues --   -0.30153  -0.29982  -0.29482  -0.29146  -0.28457
  Beta  occ. eigenvalues --   -0.27362  -0.26283  -0.25563  -0.25433  -0.24860
  Beta  occ. eigenvalues --   -0.24225  -0.23430  -0.17633  -0.17138  -0.16036
  Beta  occ. eigenvalues --   -0.14980  -0.13085  -0.12023
  Beta virt. eigenvalues --    0.05484   0.06205   0.06580   0.06954   0.07174
  Beta virt. eigenvalues --    0.07448   0.07699   0.08459   0.08809   0.09283
  Beta virt. eigenvalues --    0.09413   0.09977   0.10041   0.10276   0.10647

 Mulliken charges and spin densities:
               1          2
     1  C   -0.467395  -0.113380
     2  C    0.311875  -0.051604
     3  C   -0.503585   0.041117
     4  C    0.742252   0.084558
     5  C   -0.195164   0.571812
     6  C   -0.182308  -0.307272
     7  C   -0.479772  -0.060703
     8  C    0.218260  -0.924239
     9  C   -0.742563   0.421382
    10  C    0.136232  -0.429220
    11  C   -0.324474  -0.052436
    12  C   -0.225889  -0.328757
    13  C    0.356428  -0.391198
    14  C   -0.558927   0.046586
    15  C    0.570516  -0.893051
    16  N   -0.111986   0.110984
    17  N   -0.259356   0.308446
    18  C    0.151045   0.131431
    19  N   -0.213748   0.069948
    20  C    1.749440  -2.039670
    21  H    0.147916   0.012417
    22  H    0.136220   0.018877
    23  H    0.115934   0.013666
    24  H    0.266883  -0.006493
    25  H    0.025062   0.094698
    26  H    0.082280   0.045600
    27  H   -0.128983   0.274495
    28  H    0.098814   0.059376
    29  H   -0.012000   0.157551
    30  H    0.169289   0.031177
    31  H    0.039076   0.138124
    32  H    0.026953   0.082629
    33  H    0.139817  -0.003138
    34  H    0.249777  -0.006307
    35  H   -0.210018   0.363456
    36  H    0.138072   0.046649
    37  H   -0.026361   0.141371
    38  H   -0.343321   0.510444
    39  H    0.098033   0.137285
    40  H   -0.158540   0.351589
    41  H   -0.551095   0.743176
    42  H   -0.475988   0.656891
    43  H   -0.798703   0.941736
 Sum of Mulliken charges =  -1.00000   1.00000

 Dipole moment (field-independent basis, Debye):
    X=             11.3616    Y=             -0.2836    Z=              1.0334  Tot=             11.4120
 Quadrupole moment (field-independent basis, Debye-Ang):
   XX=           -242.0076   YY=           -168.7512   ZZ=           -155.5928
   XY=             15.7241   XZ=             -4.9278   YZ=              6.3518

 Summary of Natural Population Analysis:

                                       Natural Population
                Natural  -----------------------------------------------
    Atom  No    Charge         Core      Valence    Rydberg      Total
 -----------------------------------------------------------------------
      C    1   -0.29245      0.99964     2.28759    0.00522     3.29245
      C    2   -0.02514      0.99954     2.01651    0.00909     3.02514
      C    3   -0.09665      0.99947     2.08940    0.00778     3.09665
      C    4    0.02796      0.99948     1.96463    0.00793     2.97204
      C    5   -0.03858      0.99953     2.02452    0.01453     3.03858
      C    6   -0.09538      0.99948     2.08797    0.00793     3.09538
      C    7   -0.10880      0.99952     2.09930    0.00998     3.10880
      C    8   -0.29580      0.99964     2.29049    0.00567     3.29580
      C    9   -0.21631      0.99962     2.20253    0.01416     3.21631
      C   10   -0.18613      0.99960     2.17779    0.00874     3.18613
      C   11   -0.02760      0.99956     2.01298    0.01506     3.02760
      C   12    0.07309      0.99942     1.91546    0.01203     2.92691
      C   13    0.06013      0.99945     1.92741    0.01301     2.93987
      C   14   -0.20574      0.99960     2.19688    0.00925     3.20574
      C   15   -0.08243      0.99963     2.07180    0.01100     3.08243
      N   16   -0.33701      0.99975     2.82659    0.01067     3.83701
      N   17   -0.20287      0.99962     2.69126    0.01199     3.70287
      C   18    0.10728      0.99962     1.87469    0.01841     2.89272
      N   19   -0.27427      0.99971     2.76113    0.01344     3.77427
      C   20   -0.17295      0.99964     2.16517    0.00814     3.17295
      H   21    0.10142      0.00000     0.39731    0.00127     0.39858
      H   22    0.10621      0.00000     0.39274    0.00106     0.39379
      H   23    0.09814      0.00000     0.40089    0.00097     0.40186
      H   24    0.11432      0.00000     0.38272    0.00296     0.38568
      H   25    0.09539      0.00000     0.40353    0.00108     0.40461
      H   26    0.09537      0.00000     0.40365    0.00098     0.40463
      H   27    0.10529      0.00000     0.39353    0.00118     0.39471
      H   28    0.10257      0.00000     0.39635    0.00108     0.39743
      H   29    0.10015      0.00000     0.39901    0.00083     0.39985
      H   30    0.11532      0.00000     0.38278    0.00190     0.38468
      H   31    0.09966      0.00000     0.39897    0.00136     0.40034
      H   32    0.09896      0.00000     0.39966    0.00138     0.40104
      H   33    0.09119      0.00000     0.40728    0.00153     0.40881
      H   34    0.10216      0.00000     0.39492    0.00292     0.39784
      H   35    0.10753      0.00000     0.39063    0.00184     0.39247
      H   36    0.10408      0.00000     0.39438    0.00153     0.39592
      H   37    0.07977      0.00000     0.41842    0.00180     0.42023
      H   38    0.09591      0.00000     0.40297    0.00113     0.40409
      H   39    0.17388      0.00000     0.32351    0.00262     0.32612
      H   40    0.09231      0.00000     0.40637    0.00132     0.40769
      H   41    0.10384      0.00000     0.39276    0.00340     0.39616
      H   42    0.10092      0.00000     0.39680    0.00228     0.39908
      H   43    0.10538      0.00000     0.39137    0.00325     0.39462
 =======================================================================
   * Total *    0.00011     19.99151    52.75466    0.25371    72.99989

 Normal termination of Gaussian 16 at Sat Dec 12 18:29:46 2020.
