 Gaussian 16, Revision A.03,

 -----------------------------------------------------------
 # opt freq B3LYP/6-31G(d) empiricaldispersion=gd3bj scf=xqc
 -----------------------------------------------------------

 -------------------------------
 CID_132042416_JID_3200_neutraal
 -------------------------------
 Symbolic Z-matrix:
 Charge =  0 Multiplicity = 1

 SCF Done:  E(RB3LYP) =  -670.787247819     A.U. after   14 cycles
 SCF Done:  E(RB3LYP) =  -670.791903492     A.U. after   12 cycles
 SCF Done:  E(RB3LYP) =  -670.790693819     A.U. after   11 cycles
 SCF Done:  E(RB3LYP) =  -670.792701765     A.U. after   11 cycles
 SCF Done:  E(RB3LYP) =  -670.792856819     A.U. after   10 cycles
 SCF Done:  E(RB3LYP) =  -670.792796432     A.U. after   10 cycles
 SCF Done:  E(RB3LYP) =  -670.792871888     A.U. after   10 cycles
 SCF Done:  E(RB3LYP) =  -670.792888843     A.U. after    9 cycles
 SCF Done:  E(RB3LYP) =  -670.792889099     A.U. after    8 cycles
 SCF Done:  E(RB3LYP) =  -670.792889501     A.U. after    7 cycles
 Optimization completed.
    -- Stationary point found.
 Normal termination of Gaussian 16 at Wed Dec  9 22:28:23 2020.

 --------------------------------------------------------------------
 #N Geom=AllCheck Guess=TCheck SCRF=Check GenChk RB3LYP/6-31G(d) Freq
 --------------------------------------------------------------------

 Structure from the checkpoint file:  "JID_3200.chk"
 -------------------------------
 CID_132042416_JID_3200_neutraal
 -------------------------------
 Charge =  0 Multiplicity = 1

 SCF Done:  E(RB3LYP) =  -670.792889501     A.U. after    1 cycles

  Exact polarizability: 127.742   2.071  91.892   0.779  -0.264  91.646
 Approx polarizability: 148.804   4.766 126.588   0.090  -3.370 148.096

                      1                      2                      3
                      A                      A                      A
 Frequencies --     34.8758                37.3282                55.6428
 Red. masses --      3.7895                 4.0304                 3.6466
 Frc consts  --      0.0027                 0.0033                 0.0067
 IR Inten    --      0.8698                 0.7066                 0.1297

                      4                      5                      6
                      A                      A                      A
 Frequencies --     94.8186               123.6470               142.3397
 Red. masses --      6.0299                 3.2995                 4.6413
 Frc consts  --      0.0319                 0.0297                 0.0554
 IR Inten    --      3.3889                 0.1812                 7.3241

                      7                      8                      9
                      A                      A                      A
 Frequencies --    182.4665               216.8977               232.8402
 Red. masses --      3.1423                 2.9072                 1.1446
 Frc consts  --      0.0616                 0.0806                 0.0366
 IR Inten    --      2.3934                 3.6792                 0.0938

                     10                     11                     12
                      A                      A                      A
 Frequencies --    248.0894               250.6818               273.0031
 Red. masses --      1.0926                 1.4588                 2.4552
 Frc consts  --      0.0396                 0.0540                 0.1078
 IR Inten    --      0.4162                 0.9908                 2.3695

                     13                     14                     15
                      A                      A                      A
 Frequencies --    298.8398               302.2064               334.2129
 Red. masses --      2.7024                 2.7537                 1.3263
 Frc consts  --      0.1422                 0.1482                 0.0873
 IR Inten    --     20.9781                 4.4578                 5.5443

                     16                     17                     18
                      A                      A                      A
 Frequencies --    372.8881               387.6277               413.0848
 Red. masses --      2.3300                 2.6373                 2.0324
 Frc consts  --      0.1909                 0.2335                 0.2043
 IR Inten    --      8.9519                 5.8534                 5.3184

                     19                     20                     21
                      A                      A                      A
 Frequencies --    421.3278               459.7244               494.9459
 Red. masses --      3.4761                 2.7003                 2.8130
 Frc consts  --      0.3636                 0.3362                 0.4060
 IR Inten    --      4.0559                 9.8144                 4.1399

                     22                     23                     24
                      A                      A                      A
 Frequencies --    547.4126               618.2736               668.9837
 Red. masses --      3.0765                 1.9161                 1.5613
 Frc consts  --      0.5432                 0.4316                 0.4117
 IR Inten    --      7.2577                55.9252               135.1216

                     25                     26                     27
                      A                      A                      A
 Frequencies --    719.9928               776.0496               783.7555
 Red. masses --      5.0863                 4.5691                 8.5258
 Frc consts  --      1.5535                 1.6213                 3.0856
 IR Inten    --      1.4690                10.2179                26.8093

                     28                     29                     30
                      A                      A                      A
 Frequencies --    821.9239               903.0376               911.4370
 Red. masses --      3.7403                 2.0657                 2.0923
 Frc consts  --      1.4888                 0.9925                 1.0241
 IR Inten    --     14.1251                 9.4072                60.2547

                     31                     32                     33
                      A                      A                      A
 Frequencies --    931.3053               949.4544               955.6755
 Red. masses --      2.5128                 1.2484                 2.1418
 Frc consts  --      1.2841                 0.6630                 1.1525
 IR Inten    --     90.6319                 1.6317                40.0486

                     34                     35                     36
                      A                      A                      A
 Frequencies --    957.4438               965.5862               993.3395
 Red. masses --      1.3481                 1.4471                 2.7049
 Frc consts  --      0.7281                 0.7950                 1.5725
 IR Inten    --      0.3903                48.5853                 9.4846

                     37                     38                     39
                      A                      A                      A
 Frequencies --   1030.4395              1093.6970              1107.6029
 Red. masses --      1.4739                 3.0188                 3.2999
 Frc consts  --      0.9221                 2.1275                 2.3852
 IR Inten    --      1.1942                95.6479               133.0894

                     40                     41                     42
                      A                      A                      A
 Frequencies --   1119.4991              1173.3982              1189.0866
 Red. masses --      1.7788                 2.1340                 2.0599
 Frc consts  --      1.3135                 1.7312                 1.7160
 IR Inten    --     27.5751                 9.4928                56.8373

                     43                     44                     45
                      A                      A                      A
 Frequencies --   1201.9144              1220.9558              1228.4357
 Red. masses --      2.3660                 1.9253                 1.6521
 Frc consts  --      2.0138                 1.6910                 1.4689
 IR Inten    --     41.4560                 7.4836                44.9016

                     46                     47                     48
                      A                      A                      A
 Frequencies --   1272.2600              1299.1148              1340.8038
 Red. masses --      2.1896                 3.2726                 1.3294
 Frc consts  --      2.0882                 3.2542                 1.4081
 IR Inten    --     11.1699               809.2779                59.2255

                     49                     50                     51
                      A                      A                      A
 Frequencies --   1357.7724              1391.3480              1395.6753
 Red. masses --      1.5411                 1.3072                 1.3167
 Frc consts  --      1.6740                 1.4909                 1.5111
 IR Inten    --     22.5635                 2.8057                42.0261

                     52                     53                     54
                      A                      A                      A
 Frequencies --   1421.5234              1428.9824              1433.9886
 Red. masses --      1.3827                 1.3512                 1.4000
 Frc consts  --      1.6462                 1.6256                 1.6962
 IR Inten    --     21.8138                19.1327                56.9764

                     55                     56                     57
                      A                      A                      A
 Frequencies --   1442.6676              1443.7840              1473.8639
 Red. masses --      1.3010                 1.2982                 1.2318
 Frc consts  --      1.5953                 1.5944                 1.5766
 IR Inten    --     40.4107                12.3045               102.8966

                     58                     59                     60
                      A                      A                      A
 Frequencies --   1510.5378              1512.9183              1521.8883
 Red. masses --      1.0474                 1.0836                 1.0548
 Frc consts  --      1.4081                 1.4614                 1.4394
 IR Inten    --      0.0997                 5.7928                19.2525

                     61                     62                     63
                      A                      A                      A
 Frequencies --   1523.4560              1529.3385              1530.6225
 Red. masses --      1.0804                 1.0517                 1.0535
 Frc consts  --      1.4774                 1.4493                 1.4541
 IR Inten    --     15.3088                 1.6752                 4.1610

                     64                     65                     66
                      A                      A                      A
 Frequencies --   1541.5233              1549.4700              1691.1247
 Red. masses --      1.0900                 1.0559                 1.0917
 Frc consts  --      1.5261                 1.4937                 1.8396
 IR Inten    --      2.2798                12.7375                41.8885

                     67                     68                     69
                      A                      A                      A
 Frequencies --   1815.2940              2965.7747              3048.6662
 Red. masses --     10.4659                 1.0731                 1.0374
 Frc consts  --     20.3198                 5.5612                 5.6808
 IR Inten    --    206.5497                78.4756                20.6215

                     70                     71                     72
                      A                      A                      A
 Frequencies --   3062.3359              3066.5178              3087.1843
 Red. masses --      1.0376                 1.0391                 1.0903
 Frc consts  --      5.7330                 5.7569                 6.1222
 IR Inten    --     20.5268                 9.8458                27.7582

                     73                     74                     75
                      A                      A                      A
 Frequencies --   3092.1711              3114.8756              3122.6676
 Red. masses --      1.0857                 1.0995                 1.0585
 Frc consts  --      6.1160                 6.2854                 6.0811
 IR Inten    --     26.2195                39.0395                10.1816

                     76                     77                     78
                      A                      A                      A
 Frequencies --   3125.6803              3129.3810              3131.4922
 Red. masses --      1.1021                 1.1021                 1.1011
 Frc consts  --      6.3440                 6.3587                 6.3620
 IR Inten    --     16.5528                34.0703                24.2830

                     79                     80                     81
                      A                      A                      A
 Frequencies --   3166.4331              3171.1072              3184.6303
 Red. masses --      1.1010                 1.1003                 1.1106
 Frc consts  --      6.5043                 6.5192                 6.6365
 IR Inten    --      1.8983                20.5176                 5.0629

                     82                     83                     84
                      A                      A                      A
 Frequencies --   3472.0423              3557.8284              3590.2198
 Red. masses --      1.0499                 1.0924                 1.0642
 Frc consts  --      7.4574                 8.1467                 8.0818
 IR Inten    --      3.6914                 3.8914                67.0965

 - Thermochemistry -
 -------------------
 Temperature   298.150 Kelvin.  Pressure   1.00000 Atm.
 Atom     1 has atomic number  6 and mass  12.00000

 Molecular mass:   191.11576 amu.
 Principal axes and moments of inertia in atomic units:
                           1         2         3
     Eigenvalues --   918.618055206.619195349.48438
           X            0.99999  -0.00446  -0.00228
           Y            0.00450   0.99985   0.01679
           Z            0.00221  -0.01680   0.99986
 This molecule is an asymmetric top.
 Rotational symmetry number  1.
 Warning -- assumption of classical behavior for rotation
           may cause significant error
 Rotational temperatures (Kelvin)      0.09429     0.01664     0.01619
 Rotational constants (GHZ):           1.96463     0.34662     0.33737
 Zero-point vibrational energy     686436.1 (Joules/Mol)
                                  164.06217 (Kcal/Mol)
 Warning -- explicit consideration of  23 degrees of freedom as
           vibrations may cause significant error
 Vibrational temperatures:     50.18    53.71    80.06   136.42   177.90
          (Kelvin)            204.80   262.53   312.07   335.01   356.95
                              360.68   392.79   429.96   434.81   480.86
                              536.50   557.71   594.34   606.20   661.44
                              712.12   787.60   889.56   962.52  1035.91
                             1116.56  1127.65  1182.57  1299.27  1311.35
                             1339.94  1366.05  1375.00  1377.55  1389.26
                             1429.19  1482.57  1573.59  1593.59  1610.71
                             1688.26  1710.83  1729.29  1756.68  1767.44
                             1830.50  1869.14  1929.12  1953.53  2001.84
                             2008.07  2045.26  2055.99  2063.19  2075.68
                             2077.28  2120.56  2173.33  2176.75  2189.66
                             2191.91  2200.38  2202.22  2217.91  2229.34
                             2433.15  2611.80  4267.09  4386.35  4406.02
                             4412.04  4441.77  4448.94  4481.61  4492.82
                             4497.16  4502.48  4505.52  4555.79  4562.52
                             4581.97  4995.49  5118.92  5165.53

 Zero-point correction=                           0.261450 (Hartree/Particle)
 Thermal correction to Energy=                    0.276436
 Thermal correction to Enthalpy=                  0.277380
 Thermal correction to Gibbs Free Energy=         0.219077
 Sum of electronic and zero-point Energies=           -670.531440
 Sum of electronic and thermal Energies=              -670.516453
 Sum of electronic and thermal Enthalpies=            -670.515509
 Sum of electronic and thermal Free Energies=         -670.573813

                     E (Thermal)             CV                S
                      KCal/Mol        Cal/Mol-Kelvin    Cal/Mol-Kelvin
 Total                  173.466             55.317            122.711
 Electronic               0.000              0.000              0.000
 Translational            0.889              2.981             41.649
 Rotational               0.889              2.981             31.615
 Vibrational            171.689             49.356             49.447
 Vibration     1          0.594              1.983              5.531
 Vibration     2          0.594              1.982              5.396
 Vibration     3          0.596              1.975              4.606
 Vibration     4          0.603              1.953              3.558
 Vibration     5          0.610              1.929              3.043
 Vibration     6          0.616              1.911              2.772
 Vibration     7          0.630              1.864              2.303
 Vibration     8          0.646              1.815              1.985
 Vibration     9          0.654              1.791              1.857
 Vibration    10          0.662              1.766              1.744
 Vibration    11          0.663              1.762              1.726
 Vibration    12          0.676              1.723              1.577
 Vibration    13          0.692              1.676              1.423
 Vibration    14          0.694              1.670              1.405
 Vibration    15          0.716              1.607              1.240
 Vibration    16          0.744              1.528              1.068
 Vibration    17          0.756              1.497              1.009
 Vibration    18          0.777              1.442              0.916
 Vibration    19          0.784              1.424              0.887
 Vibration    20          0.818              1.339              0.767
 Vibration    21          0.851              1.261              0.671
 Vibration    22          0.903              1.145              0.550
 Vibration    23          0.978              0.993              0.419

                           ! Non-Optimized Parameters !
 Normal termination of Gaussian 16 at Wed Dec  9 22:35:33 2020.

 ----------------------------------------------------------------------
 # B3LYP/6-311++G(d,p) empiricaldispersion=gd3bj scf=xqc pop=npa geom=c
 heck
 ----------------------------------------------------------------------

 ---------------------------------------
 CID_132042416_JID_3200_Energie_neutraal
 ---------------------------------------
 Structure from the checkpoint file:  "JID_3200.chk"
 Charge =  0 Multiplicity = 1

 SCF Done:  E(RB3LYP) =  -671.008238378     A.U. after   13 cycles
 Normal termination of Gaussian 16 at Wed Dec  9 22:38:44 2020.

 ----------------------------------------------------------------------
 # B3LYP/6-311++G(d,p) empiricaldispersion=gd3bj scf=xqc pop=npa geom=c
 heck
 ----------------------------------------------------------------------

 -------------------------------------
 CID_132042416_JID_3200_Energie_kation
 -------------------------------------
 Structure from the checkpoint file:  "JID_3200.chk"
 Charge =  1 Multiplicity = 2

 SCF Done:  E(UB3LYP) =  -670.666045563     A.U. after   27 cycles
 Normal termination of Gaussian 16 at Wed Dec  9 22:47:56 2020.
 Gaussian 16:  ES64L-G16RevA.03 25-Dec-2016

 ----------------------------------------------------------------------
 # B3LYP/6-311++G(d,p) empiricaldispersion=gd3bj scf=xqc pop=npa geom=c
 heck
 ----------------------------------------------------------------------

 ------------------------------------
 CID_132042416_JID_3200_Energie_anion
 ------------------------------------
 Structure from the checkpoint file:  "JID_3200.chk"
 Charge = -1 Multiplicity = 2

                         Standard orientation:
 ---------------------------------------------------------------------
 Center     Atomic      Atomic             Coordinates (Angstroms)
 Number     Number       Type             X           Y           Z
 ---------------------------------------------------------------------
      1          6           0        3.997887   -0.993150   -0.443121
      2          6           0        3.378525    0.036734    0.494543
      3          6           0        3.413945    1.466359   -0.034051
      4          8           0        2.025602   -0.348806    0.895932
      5          6           0        1.071879   -0.417693   -0.036713
      6          8           0        1.184202   -0.194032   -1.223991
      7          8           0       -0.062649   -0.788992    0.587349
      8          6           0       -1.256625   -0.856277   -0.223318
      9          6           0       -2.134641    0.378320    0.003688
     10          6           0       -1.459164    1.655300   -0.509204
     11          6           0       -3.477931    0.143440   -0.722077
     12          8           0       -4.172620   -0.949133   -0.160787
     13          7           0       -2.461567    0.427879    1.444261
     14          1           0        3.514775   -0.975389   -1.421657
     15          1           0        3.907838   -1.998161   -0.018547
     16          1           0        5.062946   -0.770743   -0.571167
     17          1           0        3.896310   -0.000543    1.457227
     18          1           0        2.915642    1.540061   -1.002347
     19          1           0        2.926036    2.146509    0.671962
     20          1           0        4.455932    1.784535   -0.148542
     21          1           0       -0.975627   -0.945688   -1.273155
     22          1           0       -1.786257   -1.750563    0.104658
     23          1           0       -1.211493    1.581615   -1.573355
     24          1           0       -2.124128    2.516336   -0.369047
     25          1           0       -0.531575    1.855752    0.036208
     26          1           0       -4.070256    1.074204   -0.661966
     27          1           0       -3.311551   -0.071097   -1.783811
     28          1           0       -4.019260   -0.842271    0.800607
     29          1           0       -1.614801    0.272840    1.988892
     30          1           0       -2.803092    1.356961    1.687701
 ---------------------------------------------------------------------

 SCF Done:  E(UB3LYP) =  -670.996833527     A.U. after   29 cycles

 The electronic state is 2-A.
 Alpha  occ. eigenvalues --  -19.08025 -19.07461 -19.02397 -19.01955 -14.20886
 Alpha  occ. eigenvalues --  -10.25572 -10.14358 -10.13556 -10.12463 -10.12395
 Alpha  occ. eigenvalues --  -10.06855 -10.06808 -10.06477  -1.05188  -0.96414
 Alpha  occ. eigenvalues --   -0.93409  -0.93202  -0.80734  -0.70715  -0.67824
 Alpha  occ. eigenvalues --   -0.62707  -0.60186  -0.58656  -0.55272  -0.49523
 Alpha  occ. eigenvalues --   -0.46884  -0.43732  -0.42300  -0.41085  -0.39506
 Alpha  occ. eigenvalues --   -0.38434  -0.37874  -0.37797  -0.35950  -0.33898
 Alpha  occ. eigenvalues --   -0.33202  -0.32599  -0.31143  -0.30881  -0.29870
 Alpha  occ. eigenvalues --   -0.29640  -0.28066  -0.27648  -0.26899  -0.26600
 Alpha  occ. eigenvalues --   -0.25308  -0.23567  -0.21974  -0.21585  -0.19779
 Alpha  occ. eigenvalues --   -0.18150  -0.16931   0.04164
 Alpha virt. eigenvalues --    0.05856   0.07913   0.08084   0.08759   0.08922
 Alpha virt. eigenvalues --    0.09006   0.10261   0.10970   0.11228   0.11526
 Alpha virt. eigenvalues --    0.11881   0.11975   0.12433   0.13811   0.13844

  Beta  occ. eigenvalues --  -19.08020 -19.07458 -19.02392 -19.01949 -14.20843
  Beta  occ. eigenvalues --  -10.25572 -10.14341 -10.13547 -10.12448 -10.12393
  Beta  occ. eigenvalues --  -10.06825 -10.06772 -10.06441  -1.05179  -0.96405
  Beta  occ. eigenvalues --   -0.93398  -0.93191  -0.80678  -0.70678  -0.67773
  Beta  occ. eigenvalues --   -0.62676  -0.60122  -0.58604  -0.55232  -0.49479
  Beta  occ. eigenvalues --   -0.46848  -0.43707  -0.42260  -0.41062  -0.39476
  Beta  occ. eigenvalues --   -0.38392  -0.37826  -0.37765  -0.35913  -0.33869
  Beta  occ. eigenvalues --   -0.33169  -0.32572  -0.31112  -0.30853  -0.29831
  Beta  occ. eigenvalues --   -0.29610  -0.28029  -0.27613  -0.26879  -0.26563
  Beta  occ. eigenvalues --   -0.25271  -0.23549  -0.21962  -0.21568  -0.19765
  Beta  occ. eigenvalues --   -0.18130  -0.16894
  Beta virt. eigenvalues --    0.06536   0.07166   0.08391   0.08472   0.09274
  Beta virt. eigenvalues --    0.09368   0.09586   0.10646   0.11328   0.11390
  Beta virt. eigenvalues --    0.11798   0.12035   0.12218   0.12672   0.13857

 Mulliken charges and spin densities:
               1          2
     1  C    1.012664  -1.466895
     2  C   -1.426819   1.568576
     3  C    1.130934  -1.616886
     4  O   -0.085231   0.032416
     5  C    0.020113  -0.284166
     6  O   -0.230608   0.016011
     7  O   -0.077564   0.009481
     8  C    0.972231  -1.337883
     9  C   -0.980552   1.049005
    10  C    0.535681  -1.153925
    11  C    0.284945  -0.641625
    12  O   -0.239082   0.016135
    13  N   -0.296713  -0.005191
    14  H    0.041150   0.127825
    15  H    0.006456   0.124324
    16  H   -0.471093   0.644589
    17  H   -0.640698   0.841429
    18  H    0.005189   0.166175
    19  H   -0.165000   0.306518
    20  H   -0.423665   0.590060
    21  H    0.079680   0.134139
    22  H    0.262709  -0.081961
    23  H    0.101548   0.065194
    24  H   -0.526843   0.691328
    25  H    0.105708   0.077302
    26  H   -0.117914   0.267927
    27  H    0.084486   0.083777
    28  H    0.213058   0.073676
    29  H    0.038182   0.237537
    30  H   -0.212954   0.465108
 Sum of Mulliken charges =  -1.00000   1.00000

 Dipole moment (field-independent basis, Debye):
    X=             -2.9477    Y=             -3.5637    Z=             -2.2968  Tot=              5.1637
 Quadrupole moment (field-independent basis, Debye-Ang):
   XX=           -183.1291   YY=           -118.5108   ZZ=           -112.0376
   XY=              0.4234   XZ=              0.2049   YZ=             -4.1811

 Summary of Natural Population Analysis:

                                       Natural Population
                Natural  -----------------------------------------------
    Atom  No    Charge         Core      Valence    Rydberg      Total
 -----------------------------------------------------------------------
      C    1   -0.30200      0.99964     2.29604    0.00632     3.30200
      C    2    0.06508      0.99955     1.92195    0.01341     2.93492
      C    3   -0.30199      0.99964     2.29609    0.00626     3.30199
      O    4   -0.27799      0.99985     3.26906    0.00907     4.27799
      C    5    0.51882      0.99971     1.45338    0.02808     2.48118
      O    6   -0.32883      0.99986     3.32396    0.00501     4.32883
      O    7   -0.28221      0.99985     3.27421    0.00814     4.28221
      C    8   -0.01789      0.99947     2.00672    0.01170     3.01789
      C    9    0.02682      0.99958     1.95929    0.01431     2.97318
      C   10   -0.29568      0.99962     2.28817    0.00789     3.29568
      C   11   -0.00869      0.99953     1.99497    0.01418     3.00869
      O   12   -0.37904      0.99990     3.37227    0.00686     4.37904
      N   13   -0.44258      0.99974     2.93105    0.01179     3.94258
      H   14    0.10885      0.00000     0.39020    0.00095     0.39115
      H   15    0.10171      0.00000     0.39729    0.00101     0.39829
      H   16    0.10647      0.00000     0.39204    0.00149     0.39353
      H   17    0.09420      0.00000     0.40353    0.00227     0.40580
      H   18    0.10862      0.00000     0.39017    0.00121     0.39138
      H   19    0.10492      0.00000     0.39369    0.00138     0.39508
      H   20    0.10604      0.00000     0.39218    0.00178     0.39396
      H   21    0.10411      0.00000     0.39479    0.00111     0.39589
      H   22    0.10111      0.00000     0.39752    0.00136     0.39889
      H   23    0.10506      0.00000     0.39396    0.00098     0.39494
      H   24    0.10312      0.00000     0.39503    0.00185     0.39688
      H   25    0.10591      0.00000     0.39242    0.00167     0.39409
      H   26    0.07936      0.00000     0.41917    0.00147     0.42064
      H   27    0.08651      0.00000     0.41234    0.00115     0.41349
      H   28    0.23903      0.00000     0.25743    0.00353     0.26097
      H   29    0.18787      0.00000     0.30978    0.00235     0.31213
      H   30    0.18326      0.00000     0.31294    0.00380     0.31674
 =======================================================================
   * Total *    0.00000     12.99595    38.83166    0.17238    52.00000

 Normal termination of Gaussian 16 at Wed Dec  9 22:57:28 2020.
