 Gaussian 16, Revision A.03,

 -----------------------------------------------------------
 # opt freq B3LYP/6-31G(d) empiricaldispersion=gd3bj scf=xqc
 -----------------------------------------------------------

 -------------------------------
 CID_136545545_JID_8503_neutraal
 -------------------------------
 Symbolic Z-matrix:
 Charge =  0 Multiplicity = 1

 SCF Done:  E(RB3LYP) =  -1165.64312066     A.U. after   15 cycles
 SCF Done:  E(RB3LYP) =  -1165.64579509     A.U. after   13 cycles
 SCF Done:  E(RB3LYP) =  -1165.64410933     A.U. after   13 cycles
 SCF Done:  E(RB3LYP) =  -1165.64627505     A.U. after   13 cycles
 SCF Done:  E(RB3LYP) =  -1165.64810935     A.U. after   12 cycles
 SCF Done:  E(RB3LYP) =  -1165.64970459     A.U. after   12 cycles
 SCF Done:  E(RB3LYP) =  -1165.65043700     A.U. after   12 cycles
 SCF Done:  E(RB3LYP) =  -1165.65058380     A.U. after   11 cycles
 SCF Done:  E(RB3LYP) =  -1165.65076431     A.U. after   11 cycles
 SCF Done:  E(RB3LYP) =  -1165.65083718     A.U. after   10 cycles
 SCF Done:  E(RB3LYP) =  -1165.65091408     A.U. after   10 cycles
 SCF Done:  E(RB3LYP) =  -1165.65091531     A.U. after    8 cycles
 SCF Done:  E(RB3LYP) =  -1165.65091557     A.U. after    7 cycles
 SCF Done:  E(RB3LYP) =  -1165.65091574     A.U. after    7 cycles
 SCF Done:  E(RB3LYP) =  -1165.65091579     A.U. after    7 cycles
 Optimization completed.
    -- Stationary point found.
 Normal termination of Gaussian 16 at Fri Dec 11 20:07:07 2020.

 --------------------------------------------------------------------
 #N Geom=AllCheck Guess=TCheck SCRF=Check GenChk RB3LYP/6-31G(d) Freq
 --------------------------------------------------------------------

 Structure from the checkpoint file:  "JID_8503.chk"
 -------------------------------
 CID_136545545_JID_8503_neutraal
 -------------------------------
 Charge =  0 Multiplicity = 1

 SCF Done:  E(RB3LYP) =  -1165.65091579     A.U. after    1 cycles

  Exact polarizability: 206.474   2.739 147.186   0.522  15.746 145.358
 Approx polarizability: 270.575  12.058 228.755   4.230  40.220 238.117

                      1                      2                      3
                      A                      A                      A
 Frequencies --     20.8283                26.7511                41.7864
 Red. masses --      3.8824                 7.3300                 3.9484
 Frc consts  --      0.0010                 0.0031                 0.0041
 IR Inten    --      0.4192                 0.5225                 0.7843

                      4                      5                      6
                      A                      A                      A
 Frequencies --     58.7434                94.9514               115.0057
 Red. masses --      4.3817                 4.0089                 4.4764
 Frc consts  --      0.0089                 0.0213                 0.0349
 IR Inten    --      1.6940                 1.0616                 1.5304

                      7                      8                      9
                      A                      A                      A
 Frequencies --    137.1235               143.3612               150.8505
 Red. masses --      4.2219                 1.3908                 2.5004
 Frc consts  --      0.0468                 0.0168                 0.0335
 IR Inten    --      1.0111                 0.3858                 3.4112

                     10                     11                     12
                      A                      A                      A
 Frequencies --    168.4794               201.4923               209.6454
 Red. masses --      3.6742                 3.1736                 3.1844
 Frc consts  --      0.0614                 0.0759                 0.0825
 IR Inten    --      1.1697                 0.5186                 0.9748

                     13                     14                     15
                      A                      A                      A
 Frequencies --    226.2080               240.0108               270.8095
 Red. masses --      3.2965                 2.3529                 2.2877
 Frc consts  --      0.0994                 0.0799                 0.0989
 IR Inten    --      1.8643                 1.2837                 2.0505

                     16                     17                     18
                      A                      A                      A
 Frequencies --    288.3948               345.7527               358.1842
 Red. masses --      5.0301                 2.5735                 3.0614
 Frc consts  --      0.2465                 0.1813                 0.2314
 IR Inten    --     19.2065                 7.6341                 4.4412

                     19                     20                     21
                      A                      A                      A
 Frequencies --    406.1537               432.6550               434.7169
 Red. masses --      4.0552                 4.0977                 2.5761
 Frc consts  --      0.3941                 0.4519                 0.2868
 IR Inten    --      1.7982                 1.6997                 5.9032

                     22                     23                     24
                      A                      A                      A
 Frequencies --    467.8444               516.1746               534.9165
 Red. masses --      4.2440                 5.5880                 2.7410
 Frc consts  --      0.5473                 0.8772                 0.4621
 IR Inten    --      4.3214                 1.5984                 7.5210

                     25                     26                     27
                      A                      A                      A
 Frequencies --    558.9115               582.1712               612.0357
 Red. masses --      5.9727                 2.1877                 1.8100
 Frc consts  --      1.0993                 0.4369                 0.3995
 IR Inten    --      3.8445                39.2064                30.0477

                     28                     29                     30
                      A                      A                      A
 Frequencies --    640.1670               655.2874               677.2038
 Red. masses --      1.1436                 2.5868                 2.9160
 Frc consts  --      0.2761                 0.6545                 0.7879
 IR Inten    --     78.4500                37.3623                22.2231

                     31                     32                     33
                      A                      A                      A
 Frequencies --    694.1865               736.6725               749.0514
 Red. masses --      1.7598                 2.8115                 1.5406
 Frc consts  --      0.4997                 0.8989                 0.5093
 IR Inten    --      4.7266                16.4759                 3.0446

                     34                     35                     36
                      A                      A                      A
 Frequencies --    781.7643               800.5990               835.4114
 Red. masses --      6.7994                 1.2658                 2.4208
 Frc consts  --      2.4484                 0.4780                 0.9954
 IR Inten    --     29.4940                57.7598                 2.0560

                     37                     38                     39
                      A                      A                      A
 Frequencies --    852.7252               863.5360               868.7452
 Red. masses --      3.3656                 3.1224                 4.2213
 Frc consts  --      1.4419                 1.3718                 1.8771
 IR Inten    --      7.0342                 5.9181                25.0111

                     40                     41                     42
                      A                      A                      A
 Frequencies --    879.4773               897.5117               921.0673
 Red. masses --      2.3346                 1.8619                 2.8365
 Frc consts  --      1.0639                 0.8837                 1.4178
 IR Inten    --      5.8177                 3.0412                 1.6964

                     43                     44                     45
                      A                      A                      A
 Frequencies --    926.2539               952.3073               974.2759
 Red. masses --      2.1286                 1.9943                 1.7771
 Frc consts  --      1.0760                 1.0656                 0.9938
 IR Inten    --      0.7129                10.9862                 8.1940

                     46                     47                     48
                      A                      A                      A
 Frequencies --   1012.7958              1026.8301              1058.9150
 Red. masses --      1.9391                 1.4467                 1.9504
 Frc consts  --      1.1719                 0.8987                 1.2885
 IR Inten    --      4.1534                 7.0934                 1.9546

                     49                     50                     51
                      A                      A                      A
 Frequencies --   1062.8129              1076.6702              1095.4090
 Red. masses --      1.5101                 1.4740                 3.2206
 Frc consts  --      1.0050                 1.0067                 2.2769
 IR Inten    --     10.7005                 2.9312                14.9710

                     52                     53                     54
                      A                      A                      A
 Frequencies --   1110.8301              1128.5857              1152.0222
 Red. masses --      3.6266                 1.8753                 2.2702
 Frc consts  --      2.6366                 1.4073                 1.7752
 IR Inten    --     44.2574                 0.9936                 7.5368

                     55                     56                     57
                      A                      A                      A
 Frequencies --   1172.4444              1189.0046              1205.3265
 Red. masses --      2.2988                 1.4277                 2.0568
 Frc consts  --      1.8618                 1.1892                 1.7606
 IR Inten    --     19.5887                 4.7493                 8.7754

                     58                     59                     60
                      A                      A                      A
 Frequencies --   1219.0596              1225.4476              1232.4659
 Red. masses --      1.4857                 1.5266                 1.3301
 Frc consts  --      1.3008                 1.3507                 1.1904
 IR Inten    --      5.0307                11.6910                16.3760

                     61                     62                     63
                      A                      A                      A
 Frequencies --   1242.3241              1246.7474              1288.1842
 Red. masses --      1.7532                 1.4426                 1.2656
 Frc consts  --      1.5943                 1.3212                 1.2374
 IR Inten    --     69.5945                14.5826                12.2182

                     64                     65                     66
                      A                      A                      A
 Frequencies --   1312.5149              1340.0974              1357.4399
 Red. masses --      1.2257                 1.3237                 1.4884
 Frc consts  --      1.2441                 1.4006                 1.6159
 IR Inten    --     13.0197                 0.3854                 3.1186

                     67                     68                     69
                      A                      A                      A
 Frequencies --   1371.3107              1381.4079              1391.9713
 Red. masses --      1.2809                 1.3778                 1.4413
 Frc consts  --      1.4192                 1.5491                 1.6454
 IR Inten    --      1.1764                 0.1967                11.2809

                     70                     71                     72
                      A                      A                      A
 Frequencies --   1395.6681              1404.1907              1429.3819
 Red. masses --      2.5520                 1.4995                 1.2594
 Frc consts  --      2.9288                 1.7420                 1.5160
 IR Inten    --     43.9025                 4.4092                35.1966

                     73                     74                     75
                      A                      A                      A
 Frequencies --   1434.3511              1444.7231              1451.6193
 Red. masses --      1.4378                 1.2627                 4.2533
 Frc consts  --      1.7428                 1.5528                 5.2806
 IR Inten    --     27.6276                12.9494               489.9398

                     76                     77                     78
                      A                      A                      A
 Frequencies --   1463.9623              1484.1684              1509.3346
 Red. masses --      1.2738                 1.9366                 1.0906
 Frc consts  --      1.6084                 2.5134                 1.4638
 IR Inten    --    132.3075                 6.7658                 6.9929

                     79                     80                     81
                      A                      A                      A
 Frequencies --   1510.4978              1518.2552              1518.4492
 Red. masses --      1.0865                 1.6504                 1.0888
 Frc consts  --      1.4605                 2.2415                 1.4791
 IR Inten    --      8.1523                29.6437                 6.9790

                     82                     83                     84
                      A                      A                      A
 Frequencies --   1523.7644              1532.0406              1534.0246
 Red. masses --      1.0943                 1.4661                 1.4089
 Frc consts  --      1.4970                 2.0275                 1.9534
 IR Inten    --      2.7001                 0.1255                 5.7473

                     85                     86                     87
                      A                      A                      A
 Frequencies --   1541.0800              1553.8813              1631.0218
 Red. masses --      1.0860                 1.1249                 6.2749
 Frc consts  --      1.5196                 1.6003                 9.8350
 IR Inten    --      0.5810                10.9444                11.9249

                     88                     89                     90
                      A                      A                      A
 Frequencies --   1741.5866              2995.2259              3026.0063
 Red. masses --      6.7437                 1.0706                 1.0653
 Frc consts  --     12.0515                 5.6589                 5.7473
 IR Inten    --    492.3214                50.6791                34.6984

                     91                     92                     93
                      A                      A                      A
 Frequencies --   3028.7776              3037.5107              3044.2464
 Red. masses --      1.0734                 1.0427                 1.0695
 Frc consts  --      5.8018                 5.6680                 5.8396
 IR Inten    --     35.5460                29.1821                20.9522

                     94                     95                     96
                      A                      A                      A
 Frequencies --   3063.0951              3067.8501              3072.0620
 Red. masses --      1.0691                 1.0623                 1.0932
 Frc consts  --      5.9098                 5.8905                 6.0786
 IR Inten    --     17.1749                20.5089                51.0239

                     97                     98                     99
                      A                      A                      A
 Frequencies --   3084.6382              3091.6143              3104.3598
 Red. masses --      1.0971                 1.0952                 1.0844
 Frc consts  --      6.1504                 6.1675                 6.1572
 IR Inten    --     82.9602                16.7112                30.5347

                    100                    101                    102
                      A                      A                      A
 Frequencies --   3110.1876              3117.6567              3126.7980
 Red. masses --      1.0948                 1.0981                 1.1027
 Frc consts  --      6.2395                 6.2888                 6.3519
 IR Inten    --      9.8778                27.8793                40.3508

                    103                    104                    105
                      A                      A                      A
 Frequencies --   3136.9773              3146.3674              3265.9094
 Red. masses --      1.1006                 1.0925                 1.0940
 Frc consts  --      6.3810                 6.3720                 6.8749
 IR Inten    --     17.1797                 8.0433                 0.6652

                    106                    107                    108
                      A                      A                      A
 Frequencies --   3280.5570              3555.1232              3628.4096
 Red. masses --      1.0939                 1.0745                 1.0672
 Frc consts  --      6.9365                 8.0011                 8.2783
 IR Inten    --      1.4368                29.3925               375.9272

 - Thermochemistry -
 -------------------
 Temperature   298.150 Kelvin.  Pressure   1.00000 Atm.
 Atom     1 has atomic number  6 and mass  12.00000

 Molecular mass:   268.12455 amu.
 Principal axes and moments of inertia in atomic units:
                           1         2         3
     Eigenvalues --  2778.253078653.505379302.01492
           X            0.99974  -0.01560  -0.01657
           Y            0.01548   0.99985  -0.00711
           Z            0.01668   0.00685   0.99984
 This molecule is an asymmetric top.
 Rotational symmetry number  1.
 Warning -- assumption of classical behavior for rotation
           may cause significant error
 Rotational temperatures (Kelvin)      0.03118     0.01001     0.00931
 Rotational constants (GHZ):           0.64960     0.20856     0.19402
 Zero-point vibrational energy     854469.8 (Joules/Mol)
                                  204.22318 (Kcal/Mol)
 Warning -- explicit consideration of  27 degrees of freedom as
           vibrations may cause significant error
 Vibrational temperatures:     29.97    38.49    60.12    84.52   136.61
          (Kelvin)            165.47   197.29   206.26   217.04   242.40
                              289.90   301.63   325.46   345.32   389.63
                              414.94   497.46   515.35   584.36   622.49
                              625.46   673.12   742.66   769.63   804.15
                              837.61   880.58   921.06   942.81   974.35
                              998.78  1059.91  1077.72  1124.78  1151.88
                             1201.97  1226.88  1242.44  1249.93  1265.37
                             1291.32  1325.21  1332.67  1370.16  1401.77
                             1457.19  1477.38  1523.54  1529.15  1549.09
                             1576.05  1598.24  1623.78  1657.50  1686.89
                             1710.71  1734.20  1753.95  1763.15  1773.24
                             1787.43  1793.79  1853.41  1888.42  1928.10
                             1953.05  1973.01  1987.54  2002.74  2008.06
                             2020.32  2056.56  2063.71  2078.63  2088.56
                             2106.32  2135.39  2171.60  2173.27  2184.43
                             2184.71  2192.36  2204.26  2207.12  2217.27
                             2235.69  2346.68  2505.75  4309.46  4353.75
                             4357.74  4370.30  4379.99  4407.11  4413.95
                             4420.01  4438.11  4448.14  4466.48  4474.87
                             4485.61  4498.76  4513.41  4526.92  4698.92
                             4719.99  5115.03  5220.47

 Zero-point correction=                           0.325450 (Hartree/Particle)
 Thermal correction to Energy=                    0.343472
 Thermal correction to Enthalpy=                  0.344416
 Thermal correction to Gibbs Free Energy=         0.277646
 Sum of electronic and zero-point Energies=          -1165.325465
 Sum of electronic and thermal Energies=             -1165.307444
 Sum of electronic and thermal Enthalpies=           -1165.306500
 Sum of electronic and thermal Free Energies=        -1165.373270

                     E (Thermal)             CV                S
                      KCal/Mol        Cal/Mol-Kelvin    Cal/Mol-Kelvin
 Total                  215.532             68.401            140.530
 Electronic               0.000              0.000              0.000
 Translational            0.889              2.981             42.658
 Rotational               0.889              2.981             33.769
 Vibrational            213.754             62.439             64.103
 Vibration     1          0.593              1.986              6.554
 Vibration     2          0.593              1.984              6.057
 Vibration     3          0.594              1.980              5.173
 Vibration     4          0.596              1.974              4.499
 Vibration     5          0.603              1.953              3.555
 Vibration     6          0.608              1.937              3.183
 Vibration     7          0.614              1.916              2.844
 Vibration     8          0.616              1.910              2.759
 Vibration     9          0.618              1.902              2.661
 Vibration    10          0.625              1.881              2.452
 Vibration    11          0.638              1.838              2.119
 Vibration    12          0.642              1.826              2.047
 Vibration    13          0.650              1.801              1.909
 Vibration    14          0.657              1.779              1.803
 Vibration    15          0.675              1.727              1.591
 Vibration    16          0.685              1.695              1.483
 Vibration    17          0.724              1.584              1.185
 Vibration    18          0.733              1.558              1.130
 Vibration    19          0.771              1.457              0.940
 Vibration    20          0.794              1.399              0.850
 Vibration    21          0.795              1.395              0.843
 Vibration    22          0.825              1.321              0.744
 Vibration    23          0.871              1.214              0.619
 Vibration    24          0.890              1.173              0.576
 Vibration    25          0.914              1.120              0.526
 Vibration    26          0.939              1.070              0.481
 Vibration    27          0.971              1.006              0.429

                           ! Non-Optimized Parameters !
 Normal termination of Gaussian 16 at Fri Dec 11 20:24:16 2020.

 ----------------------------------------------------------------------
 # B3LYP/6-311++G(d,p) empiricaldispersion=gd3bj scf=xqc pop=npa geom=c
 heck
 ----------------------------------------------------------------------

 ---------------------------------------
 CID_136545545_JID_8503_Energie_neutraal
 ---------------------------------------
 Structure from the checkpoint file:  "JID_8503.chk"
 Charge =  0 Multiplicity = 1

 SCF Done:  E(RB3LYP) =  -1165.90136508     A.U. after   15 cycles
 Normal termination of Gaussian 16 at Fri Dec 11 20:32:28 2020.

 ----------------------------------------------------------------------
 # B3LYP/6-311++G(d,p) empiricaldispersion=gd3bj scf=xqc pop=npa geom=c
 heck
 ----------------------------------------------------------------------

 -------------------------------------
 CID_136545545_JID_8503_Energie_kation
 -------------------------------------
 Structure from the checkpoint file:  "JID_8503.chk"
 Charge =  1 Multiplicity = 2

 SCF Done:  E(UB3LYP) =  -1165.60980901     A.U. after   29 cycles
 Normal termination of Gaussian 16 at Fri Dec 11 20:55:11 2020.
 Gaussian 16:  ES64L-G16RevA.03 25-Dec-2016

 ----------------------------------------------------------------------
 # B3LYP/6-311++G(d,p) empiricaldispersion=gd3bj scf=xqc pop=npa geom=c
 heck
 ----------------------------------------------------------------------

 ------------------------------------
 CID_136545545_JID_8503_Energie_anion
 ------------------------------------
 Structure from the checkpoint file:  "JID_8503.chk"
 Charge = -1 Multiplicity = 2

                         Standard orientation:
 ---------------------------------------------------------------------
 Center     Atomic      Atomic             Coordinates (Angstroms)
 Number     Number       Type             X           Y           Z
 ---------------------------------------------------------------------
      1          6           0        3.927618   -1.368717   -1.646354
      2          6           0        3.477062   -0.658094   -0.403184
      3          6           0        4.295878   -0.042778    0.502260
      4         16           0        3.416060    0.697428    1.802944
      5          6           0        1.907161    0.150017    1.146122
      6          6           0        2.091156   -0.540211   -0.023844
      7          7           0        1.077756   -1.110814   -0.831405
      8          6           0       -0.293817   -0.859121   -0.693032
      9          8           0       -1.091301   -1.804474   -0.682181
     10          7           0       -0.682339    0.442959   -0.620127
     11          6           0        0.070097    1.602743   -1.120039
     12          6           0       -0.864443    2.769055   -0.790724
     13          6           0       -2.261603    2.168733   -1.008043
     14          6           0       -2.131783    0.720318   -0.499651
     15          6           0       -2.611743    0.506060    0.944629
     16          6           0       -4.095251    0.136517    1.052886
     17          6           0       -4.422490   -1.212343    0.384774
     18          8           0       -3.557406   -2.254366    0.792968
     19          1           0        3.738191   -2.449205   -1.588377
     20          1           0        3.389874   -0.995767   -2.525901
     21          1           0        4.999629   -1.231904   -1.812323
     22          1           0        5.374400    0.030733    0.468006
     23          1           0        0.972204    0.372167    1.639664
     24          1           0        1.208296   -2.101272   -1.012282
     25          1           0        0.234810    1.511946   -2.203046
     26          1           0        1.041820    1.689297   -0.633232
     27          1           0       -0.731646    3.058513    0.258352
     28          1           0       -0.667840    3.648226   -1.410519
     29          1           0       -3.051249    2.713951   -0.482857
     30          1           0       -2.506647    2.174654   -2.076269
     31          1           0       -2.658321    0.029464   -1.161838
     32          1           0       -2.036194   -0.311929    1.387658
     33          1           0       -2.393570    1.404461    1.537218
     34          1           0       -4.358221    0.075157    2.115753
     35          1           0       -4.730429    0.919237    0.612032
     36          1           0       -5.438479   -1.512198    0.666983
     37          1           0       -4.421439   -1.104530   -0.711674
     38          1           0       -2.727462   -2.167208    0.285173
 ---------------------------------------------------------------------

 SCF Done:  E(UB3LYP) =  -1165.89163935     A.U. after   33 cycles
 SCF Done:  E(UB3LYP) =  -1165.89163935     a.u. after    1 cycles

 The electronic state is 2-A.
 Alpha  occ. eigenvalues --  -88.79069 -19.01649 -19.00714 -14.25665 -14.25333
 Alpha  occ. eigenvalues --  -10.21530 -10.13263 -10.12486 -10.12083 -10.11412
 Alpha  occ. eigenvalues --  -10.10947 -10.10837 -10.10024 -10.08491 -10.08392
 Alpha  occ. eigenvalues --  -10.08243 -10.08228 -10.08041  -7.87669  -5.83961
 Alpha  occ. eigenvalues --   -5.83600  -5.83262  -0.97142  -0.92090  -0.86582
 Alpha  occ. eigenvalues --   -0.84905  -0.78720  -0.71644  -0.69986  -0.68353
 Alpha  occ. eigenvalues --   -0.64858  -0.63984  -0.59075  -0.58928  -0.56231
 Alpha  occ. eigenvalues --   -0.51899  -0.51288  -0.48665  -0.48202  -0.46425
 Alpha  occ. eigenvalues --   -0.43803  -0.42345  -0.41348  -0.40103  -0.37754
 Alpha  occ. eigenvalues --   -0.37579  -0.36879  -0.35561  -0.34498  -0.33761
 Alpha  occ. eigenvalues --   -0.33605  -0.33161  -0.32261  -0.31882  -0.31265
 Alpha  occ. eigenvalues --   -0.30309  -0.29210  -0.28654  -0.28434  -0.27375
 Alpha  occ. eigenvalues --   -0.26597  -0.26419  -0.26236  -0.24645  -0.24211
 Alpha  occ. eigenvalues --   -0.23300  -0.22196  -0.19023  -0.17836  -0.16279
 Alpha  occ. eigenvalues --   -0.15440  -0.13631   0.03887
 Alpha virt. eigenvalues --    0.05393   0.06091   0.06679   0.06972   0.07201
 Alpha virt. eigenvalues --    0.08056   0.08673   0.09078   0.09285   0.09677
 Alpha virt. eigenvalues --    0.10043   0.10169   0.10683   0.11357   0.11496

  Beta  occ. eigenvalues --  -88.79063 -19.01647 -19.00703 -14.25655 -14.25335
  Beta  occ. eigenvalues --  -10.21523 -10.13255 -10.12482 -10.12080 -10.11387
  Beta  occ. eigenvalues --  -10.10915 -10.10816 -10.10024 -10.08463 -10.08364
  Beta  occ. eigenvalues --  -10.08235 -10.08181 -10.08034  -7.87663  -5.83957
  Beta  occ. eigenvalues --   -5.83593  -5.83246  -0.97125  -0.92085  -0.86567
  Beta  occ. eigenvalues --   -0.84886  -0.78691  -0.71622  -0.69956  -0.68314
  Beta  occ. eigenvalues --   -0.64829  -0.63941  -0.59016  -0.58886  -0.56197
  Beta  occ. eigenvalues --   -0.51838  -0.51260  -0.48626  -0.48149  -0.46397
  Beta  occ. eigenvalues --   -0.43762  -0.42325  -0.41317  -0.40080  -0.37727
  Beta  occ. eigenvalues --   -0.37549  -0.36850  -0.35534  -0.34459  -0.33731
  Beta  occ. eigenvalues --   -0.33572  -0.33121  -0.32235  -0.31856  -0.31229
  Beta  occ. eigenvalues --   -0.30272  -0.29178  -0.28610  -0.28377  -0.27347
  Beta  occ. eigenvalues --   -0.26560  -0.26384  -0.26199  -0.24615  -0.24183
  Beta  occ. eigenvalues --   -0.23285  -0.22161  -0.19006  -0.17825  -0.16258
  Beta  occ. eigenvalues --   -0.15360  -0.13559
  Beta virt. eigenvalues --    0.06003   0.06169   0.06453   0.07102   0.07360
  Beta virt. eigenvalues --    0.07636   0.08330   0.09044   0.09390   0.09593
  Beta virt. eigenvalues --    0.09961   0.10191   0.10341   0.10975   0.11562

 Mulliken charges and spin densities:
               1          2
     1  C    2.461573  -3.300258
     2  C   -2.309442   2.547279
     3  C    0.039682  -0.084223
     4  S    0.026853  -0.364712
     5  C    0.551601  -0.463108
     6  C   -0.195046  -0.099969
     7  N    0.016997  -0.000395
     8  C    0.003593   0.065618
     9  O   -0.354858   0.009414
    10  N    0.128881   0.018465
    11  C   -0.430994   0.255938
    12  C    1.232353  -1.839748
    13  C   -0.114549  -0.342881
    14  C   -0.607943   0.420607
    15  C    0.285574  -0.389740
    16  C   -0.061537  -0.283517
    17  C   -0.424114  -0.044516
    18  O   -0.297267   0.007843
    19  H   -0.150542   0.297665
    20  H   -0.239986   0.421694
    21  H   -0.468011   0.628949
    22  H   -0.572433   0.834938
    23  H    0.144537   0.172470
    24  H    0.197451   0.156000
    25  H   -0.308607   0.525462
    26  H    0.243887  -0.081715
    27  H    0.076437   0.066160
    28  H   -0.493572   0.697256
    29  H   -0.275818   0.442397
    30  H   -0.242481   0.404556
    31  H    0.261806  -0.004105
    32  H    0.288898  -0.105104
    33  H    0.006127   0.143583
    34  H    0.100186   0.058731
    35  H    0.006168   0.091065
    36  H    0.138048   0.019472
    37  H    0.040381   0.091013
    38  H    0.296166   0.027415
 Sum of Mulliken charges =  -1.00000   1.00000

 Dipole moment (field-independent basis, Debye):
    X=             -3.1315    Y=             -0.4260    Z=              4.9596  Tot=              5.8809
 Quadrupole moment (field-independent basis, Debye-Ang):
   XX=           -208.0418   YY=           -173.3739   ZZ=           -160.1327
   XY=              3.9152   XZ=             10.9266   YZ=              9.9569

 Summary of Natural Population Analysis:

                                       Natural Population
                Natural  -----------------------------------------------
    Atom  No    Charge         Core      Valence    Rydberg      Total
 -----------------------------------------------------------------------
      C    1   -0.29394      0.99963     2.28820    0.00611     3.29394
      C    2   -0.04436      0.99945     2.03322    0.01168     3.04436
      C    3   -0.18460      0.99946     2.17332    0.01182     3.18460
      S    4    0.20271      4.99946     2.77531    0.02252     7.79729
      C    5   -0.21155      0.99946     2.20294    0.00914     3.21155
      C    6    0.05357      0.99937     1.93407    0.01299     2.94643
      N    7   -0.32245      0.99964     2.81361    0.00920     3.82245
      C    8    0.42157      0.99965     1.55585    0.02293     2.57843
      O    9   -0.35557      0.99986     3.35063    0.00508     4.35557
      N   10   -0.26399      0.99962     2.75357    0.01081     3.76399
      C   11   -0.08272      0.99961     2.07269    0.01043     3.08272
      C   12   -0.19285      0.99963     2.18447    0.00876     3.19285
      C   13   -0.19195      0.99961     2.18342    0.00891     3.19195
      C   14   -0.00530      0.99958     1.99248    0.01323     3.00530
      C   15   -0.19793      0.99959     2.18843    0.00990     3.19793
      C   16   -0.20322      0.99963     2.19473    0.00886     3.20322
      C   17   -0.00983      0.99961     1.99805    0.01218     3.00983
      O   18   -0.38441      0.99989     3.37735    0.00717     4.38441
      H   19    0.10283      0.00000     0.39593    0.00124     0.39717
      H   20    0.11095      0.00000     0.38726    0.00179     0.38905
      H   21    0.10928      0.00000     0.38891    0.00181     0.39072
      H   22    0.11197      0.00000     0.38675    0.00128     0.38803
      H   23    0.11541      0.00000     0.38329    0.00130     0.38459
      H   24    0.19931      0.00000     0.29863    0.00206     0.30069
      H   25    0.09650      0.00000     0.40165    0.00185     0.40350
      H   26    0.10677      0.00000     0.39103    0.00220     0.39323
      H   27    0.09544      0.00000     0.40309    0.00147     0.40456
      H   28    0.10850      0.00000     0.38956    0.00193     0.39150
      H   29    0.10390      0.00000     0.39486    0.00124     0.39610
      H   30    0.10248      0.00000     0.39590    0.00161     0.39752
      H   31    0.10202      0.00000     0.39563    0.00235     0.39798
      H   32    0.10571      0.00000     0.39285    0.00144     0.39429
      H   33    0.09796      0.00000     0.40086    0.00117     0.40204
      H   34    0.09724      0.00000     0.40181    0.00095     0.40276
      H   35    0.09592      0.00000     0.40280    0.00128     0.40408
      H   36    0.08160      0.00000     0.41729    0.00112     0.41840
      H   37    0.07473      0.00000     0.42414    0.00113     0.42527
      H   38    0.24829      0.00000     0.24860    0.00311     0.25171
 =======================================================================
   * Total *   -0.00000     21.99277    49.77318    0.23405    72.00000

 Normal termination of Gaussian 16 at Fri Dec 11 21:23:04 2020.
