 Gaussian 16, Revision A.03,

 -----------------------------------------------------------
 # opt freq B3LYP/6-31G(d) empiricaldispersion=gd3bj scf=xqc
 -----------------------------------------------------------

 -------------------------------
 CID_121623982_JID_5800_neutraal
 -------------------------------
 Symbolic Z-matrix:
 Charge =  0 Multiplicity = 1

 SCF Done:  E(RB3LYP) =  -692.410549540     A.U. after   14 cycles
 SCF Done:  E(RB3LYP) =  -692.415457714     A.U. after   12 cycles
 SCF Done:  E(RB3LYP) =  -692.414670743     A.U. after   12 cycles
 SCF Done:  E(RB3LYP) =  -692.412863086     A.U. after   12 cycles
 SCF Done:  E(RB3LYP) =  -692.410034217     A.U. after   12 cycles
 SCF Done:  E(RB3LYP) =  -692.415562075     A.U. after    8 cycles
 SCF Done:  E(RB3LYP) =  -692.417132150     A.U. after   12 cycles
 SCF Done:  E(RB3LYP) =  -692.417481475     A.U. after   11 cycles
 SCF Done:  E(RB3LYP) =  -692.417802435     A.U. after   11 cycles
 SCF Done:  E(RB3LYP) =  -692.417898051     A.U. after   11 cycles
 SCF Done:  E(RB3LYP) =  -692.420309445     A.U. after   10 cycles
 SCF Done:  E(RB3LYP) =  -692.420313837     A.U. after    9 cycles
 SCF Done:  E(RB3LYP) =  -692.420313587     A.U. after    8 cycles
 SCF Done:  E(RB3LYP) =  -692.420314073     A.U. after    8 cycles
 SCF Done:  E(RB3LYP) =  -692.420314058     A.U. after    6 cycles
 SCF Done:  E(RB3LYP) =  -692.420314120     A.U. after    7 cycles
 Optimization completed.
    -- Stationary point found.
 Normal termination of Gaussian 16 at Thu Dec 10 17:51:31 2020.

 --------------------------------------------------------------------
 #N Geom=AllCheck Guess=TCheck SCRF=Check GenChk RB3LYP/6-31G(d) Freq
 --------------------------------------------------------------------

 Structure from the checkpoint file:  "JID_5800.chk"
 -------------------------------
 CID_121623982_JID_5800_neutraal
 -------------------------------
 Charge =  0 Multiplicity = 1

 SCF Done:  E(RB3LYP) =  -692.420314120     A.U. after    1 cycles

  Exact polarizability: 152.793   2.776 120.941  -0.492   0.480 127.819
 Approx polarizability: 189.276   0.860 167.398  -6.795  -6.707 195.598

                      1                      2                      3
                      A                      A                      A
 Frequencies --     24.8741                41.0079                48.3741
 Red. masses --      3.4568                 3.2068                 4.5232
 Frc consts  --      0.0013                 0.0032                 0.0062
 IR Inten    --      0.6132                 0.5462                 0.8142

                      4                      5                      6
                      A                      A                      A
 Frequencies --     59.6011                78.0081                93.8067
 Red. masses --      2.6922                 3.8016                 2.3181
 Frc consts  --      0.0056                 0.0136                 0.0120
 IR Inten    --      0.4074                 0.1911                 1.2239

                      7                      8                      9
                      A                      A                      A
 Frequencies --    112.5033               126.3351               144.9598
 Red. masses --      3.0148                 3.6124                 3.3071
 Frc consts  --      0.0225                 0.0340                 0.0409
 IR Inten    --      1.8636                 0.4358                 4.0599

                     10                     11                     12
                      A                      A                      A
 Frequencies --    176.0395               202.5971               220.6565
 Red. masses --      2.8238                 1.4134                 2.0343
 Frc consts  --      0.0516                 0.0342                 0.0584
 IR Inten    --      0.6427                 0.0145                 2.1649

                     13                     14                     15
                      A                      A                      A
 Frequencies --    239.6141               260.6677               304.9383
 Red. masses --      1.4944                 1.7371                 2.1696
 Frc consts  --      0.0506                 0.0695                 0.1189
 IR Inten    --      0.5804                 0.9886                 2.2638

                     16                     17                     18
                      A                      A                      A
 Frequencies --    328.0714               349.5757               398.0500
 Red. masses --      2.6256                 2.2411                 4.1327
 Frc consts  --      0.1665                 0.1614                 0.3858
 IR Inten    --      0.5343                 6.4928                 1.8605

                     19                     20                     21
                      A                      A                      A
 Frequencies --    403.0278               435.3407               481.8112
 Red. masses --      4.2789                 2.7115                 3.0055
 Frc consts  --      0.4095                 0.3028                 0.4111
 IR Inten    --      8.6946                 5.4149                 5.4382

                     22                     23                     24
                      A                      A                      A
 Frequencies --    554.1410               595.4964               628.5728
 Red. masses --      2.5443                 4.0017                 2.3688
 Frc consts  --      0.4603                 0.8361                 0.5514
 IR Inten    --      0.6464                21.8712                 9.6288

                     25                     26                     27
                      A                      A                      A
 Frequencies --    637.1294               701.2482               725.1095
 Red. masses --      1.6962                 1.7840                 2.6671
 Frc consts  --      0.4057                 0.5169                 0.8262
 IR Inten    --     29.0722                32.4143                31.9181

                     28                     29                     30
                      A                      A                      A
 Frequencies --    773.7817               804.8645               810.0781
 Red. masses --      1.8703                 1.8045                 1.1734
 Frc consts  --      0.6598                 0.6887                 0.4537
 IR Inten    --     33.5516                 8.9532                 4.3402

                     31                     32                     33
                      A                      A                      A
 Frequencies --    827.2127               844.4682               873.9109
 Red. masses --      2.0533                 1.8808                 1.9397
 Frc consts  --      0.8278                 0.7902                 0.8728
 IR Inten    --     67.4994                13.3678                 7.6733

                     34                     35                     36
                      A                      A                      A
 Frequencies --    907.4574               933.8876               943.5454
 Red. masses --      1.8777                 2.3093                 2.1262
 Frc consts  --      0.9110                 1.1867                 1.1153
 IR Inten    --     16.2978                 0.8701                 6.0757

                     37                     38                     39
                      A                      A                      A
 Frequencies --    957.5281               967.7374               993.9674
 Red. masses --      2.1079                 1.8704                 2.7517
 Frc consts  --      1.1387                 1.0320                 1.6018
 IR Inten    --     13.4914                 6.1360                13.1298

                     40                     41                     42
                      A                      A                      A
 Frequencies --   1027.5405              1053.1143              1066.7605
 Red. masses --      2.1131                 2.4761                 1.8811
 Frc consts  --      1.3145                 1.6180                 1.2613
 IR Inten    --     10.3808                14.5295                 5.2093

                     43                     44                     45
                      A                      A                      A
 Frequencies --   1086.3530              1102.4560              1107.6440
 Red. masses --      2.2750                 2.6544                 2.2394
 Frc consts  --      1.5819                 1.9008                 1.6187
 IR Inten    --      1.4991                64.8545                17.1054

                     46                     47                     48
                      A                      A                      A
 Frequencies --   1122.6482              1148.4601              1172.6818
 Red. masses --      1.8496                 1.9778                 2.7026
 Frc consts  --      1.3734                 1.5370                 2.1897
 IR Inten    --     18.4803                 6.7542                23.8343

                     49                     50                     51
                      A                      A                      A
 Frequencies --   1174.5174              1177.5666              1213.5761
 Red. masses --      3.6805                 2.6754                 1.8158
 Frc consts  --      2.9914                 2.1858                 1.5756
 IR Inten    --    168.6753                33.3652                39.7684

                     52                     53                     54
                      A                      A                      A
 Frequencies --   1233.2132              1241.3731              1267.2125
 Red. masses --      1.4312                 1.2986                 1.2177
 Frc consts  --      1.2824                 1.1790                 1.1521
 IR Inten    --      4.6104                 8.5139                11.0256

                     55                     56                     57
                      A                      A                      A
 Frequencies --   1288.0213              1299.7985              1317.7244
 Red. masses --      1.2770                 1.2110                 1.3277
 Frc consts  --      1.2482                 1.2054                 1.3583
 IR Inten    --     22.1602                 5.3457                 0.7933

                     58                     59                     60
                      A                      A                      A
 Frequencies --   1333.9345              1343.5990              1348.3422
 Red. masses --      1.2558                 1.1333                 1.3278
 Frc consts  --      1.3166                 1.2054                 1.4222
 IR Inten    --      9.8501                13.1558                13.6438

                     61                     62                     63
                      A                      A                      A
 Frequencies --   1356.9601              1367.2724              1372.4144
 Red. masses --      1.2465                 1.3067                 1.5220
 Frc consts  --      1.3523                 1.4392                 1.6890
 IR Inten    --      3.4623                 4.4783                64.8202

                     64                     65                     66
                      A                      A                      A
 Frequencies --   1398.6966              1413.1719              1419.0081
 Red. masses --      1.2627                 1.2642                 1.4564
 Frc consts  --      1.4555                 1.4875                 1.7278
 IR Inten    --      5.4391                 7.3983                 5.3909

                     67                     68                     69
                      A                      A                      A
 Frequencies --   1430.5740              1440.0711              1441.7876
 Red. masses --      1.6989                 1.2835                 1.2428
 Frc consts  --      2.0485                 1.5682                 1.5222
 IR Inten    --     46.4856                28.9070                 1.2512

                     70                     71                     72
                      A                      A                      A
 Frequencies --   1447.8741              1475.5977              1505.6388
 Red. masses --      1.3773                 1.1845                 1.9755
 Frc consts  --      1.7011                 1.5196                 2.6385
 IR Inten    --     11.3649                11.9419               103.5533

                     73                     74                     75
                      A                      A                      A
 Frequencies --   1515.3777              1519.3522              1520.0606
 Red. masses --      1.0805                 1.0491                 1.0607
 Frc consts  --      1.4619                 1.4268                 1.4441
 IR Inten    --      6.1319                 4.7783                 0.2010

                     76                     77                     78
                      A                      A                      A
 Frequencies --   1523.5355              1526.6372              1527.8845
 Red. masses --      1.0705                 1.0530                 1.0903
 Frc consts  --      1.4640                 1.4459                 1.4996
 IR Inten    --      3.2184                 4.0038                 2.0517

                     79                     80                     81
                      A                      A                      A
 Frequencies --   1534.0465              1538.4717              1546.2272
 Red. masses --      1.0709                 1.0708                 1.0945
 Frc consts  --      1.4849                 1.4933                 1.5417
 IR Inten    --      1.0931                 3.4137                 0.9181

                     82                     83                     84
                      A                      A                      A
 Frequencies --   1548.7626              1761.7240              2991.8723
 Red. masses --      1.0956                 7.6075                 1.0578
 Frc consts  --      1.5484                13.9112                 5.5789
 IR Inten    --      9.2142               349.2918                31.4985

                     85                     86                     87
                      A                      A                      A
 Frequencies --   3002.9465              3019.5406              3020.5847
 Red. masses --      1.0703                 1.0809                 1.0830
 Frc consts  --      5.6866                 5.8067                 5.8219
 IR Inten    --     51.4200                12.5137                10.9916

                     88                     89                     90
                      A                      A                      A
 Frequencies --   3038.8534              3044.6640              3046.6774
 Red. masses --      1.0958                 1.0663                 1.0680
 Frc consts  --      5.9623                 5.8241                 5.8408
 IR Inten    --    100.0672                21.6990                65.7400

                     91                     92                     93
                      A                      A                      A
 Frequencies --   3052.1338              3056.7411              3087.0141
 Red. masses --      1.0364                 1.0369                 1.0957
 Frc consts  --      5.6884                 5.7083                 6.1519
 IR Inten    --     37.3087                23.5452                 6.7920

                     94                     95                     96
                      A                      A                      A
 Frequencies --   3087.3590              3101.1503              3106.4311
 Red. masses --      1.0648                 1.0945                 1.0964
 Frc consts  --      5.9799                 6.2019                 6.2339
 IR Inten    --     29.7395                 9.9950                24.0076

                     97                     98                     99
                      A                      A                      A
 Frequencies --   3114.9724              3115.6580              3125.5524
 Red. masses --      1.0912                 1.1011                 1.1008
 Frc consts  --      6.2380                 6.2978                 6.3359
 IR Inten    --      5.3609                40.0013                43.4288

                    100                    101                    102
                      A                      A                      A
 Frequencies --   3130.5894              3131.9730              3134.0395
 Red. masses --      1.1020                 1.1012                 1.1038
 Frc consts  --      6.3635                 6.3641                 6.3875
 IR Inten    --     26.2525                54.3319                36.4607

                    103                    104                    105
                      A                      A                      A
 Frequencies --   3171.2789              3475.8605              3587.5106
 Red. masses --      1.0873                 1.0735                 1.0748
 Frc consts  --      6.4429                 7.6418                 8.1500
 IR Inten    --     10.1899                 7.2563                44.1927

 - Thermochemistry -
 -------------------
 Temperature   298.150 Kelvin.  Pressure   1.00000 Atm.
 Atom     1 has atomic number  6 and mass  12.00000

 Molecular mass:   214.16813 amu.
 Principal axes and moments of inertia in atomic units:
                           1         2         3
     Eigenvalues --  2213.187345895.061316239.72271
           X            0.99999   0.00507  -0.00011
           Y           -0.00501   0.99025   0.13924
           Z            0.00081  -0.13924   0.99026
 This molecule is an asymmetric top.
 Rotational symmetry number  1.
 Warning -- assumption of classical behavior for rotation
           may cause significant error
 Rotational temperatures (Kelvin)      0.03914     0.01469     0.01388
 Rotational constants (GHZ):           0.81545     0.30614     0.28923
 Zero-point vibrational energy     878723.4 (Joules/Mol)
                                  210.01994 (Kcal/Mol)
 Warning -- explicit consideration of  23 degrees of freedom as
           vibrations may cause significant error
 Vibrational temperatures:     35.79    59.00    69.60    85.75   112.24
          (Kelvin)            134.97   161.87   181.77   208.56   253.28
                              291.49   317.48   344.75   375.04   438.74
                              472.02   502.96   572.71   579.87   626.36
                              693.22   797.29   856.79   904.38   916.69
                             1008.94  1043.27  1113.30  1158.02  1165.52
                             1190.17  1215.00  1257.36  1305.63  1343.66
                             1357.55  1377.67  1392.36  1430.10  1478.40
                             1515.20  1534.83  1563.02  1586.19  1593.65
                             1615.24  1652.38  1687.23  1689.87  1694.26
                             1746.07  1774.32  1786.06  1823.24  1853.18
                             1870.12  1895.91  1919.23  1933.14  1939.96
                             1952.36  1967.20  1974.60  2012.41  2033.24
                             2041.64  2058.28  2071.94  2074.41  2083.17
                             2123.06  2166.28  2180.29  2186.01  2187.03
                             2192.03  2196.49  2198.28  2207.15  2213.52
                             2224.68  2228.32  2534.73  4304.64  4320.57
                             4344.45  4345.95  4372.23  4380.59  4383.49
                             4391.34  4397.97  4441.52  4442.02  4461.86
                             4469.46  4481.75  4482.74  4496.97  4504.22
                             4506.21  4509.18  4562.76  5000.99  5161.63

 Zero-point correction=                           0.334688 (Hartree/Particle)
 Thermal correction to Energy=                    0.351508
 Thermal correction to Enthalpy=                  0.352452
 Thermal correction to Gibbs Free Energy=         0.288472
 Sum of electronic and zero-point Energies=           -692.085626
 Sum of electronic and thermal Energies=              -692.068806
 Sum of electronic and thermal Enthalpies=            -692.067862
 Sum of electronic and thermal Free Energies=         -692.131843

                     E (Thermal)             CV                S
                      KCal/Mol        Cal/Mol-Kelvin    Cal/Mol-Kelvin
 Total                  220.575             61.547            134.659
 Electronic               0.000              0.000              0.000
 Translational            0.889              2.981             41.988
 Rotational               0.889              2.981             32.765
 Vibrational            218.797             55.586             59.905
 Vibration     1          0.593              1.985              6.201
 Vibration     2          0.594              1.981              5.210
 Vibration     3          0.595              1.978              4.883
 Vibration     4          0.597              1.974              4.470
 Vibration     5          0.599              1.964              3.940
 Vibration     6          0.603              1.954              3.579
 Vibration     7          0.607              1.939              3.225
 Vibration     8          0.611              1.927              3.001
 Vibration     9          0.616              1.908              2.737
 Vibration    10          0.628              1.872              2.370
 Vibration    11          0.639              1.836              2.109
 Vibration    12          0.647              1.810              1.954
 Vibration    13          0.657              1.780              1.806
 Vibration    14          0.669              1.745              1.657
 Vibration    15          0.696              1.664              1.390
 Vibration    16          0.711              1.619              1.270
 Vibration    17          0.727              1.576              1.168
 Vibration    18          0.764              1.474              0.970
 Vibration    19          0.768              1.464              0.952
 Vibration    20          0.796              1.393              0.841
 Vibration    21          0.838              1.290              0.705
 Vibration    22          0.910              1.131              0.536
 Vibration    23          0.953              1.041              0.457

 Optimization completed.
    -- Stationary point found.
 Normal termination of Gaussian 16 at Thu Dec 10 18:03:35 2020.

 ----------------------------------------------------------------------
 # B3LYP/6-311++G(d,p) empiricaldispersion=gd3bj scf=xqc pop=npa geom=c
 heck
 ----------------------------------------------------------------------

 ---------------------------------------
 CID_121623982_JID_5800_Energie_neutraal
 ---------------------------------------
 Structure from the checkpoint file:  "JID_5800.chk"
 Charge =  0 Multiplicity = 1

 SCF Done:  E(RB3LYP) =  -692.626093633     A.U. after   15 cycles
 Normal termination of Gaussian 16 at Thu Dec 10 18:09:19 2020.

 ----------------------------------------------------------------------
 # B3LYP/6-311++G(d,p) empiricaldispersion=gd3bj scf=xqc pop=npa geom=c
 heck
 ----------------------------------------------------------------------

 -------------------------------------
 CID_121623982_JID_5800_Energie_kation
 -------------------------------------
 Structure from the checkpoint file:  "JID_5800.chk"
 Charge =  1 Multiplicity = 2

 SCF Done:  E(UB3LYP) =  -692.318634893     A.U. after   29 cycles
 Normal termination of Gaussian 16 at Thu Dec 10 18:24:35 2020.
 Gaussian 16:  ES64L-G16RevA.03 25-Dec-2016

 ----------------------------------------------------------------------
 # B3LYP/6-311++G(d,p) empiricaldispersion=gd3bj scf=xqc pop=npa geom=c
 heck
 ----------------------------------------------------------------------

 ------------------------------------
 CID_121623982_JID_5800_Energie_anion
 ------------------------------------
 Structure from the checkpoint file:  "JID_5800.chk"
 Charge = -1 Multiplicity = 2

                         Standard orientation:
 ---------------------------------------------------------------------
 Center     Atomic      Atomic             Coordinates (Angstroms)
 Number     Number       Type             X           Y           Z
 ---------------------------------------------------------------------
      1          6           0       -1.966472    3.042884    0.748451
      2          6           0       -1.484242    1.598113    0.899169
      3          6           0       -2.372934    0.595589    0.167162
      4          6           0       -2.054490   -0.936528    0.411877
      5          6           0       -2.240109   -1.593646   -0.980235
      6          6           0       -2.849401   -0.467606   -1.854160
      7          7           0       -2.405348    0.809965   -1.286620
      8          6           0       -0.755054   -1.230317    1.162906
      9          8           0       -0.797230   -1.521572    2.355438
     10          7           0        0.459097   -1.178197    0.526460
     11          6           0        0.849756   -0.694688   -0.781903
     12          6           0        2.068891    0.211345   -0.662157
     13          8           0        3.091812   -0.544174   -0.040432
     14          6           0        4.191587    0.223653    0.435763
     15          6           0        5.074890    0.773984   -0.679752
     16          1           0       -2.000968    3.340870   -0.304122
     17          1           0       -1.307937    3.736078    1.283298
     18          1           0       -2.977942    3.159263    1.154842
     19          1           0       -0.452204    1.509874    0.532836
     20          1           0       -1.450205    1.316289    1.958020
     21          1           0       -3.402330    0.745936    0.520812
     22          1           0       -2.805468   -1.319306    1.104928
     23          1           0       -1.289923   -1.938682   -1.395866
     24          1           0       -2.892159   -2.470428   -0.923483
     25          1           0       -2.574985   -0.536339   -2.911124
     26          1           0       -3.944898   -0.504254   -1.796980
     27          1           0       -1.467413    1.029167   -1.620284
     28          1           0        1.235047   -1.417071    1.133364
     29          1           0        1.092883   -1.528295   -1.456673
     30          1           0        0.035147   -0.130112   -1.233326
     31          1           0        2.371834    0.558378   -1.661781
     32          1           0        1.822687    1.094813   -0.050834
     33          1           0        3.822385    1.041919    1.074971
     34          1           0        4.763470   -0.461856    1.068564
     35          1           0        4.544862    1.508501   -1.295500
     36          1           0        5.953984    1.270269   -0.253524
     37          1           0        5.416704   -0.038130   -1.329780
 ---------------------------------------------------------------------

 SCF Done:  E(UB3LYP) =  -692.616258988     A.U. after   31 cycles

 The electronic state is 2-A.
 Alpha  occ. eigenvalues --  -19.03810 -18.99047 -14.23938 -14.20838 -10.17888
 Alpha  occ. eigenvalues --  -10.12792 -10.12716 -10.11904 -10.11462 -10.10332
 Alpha  occ. eigenvalues --  -10.09180 -10.08258 -10.08075 -10.07059 -10.06694
 Alpha  occ. eigenvalues --   -0.95224  -0.94199  -0.83663  -0.82575  -0.69503
 Alpha  occ. eigenvalues --   -0.68840  -0.67871  -0.64087  -0.62209  -0.55896
 Alpha  occ. eigenvalues --   -0.54942  -0.52277  -0.51108  -0.50696  -0.47096
 Alpha  occ. eigenvalues --   -0.41552  -0.41121  -0.40269  -0.39130  -0.38683
 Alpha  occ. eigenvalues --   -0.37238  -0.36970  -0.36020  -0.34311  -0.32865
 Alpha  occ. eigenvalues --   -0.32320  -0.32011  -0.30948  -0.30678  -0.30321
 Alpha  occ. eigenvalues --   -0.28725  -0.28216  -0.27564  -0.27300  -0.26605
 Alpha  occ. eigenvalues --   -0.25768  -0.24823  -0.23831  -0.23506  -0.23038
 Alpha  occ. eigenvalues --   -0.17713  -0.16482  -0.15840  -0.14480   0.04101
 Alpha virt. eigenvalues --    0.05994   0.06677   0.06911   0.08228   0.08553
 Alpha virt. eigenvalues --    0.08774   0.09346   0.09956   0.10078   0.10414
 Alpha virt. eigenvalues --    0.10882   0.11584   0.11677   0.12212   0.12444

  Beta  occ. eigenvalues --  -19.03802 -18.99044 -14.23938 -14.20817 -10.17886
  Beta  occ. eigenvalues --  -10.12778 -10.12679 -10.11879 -10.11460 -10.10309
  Beta  occ. eigenvalues --  -10.09179 -10.08248 -10.08066 -10.07044 -10.06649
  Beta  occ. eigenvalues --   -0.95205  -0.94193  -0.83635  -0.82561  -0.69482
  Beta  occ. eigenvalues --   -0.68813  -0.67839  -0.64037  -0.62179  -0.55828
  Beta  occ. eigenvalues --   -0.54907  -0.52239  -0.51062  -0.50618  -0.47069
  Beta  occ. eigenvalues --   -0.41527  -0.41084  -0.40222  -0.39104  -0.38652
  Beta  occ. eigenvalues --   -0.37215  -0.36929  -0.35998  -0.34288  -0.32839
  Beta  occ. eigenvalues --   -0.32285  -0.31980  -0.30902  -0.30648  -0.30268
  Beta  occ. eigenvalues --   -0.28697  -0.28171  -0.27538  -0.27274  -0.26570
  Beta  occ. eigenvalues --   -0.25740  -0.24798  -0.23812  -0.23490  -0.22997
  Beta  occ. eigenvalues --   -0.17685  -0.16473  -0.15829  -0.14459
  Beta virt. eigenvalues --    0.06250   0.06706   0.07113   0.07694   0.08472
  Beta virt. eigenvalues --    0.08865   0.09126   0.09635   0.10137   0.10412
  Beta virt. eigenvalues --    0.10689   0.11052   0.11733   0.11991   0.12531

 Mulliken charges and spin densities:
               1          2
     1  C    0.052016  -0.623190
     2  C   -0.692826   0.377613
     3  C    0.197329  -0.336853
     4  C    0.480531  -0.088401
     5  C   -0.469012   0.181791
     6  C    0.542013  -0.941707
     7  N   -0.142701   0.087952
     8  C   -0.629099   0.147452
     9  O   -0.303595  -0.000497
    10  N   -0.197872   0.022741
    11  C    0.094213  -0.252247
    12  C    0.708327  -1.256892
    13  O   -0.165373   0.048621
    14  C   -0.501081   0.391844
    15  C    1.057496  -1.479471
    16  H    0.005276   0.161697
    17  H   -0.150161   0.290416
    18  H    0.082391   0.036993
    19  H    0.332126  -0.259007
    20  H    0.112141   0.062550
    21  H    0.142476   0.027370
    22  H    0.229687   0.028460
    23  H    0.147274   0.046676
    24  H   -0.107023   0.271004
    25  H   -0.528281   0.711679
    26  H    0.121559   0.018763
    27  H    0.006287   0.216895
    28  H    0.337498   0.002338
    29  H   -0.197856   0.397883
    30  H   -0.154926   0.242751
    31  H   -0.362940   0.562296
    32  H   -0.070870   0.237317
    33  H    0.087699   0.019361
    34  H   -0.108879   0.258268
    35  H   -0.479469   0.630427
    36  H   -0.429785   0.571949
    37  H   -0.044589   0.185157
 Sum of Mulliken charges =  -1.00000   1.00000

 Dipole moment (field-independent basis, Debye):
    X=             -5.1675    Y=             -2.2429    Z=              3.9174  Tot=              6.8615
 Quadrupole moment (field-independent basis, Debye-Ang):
   XX=           -170.6364   YY=           -137.8795   ZZ=           -149.2155
   XY=             -9.2250   XZ=              4.8976   YZ=              7.5557

 Summary of Natural Population Analysis:

                                       Natural Population
                Natural  -----------------------------------------------
    Atom  No    Charge         Core      Valence    Rydberg      Total
 -----------------------------------------------------------------------
      C    1   -0.28363      0.99967     2.27875    0.00521     3.28363
      C    2   -0.20033      0.99961     2.19282    0.00791     3.20033
      C    3   -0.00119      0.99959     1.98883    0.01276     3.00119
      C    4   -0.15666      0.99954     2.14627    0.01085     3.15666
      C    5   -0.20059      0.99963     2.19308    0.00789     3.20059
      C    6   -0.09039      0.99964     2.07940    0.01134     3.09039
      N    7   -0.33613      0.99975     2.82457    0.01181     3.83613
      C    8    0.34779      0.99963     1.62954    0.02304     2.65221
      O    9   -0.33022      0.99988     3.32486    0.00549     4.33022
      N   10   -0.32058      0.99966     2.81154    0.00939     3.82058
      C   11   -0.10044      0.99960     2.08772    0.01312     3.10044
      C   12   -0.01145      0.99957     1.99920    0.01267     3.01145
      O   13   -0.30718      0.99988     3.29827    0.00902     4.30718
      C   14   -0.00628      0.99960     1.99448    0.01221     3.00628
      C   15   -0.30179      0.99967     2.29747    0.00464     3.30179
      H   16    0.10419      0.00000     0.39487    0.00094     0.39581
      H   17    0.09846      0.00000     0.40078    0.00076     0.40154
      H   18    0.09377      0.00000     0.40545    0.00078     0.40623
      H   19    0.09581      0.00000     0.40158    0.00260     0.40419
      H   20    0.10448      0.00000     0.39452    0.00100     0.39552
      H   21    0.09017      0.00000     0.40853    0.00130     0.40983
      H   22    0.11293      0.00000     0.38595    0.00113     0.38707
      H   23    0.10169      0.00000     0.39665    0.00166     0.39831
      H   24    0.10111      0.00000     0.39794    0.00095     0.39889
      H   25    0.10159      0.00000     0.39688    0.00152     0.39841
      H   26    0.08695      0.00000     0.41198    0.00108     0.41305
      H   27    0.17260      0.00000     0.32361    0.00378     0.32740
      H   28    0.19946      0.00000     0.29781    0.00273     0.30054
      H   29    0.09649      0.00000     0.40194    0.00157     0.40351
      H   30    0.09849      0.00000     0.39810    0.00341     0.40151
      H   31    0.09172      0.00000     0.40538    0.00290     0.40828
      H   32    0.07958      0.00000     0.41824    0.00218     0.42042
      H   33    0.07782      0.00000     0.42081    0.00137     0.42218
      H   34    0.08654      0.00000     0.41228    0.00117     0.41346
      H   35    0.10252      0.00000     0.39544    0.00203     0.39748
      H   36    0.10213      0.00000     0.39631    0.00156     0.39787
      H   37    0.10057      0.00000     0.39825    0.00118     0.39943
 =======================================================================
   * Total *   -0.00000     14.99491    43.81012    0.19497    59.00000

 Normal termination of Gaussian 16 at Thu Dec 10 18:38:49 2020.
