 Gaussian 16, Revision A.03,

 -----------------------------------------------------------
 # opt freq B3LYP/6-31G(d) empiricaldispersion=gd3bj scf=xqc
 -----------------------------------------------------------

 ------------------------------
 CID_64344982_JID_4954_neutraal
 ------------------------------
 Symbolic Z-matrix:
 Charge =  0 Multiplicity = 1

 SCF Done:  E(RB3LYP) =  -598.679192506     A.U. after   15 cycles
 SCF Done:  E(RB3LYP) =  -598.700770902     A.U. after   13 cycles
 SCF Done:  E(RB3LYP) =  -598.704166064     A.U. after   12 cycles
 SCF Done:  E(RB3LYP) =  -598.704090681     A.U. after   12 cycles
 SCF Done:  E(RB3LYP) =  -598.704583914     A.U. after   12 cycles
 SCF Done:  E(RB3LYP) =  -598.705714865     A.U. after   12 cycles
 SCF Done:  E(RB3LYP) =  -598.705810089     A.U. after   11 cycles
 SCF Done:  E(RB3LYP) =  -598.705357879     A.U. after   12 cycles
 SCF Done:  E(RB3LYP) =  -598.705950114     A.U. after   11 cycles
 SCF Done:  E(RB3LYP) =  -598.705969352     A.U. after    9 cycles
 SCF Done:  E(RB3LYP) =  -598.705974104     A.U. after    9 cycles
 SCF Done:  E(RB3LYP) =  -598.705975514     A.U. after    8 cycles
 SCF Done:  E(RB3LYP) =  -598.705975897     A.U. after    7 cycles
 Optimization completed.
    -- Stationary point found.
 Normal termination of Gaussian 16 at Thu Dec 10 11:06:40 2020.

 --------------------------------------------------------------------
 #N Geom=AllCheck Guess=TCheck SCRF=Check GenChk RB3LYP/6-31G(d) Freq
 --------------------------------------------------------------------

 Structure from the checkpoint file:  "JID_4954.chk"
 ------------------------------
 CID_64344982_JID_4954_neutraal
 ------------------------------
 Charge =  0 Multiplicity = 1

 SCF Done:  E(RB3LYP) =  -598.705975897     A.U. after    1 cycles

  Exact polarizability: 142.654   1.232 131.046   2.290  -7.606 106.376
 Approx polarizability: 162.593  -1.706 211.283   3.789 -21.862 167.390

                      1                      2                      3
                      A                      A                      A
 Frequencies --     36.8538                43.8253                77.8486
 Red. masses --      3.9341                 4.0875                 2.5524
 Frc consts  --      0.0031                 0.0046                 0.0091
 IR Inten    --      0.2536                 0.3959                 0.9604

                      4                      5                      6
                      A                      A                      A
 Frequencies --     85.3175                93.7568               136.5949
 Red. masses --      3.1327                 3.8745                 2.4100
 Frc consts  --      0.0134                 0.0201                 0.0265
 IR Inten    --      0.1519                 3.5278                 0.3917

                      7                      8                      9
                      A                      A                      A
 Frequencies --    161.3076               188.2846               218.8554
 Red. masses --      3.8519                 3.1326                 2.3650
 Frc consts  --      0.0591                 0.0654                 0.0667
 IR Inten    --      0.0842                 2.1009                 0.9254

                     10                     11                     12
                      A                      A                      A
 Frequencies --    235.5114               266.7667               305.6504
 Red. masses --      1.5122                 2.2333                 2.5753
 Frc consts  --      0.0494                 0.0936                 0.1417
 IR Inten    --      0.3039                 0.1335                 2.6424

                     13                     14                     15
                      A                      A                      A
 Frequencies --    342.1672               357.5789               380.9462
 Red. masses --      3.0413                 2.8655                 3.8260
 Frc consts  --      0.2098                 0.2159                 0.3271
 IR Inten    --      2.6709                 3.3079                 0.1683

                     16                     17                     18
                      A                      A                      A
 Frequencies --    406.3586               438.9305               446.0600
 Red. masses --      2.1167                 2.6902                 2.3689
 Frc consts  --      0.2059                 0.3054                 0.2777
 IR Inten    --      3.3703                 4.1322                 2.7266

                     19                     20                     21
                      A                      A                      A
 Frequencies --    497.1991               520.9008               565.5647
 Red. masses --      2.5293                 2.5459                 2.9110
 Frc consts  --      0.3684                 0.4070                 0.5486
 IR Inten    --      7.4176                 2.0527                 2.1882

                     22                     23                     24
                      A                      A                      A
 Frequencies --    593.6370               601.6269               614.2137
 Red. masses --      1.3244                 2.4308                 1.2101
 Frc consts  --      0.2750                 0.5184                 0.2690
 IR Inten    --     46.8389                 5.1461                58.3291

                     25                     26                     27
                      A                      A                      A
 Frequencies --    692.2064               730.8282               765.7356
 Red. masses --      3.0288                 3.2548                 1.5706
 Frc consts  --      0.8551                 1.0243                 0.5426
 IR Inten    --      0.0227                 6.5214                 1.3690

                     28                     29                     30
                      A                      A                      A
 Frequencies --    818.4014               830.6252               863.6524
 Red. masses --      1.6243                 2.6454                 2.0004
 Frc consts  --      0.6410                 1.0753                 0.8791
 IR Inten    --      2.4896                 0.8241                 3.4408

                     31                     32                     33
                      A                      A                      A
 Frequencies --    905.2879               922.3888               932.2049
 Red. masses --      2.0225                 1.9183                 2.2504
 Frc consts  --      0.9766                 0.9616                 1.1522
 IR Inten    --      0.7884                 3.9637                 3.0322

                     34                     35                     36
                      A                      A                      A
 Frequencies --    973.7857               992.4101              1026.0418
 Red. masses --      1.7944                 2.2220                 2.0761
 Frc consts  --      1.0025                 1.2894                 1.2877
 IR Inten    --      6.9782                 8.4300                 7.5804

                     37                     38                     39
                      A                      A                      A
 Frequencies --   1032.4979              1042.9874              1053.0837
 Red. masses --      2.0115                 2.4010                 2.3807
 Frc consts  --      1.2634                 1.5388                 1.5555
 IR Inten    --      0.8355                 2.7136                 3.9128

                     40                     41                     42
                      A                      A                      A
 Frequencies --   1082.2740              1090.0934              1106.4401
 Red. masses --      2.3245                 2.3490                 2.0145
 Frc consts  --      1.6042                 1.6446                 1.4530
 IR Inten    --      0.0514                 3.3127                 2.4641

                     43                     44                     45
                      A                      A                      A
 Frequencies --   1134.6725              1176.1427              1191.3001
 Red. masses --      1.6183                 1.7357                 1.7081
 Frc consts  --      1.2276                 1.4147                 1.4282
 IR Inten    --      9.1149                15.5964                 7.4035

                     46                     47                     48
                      A                      A                      A
 Frequencies --   1224.9271              1232.5308              1261.3091
 Red. masses --      1.5966                 1.5328                 1.3073
 Frc consts  --      1.4114                 1.3720                 1.2253
 IR Inten    --     19.8428                39.1008                 2.1264

                     49                     50                     51
                      A                      A                      A
 Frequencies --   1290.4544              1310.6904              1317.6317
 Red. masses --      1.3004                 1.2980                 1.2235
 Frc consts  --      1.2759                 1.3138                 1.2516
 IR Inten    --     13.1320                17.4660                 1.1046

                     52                     53                     54
                      A                      A                      A
 Frequencies --   1328.2819              1341.3844              1366.5721
 Red. masses --      1.4992                 1.3175                 1.3334
 Frc consts  --      1.5584                 1.3967                 1.4671
 IR Inten    --     15.9211                 1.0819                 3.4961

                     55                     56                     57
                      A                      A                      A
 Frequencies --   1368.1276              1383.5217              1395.3190
 Red. masses --      1.3615                 1.3817                 1.4103
 Frc consts  --      1.5015                 1.5583                 1.6177
 IR Inten    --      9.8281                25.2436                 5.3086

                     58                     59                     60
                      A                      A                      A
 Frequencies --   1405.5866              1418.4151              1419.7721
 Red. masses --      1.3609                 1.3692                 1.4405
 Frc consts  --      1.5841                 1.6230                 1.7108
 IR Inten    --     29.5682                33.7553                11.0476

                     61                     62                     63
                      A                      A                      A
 Frequencies --   1425.8889              1444.5534              1470.4295
 Red. masses --      1.5153                 1.2555                 1.8562
 Frc consts  --      1.8152                 1.5435                 2.3647
 IR Inten    --     10.4572                 3.5353                72.1483

                     64                     65                     66
                      A                      A                      A
 Frequencies --   1497.1637              1502.4225              1504.8575
 Red. masses --      1.0873                 1.0905                 1.0972
 Frc consts  --      1.4359                 1.4503                 1.4639
 IR Inten    --      3.3998                 1.3832                 8.1948

                     67                     68                     69
                      A                      A                      A
 Frequencies --   1511.2026              1519.5040              1522.5746
 Red. masses --      1.1358                 1.0730                 1.0946
 Frc consts  --      1.5282                 1.4596                 1.4950
 IR Inten    --     29.6981                 0.1124                 5.5777

                     70                     71                     72
                      A                      A                      A
 Frequencies --   1531.6304              1540.1569              1545.7069
 Red. masses --      1.0513                 1.0581                 1.2045
 Frc consts  --      1.4530                 1.4787                 1.6956
 IR Inten    --      3.0109                 6.4393                40.5864

                     73                     74                     75
                      A                      A                      A
 Frequencies --   1753.0470              2239.0667              2983.5794
 Red. masses --      9.4297                 5.9886                 1.0819
 Frc consts  --     17.0740                17.6892                 5.6743
 IR Inten    --    271.0803                 2.6528                14.2462

                     76                     77                     78
                      A                      A                      A
 Frequencies --   3023.4117              3030.4286              3037.3539
 Red. masses --      1.0602                 1.0616                 1.0676
 Frc consts  --      5.7097                 5.7441                 5.8032
 IR Inten    --      8.3612                39.1294                14.5208

                     79                     80                     81
                      A                      A                      A
 Frequencies --   3044.3719              3044.5167              3047.5416
 Red. masses --      1.0657                 1.0647                 1.0416
 Frc consts  --      5.8194                 5.8148                 5.6996
 IR Inten    --     14.9206                20.7775                25.3936

                     82                     83                     84
                      A                      A                      A
 Frequencies --   3051.1085              3057.5402              3073.8404
 Red. masses --      1.0748                 1.0978                 1.1002
 Frc consts  --      5.8949                 6.0465                 6.1245
 IR Inten    --     31.1589                 9.5854                57.4312

                     85                     86                     87
                      A                      A                      A
 Frequencies --   3083.3333              3091.6042              3100.3882
 Red. masses --      1.0684                 1.0983                 1.0893
 Frc consts  --      5.9843                 6.1849                 6.1695
 IR Inten    --     13.0901                48.7934                15.1228

                     88                     89                     90
                      A                      A                      A
 Frequencies --   3111.2482              3122.2772              3132.9367
 Red. masses --      1.1011                 1.1012                 1.0936
 Frc consts  --      6.2798                 6.3251                 6.3240
 IR Inten    --     42.3892                39.4862                21.3731

                     91                     92                     93
                      A                      A                      A
 Frequencies --   3136.0739              3146.0593              3495.8584
 Red. masses --      1.0937                 1.1049                 1.1595
 Frc consts  --      6.3374                 6.4431                 8.3490
 IR Inten    --     11.3375                11.9722                54.1305

 - Thermochemistry -
 -------------------
 Temperature   298.150 Kelvin.  Pressure   1.00000 Atm.
 Atom     1 has atomic number  6 and mass  12.00000

 Molecular mass:   193.14666 amu.
 Principal axes and moments of inertia in atomic units:
                           1         2         3
     Eigenvalues --  1384.177104955.434405694.65795
           X            0.99998  -0.00326   0.00554
           Y            0.00322   0.99996   0.00822
           Z           -0.00557  -0.00820   0.99995
 This molecule is an asymmetric top.
 Rotational symmetry number  1.
 Warning -- assumption of classical behavior for rotation
           may cause significant error
 Rotational temperatures (Kelvin)      0.06257     0.01748     0.01521
 Rotational constants (GHZ):           1.30384     0.36419     0.31692
 Zero-point vibrational energy     770784.0 (Joules/Mol)
                                  184.22179 (Kcal/Mol)
 Warning -- explicit consideration of  24 degrees of freedom as
           vibrations may cause significant error
 Vibrational temperatures:     53.02    63.05   112.01   122.75   134.90
          (Kelvin)            196.53   232.09   270.90   314.88   338.85
                              383.82   439.76   492.30   514.48   548.10
                              584.66   631.52   641.78   715.36   749.46
                              813.72   854.11   865.61   883.72   995.93
                             1051.50  1101.72  1177.50  1195.08  1242.60
                             1302.51  1327.11  1341.23  1401.06  1427.86
                             1476.25  1485.53  1500.63  1515.15  1557.15
                             1568.40  1591.92  1632.54  1692.21  1714.02
                             1762.40  1773.34  1814.74  1856.68  1885.79
                             1895.78  1911.10  1929.95  1966.19  1968.43
                             1990.58  2007.55  2022.33  2040.78  2042.74
                             2051.54  2078.39  2115.62  2154.08  2161.65
                             2165.15  2174.28  2186.23  2190.65  2203.67
                             2215.94  2223.93  2522.24  3221.52  4292.71
                             4350.02  4360.11  4370.07  4380.17  4380.38
                             4384.73  4389.86  4399.12  4422.57  4436.23
                             4448.13  4460.77  4476.39  4492.26  4507.60
                             4512.11  4526.48  5029.76

 Zero-point correction=                           0.293576 (Hartree/Particle)
 Thermal correction to Energy=                    0.308389
 Thermal correction to Enthalpy=                  0.309333
 Thermal correction to Gibbs Free Energy=         0.251309
 Sum of electronic and zero-point Energies=           -598.412400
 Sum of electronic and thermal Energies=              -598.397587
 Sum of electronic and thermal Enthalpies=            -598.396643
 Sum of electronic and thermal Free Energies=         -598.454667

                     E (Thermal)             CV                S
                      KCal/Mol        Cal/Mol-Kelvin    Cal/Mol-Kelvin
 Total                  193.517             56.112            122.123
 Electronic               0.000              0.000              0.000
 Translational            0.889              2.981             41.680
 Rotational               0.889              2.981             32.035
 Vibrational            191.740             50.150             48.408
 Vibration     1          0.594              1.982              5.421
 Vibration     2          0.595              1.980              5.078
 Vibration     3          0.599              1.964              3.944
 Vibration     4          0.601              1.959              3.765
 Vibration     5          0.603              1.954              3.580
 Vibration     6          0.614              1.917              2.851
 Vibration     7          0.622              1.890              2.534
 Vibration     8          0.633              1.856              2.245
 Vibration     9          0.647              1.812              1.969
 Vibration    10          0.655              1.786              1.837
 Vibration    11          0.672              1.734              1.617
 Vibration    12          0.696              1.663              1.386
 Vibration    13          0.721              1.591              1.202
 Vibration    14          0.733              1.560              1.133
 Vibration    15          0.751              1.511              1.035
 Vibration    16          0.771              1.456              0.940
 Vibration    17          0.799              1.385              0.830
 Vibration    18          0.805              1.370              0.808
 Vibration    19          0.853              1.256              0.665
 Vibration    20          0.876              1.204              0.608
 Vibration    21          0.921              1.106              0.513
 Vibration    22          0.951              1.045              0.461
 Vibration    23          0.960              1.028              0.447
 Vibration    24          0.974              1.002              0.426

                           ! Non-Optimized Parameters !
 Normal termination of Gaussian 16 at Thu Dec 10 11:17:02 2020.

 ----------------------------------------------------------------------
 # B3LYP/6-311++G(d,p) empiricaldispersion=gd3bj scf=xqc pop=npa geom=c
 heck
 ----------------------------------------------------------------------

 --------------------------------------
 CID_64344982_JID_4954_Energie_neutraal
 --------------------------------------
 Structure from the checkpoint file:  "JID_4954.chk"
 Charge =  0 Multiplicity = 1

 SCF Done:  E(RB3LYP) =  -598.876194632     A.U. after   15 cycles
 Normal termination of Gaussian 16 at Thu Dec 10 11:22:11 2020.

 ----------------------------------------------------------------------
 # B3LYP/6-311++G(d,p) empiricaldispersion=gd3bj scf=xqc pop=npa geom=c
 heck
 ----------------------------------------------------------------------

 ------------------------------------
 CID_64344982_JID_4954_Energie_kation
 ------------------------------------
 Structure from the checkpoint file:  "JID_4954.chk"
 Charge =  1 Multiplicity = 2

 SCF Done:  E(UB3LYP) =  -598.567409460     A.U. after   24 cycles
 Normal termination of Gaussian 16 at Thu Dec 10 11:33:44 2020.
 Gaussian 16:  ES64L-G16RevA.03 25-Dec-2016

 ----------------------------------------------------------------------
 # B3LYP/6-311++G(d,p) empiricaldispersion=gd3bj scf=xqc pop=npa geom=c
 heck
 ----------------------------------------------------------------------

 -----------------------------------
 CID_64344982_JID_4954_Energie_anion
 -----------------------------------
 Structure from the checkpoint file:  "JID_4954.chk"
 Charge = -1 Multiplicity = 2

                         Standard orientation:
 ---------------------------------------------------------------------
 Center     Atomic      Atomic             Coordinates (Angstroms)
 Number     Number       Type             X           Y           Z
 ---------------------------------------------------------------------
      1          6           0       -4.761399    0.378784   -0.265736
      2          6           0       -3.532489    0.839341    0.523785
      3          6           0       -2.178068    0.519016   -0.135401
      4          6           0       -1.951110   -0.995661   -0.261576
      5          6           0       -0.672854   -1.411118   -1.017888
      6          6           0        0.587460   -1.408827   -0.165410
      7          8           0        1.203643   -2.447655    0.068841
      8          7           0        0.986683   -0.207698    0.359110
      9          6           0        0.350772    1.067610    0.022390
     10          6           0       -1.051387    1.243637    0.617365
     11          6           0        2.169436   -0.216575    1.212288
     12          6           0        3.486373   -0.232936    0.408908
     13          6           0        3.650934    0.943088   -0.443071
     14          6           0        3.758139    1.926968   -1.135626
     15          1           0       -4.745925    0.779824   -1.286724
     16          1           0       -5.683617    0.725102    0.213468
     17          1           0       -4.821448   -0.712087   -0.337692
     18          1           0       -3.594815    1.926029    0.671840
     19          1           0       -3.551989    0.395183    1.529496
     20          1           0       -2.199978    0.929878   -1.158808
     21          1           0       -2.803439   -1.431763   -0.793111
     22          1           0       -1.946140   -1.453091    0.737756
     23          1           0       -0.538610   -0.768776   -1.899096
     24          1           0       -0.768175   -2.437899   -1.376927
     25          1           0        0.321824    1.197662   -1.066735
     26          1           0        1.012117    1.851086    0.395367
     27          1           0       -1.283330    2.317240    0.627151
     28          1           0       -1.030119    0.917309    1.666381
     29          1           0        2.131784    0.661470    1.862955
     30          1           0        2.136283   -1.115964    1.830487
     31          1           0        4.328548   -0.307323    1.110234
     32          1           0        3.494339   -1.146295   -0.196477
     33          1           0        3.871923    2.787580   -1.754237
 ---------------------------------------------------------------------

 SCF Done:  E(UB3LYP) =  -598.862310821     A.U. after   33 cycles
 SCF Done:  E(UB3LYP) =  -598.862310821     a.u. after    1 cycles

 The electronic state is 2-A.
 Alpha  occ. eigenvalues --  -18.99285 -14.24865 -10.17477 -10.12070 -10.11267
 Alpha  occ. eigenvalues --  -10.10655 -10.08580 -10.08515 -10.08111 -10.08089
 Alpha  occ. eigenvalues --  -10.07478 -10.07231 -10.07158 -10.06389  -0.94531
 Alpha  occ. eigenvalues --   -0.84658  -0.73754  -0.70958  -0.67777  -0.66360
 Alpha  occ. eigenvalues --   -0.63962  -0.59780  -0.57389  -0.54699  -0.51974
 Alpha  occ. eigenvalues --   -0.47233  -0.45431  -0.43200  -0.42355  -0.39723
 Alpha  occ. eigenvalues --   -0.37760  -0.37461  -0.36601  -0.35924  -0.33891
 Alpha  occ. eigenvalues --   -0.33539  -0.32744  -0.31938  -0.31183  -0.30203
 Alpha  occ. eigenvalues --   -0.29573  -0.28409  -0.27019  -0.26766  -0.26267
 Alpha  occ. eigenvalues --   -0.25385  -0.23236  -0.22544  -0.22182  -0.18969
 Alpha  occ. eigenvalues --   -0.18505  -0.16319  -0.14975   0.04222
 Alpha virt. eigenvalues --    0.05882   0.06679   0.07185   0.07794   0.08179
 Alpha virt. eigenvalues --    0.09057   0.09506   0.09956   0.10347   0.10391
 Alpha virt. eigenvalues --    0.10975   0.11071   0.11801   0.11998   0.12303

  Beta  occ. eigenvalues --  -18.99281 -14.24864 -10.17473 -10.12056 -10.11251
  Beta  occ. eigenvalues --  -10.10639 -10.08583 -10.08507 -10.08099 -10.08077
  Beta  occ. eigenvalues --  -10.07461 -10.07203 -10.07139 -10.06352  -0.94523
  Beta  occ. eigenvalues --   -0.84647  -0.73725  -0.70935  -0.67752  -0.66327
  Beta  occ. eigenvalues --   -0.63933  -0.59739  -0.57355  -0.54659  -0.51907
  Beta  occ. eigenvalues --   -0.47176  -0.45390  -0.43151  -0.42325  -0.39698
  Beta  occ. eigenvalues --   -0.37729  -0.37439  -0.36566  -0.35896  -0.33864
  Beta  occ. eigenvalues --   -0.33514  -0.32712  -0.31906  -0.31150  -0.30173
  Beta  occ. eigenvalues --   -0.29544  -0.28382  -0.26976  -0.26731  -0.26236
  Beta  occ. eigenvalues --   -0.25355  -0.23188  -0.22512  -0.22150  -0.18948
  Beta  occ. eigenvalues --   -0.18484  -0.16308  -0.14955
  Beta virt. eigenvalues --    0.06325   0.06788   0.07317   0.07703   0.08457
  Beta virt. eigenvalues --    0.08543   0.09351   0.09800   0.10330   0.10485
  Beta virt. eigenvalues --    0.10636   0.11156   0.11211   0.11974   0.12252

 Mulliken charges and spin densities:
               1          2
     1  C    0.976155  -1.645178
     2  C   -1.034424   0.738319
     3  C    0.084395   0.534842
     4  C   -0.036952  -0.152833
     5  C    0.743012  -1.177094
     6  C   -0.535792   0.322978
     7  O   -0.343480   0.010266
     8  N    0.171331   0.095382
     9  C   -0.466544  -0.133491
    10  C    0.652071  -1.203339
    11  C   -0.073130  -0.059573
    12  C   -0.023451  -0.409116
    13  C    5.091136  -3.746364
    14  C   -4.129757   2.683537
    15  H   -0.186755   0.327336
    16  H   -0.497027   0.639886
    17  H   -0.264246   0.411123
    18  H   -0.256647   0.410493
    19  H    0.101237   0.008547
    20  H   -0.142540   0.301532
    21  H    0.295127  -0.153210
    22  H    0.042986   0.116824
    23  H    0.083350   0.072461
    24  H    0.095128   0.108344
    25  H    0.122599   0.050271
    26  H    0.292192  -0.118676
    27  H   -0.384329   0.545692
    28  H    0.038482   0.127275
    29  H   -0.294209   0.451831
    30  H    0.103069   0.086388
    31  H   -0.186359   0.359297
    32  H    0.191628   0.016144
    33  H   -1.228254   1.380107
 Sum of Mulliken charges =  -1.00000   1.00000

 Dipole moment (field-independent basis, Debye):
    X=              1.1813    Y=             -4.4312    Z=              1.5087  Tot=              4.8277
 Quadrupole moment (field-independent basis, Debye-Ang):
   XX=           -187.2584   YY=           -142.3573   ZZ=           -118.6380
   XY=             -0.9174   XZ=              2.4864   YZ=              4.5123

 Summary of Natural Population Analysis:

                                       Natural Population
                Natural  -----------------------------------------------
    Atom  No    Charge         Core      Valence    Rydberg      Total
 -----------------------------------------------------------------------
      C    1   -0.28565      0.99967     2.28091    0.00507     3.28565
      C    2   -0.18647      0.99962     2.17745    0.00940     3.18647
      C    3   -0.10813      0.99958     2.09822    0.01033     3.10813
      C    4   -0.18847      0.99960     2.18007    0.00881     3.18847
      C    5   -0.23015      0.99959     2.22345    0.00711     3.23015
      C    6    0.35061      0.99963     1.62741    0.02234     2.64939
      O    7   -0.33356      0.99988     3.32853    0.00515     4.33356
      N    8   -0.25868      0.99963     2.74810    0.01095     3.75868
      C    9   -0.08517      0.99960     2.07392    0.01166     3.08517
      C   10   -0.19209      0.99960     2.18303    0.00947     3.19209
      C   11   -0.07518      0.99960     2.06364    0.01194     3.07518
      C   12   -0.23853      0.99956     2.22977    0.00920     3.23853
      C   13   -0.00351      0.99938     1.99595    0.00818     3.00351
      C   14   -0.12012      0.99926     2.11705    0.00381     3.12012
      H   15    0.09788      0.00000     0.40083    0.00129     0.40212
      H   16    0.10098      0.00000     0.39782    0.00120     0.39902
      H   17    0.09480      0.00000     0.40409    0.00111     0.40520
      H   18    0.09893      0.00000     0.39970    0.00138     0.40107
      H   19    0.09209      0.00000     0.40677    0.00113     0.40791
      H   20    0.09256      0.00000     0.40535    0.00209     0.40744
      H   21    0.10273      0.00000     0.39617    0.00110     0.39727
      H   22    0.09643      0.00000     0.40229    0.00128     0.40357
      H   23    0.10633      0.00000     0.39228    0.00140     0.39367
      H   24    0.11130      0.00000     0.38767    0.00103     0.38870
      H   25    0.09791      0.00000     0.40035    0.00173     0.40209
      H   26    0.10826      0.00000     0.39021    0.00153     0.39174
      H   27    0.10471      0.00000     0.39375    0.00153     0.39529
      H   28    0.09622      0.00000     0.40236    0.00142     0.40378
      H   29    0.09782      0.00000     0.40082    0.00135     0.40218
      H   30    0.10890      0.00000     0.39000    0.00109     0.39110
      H   31    0.11248      0.00000     0.38609    0.00143     0.38752
      H   32    0.12158      0.00000     0.37709    0.00133     0.37842
      H   33    0.11318      0.00000     0.38446    0.00235     0.38682
 =======================================================================
   * Total *   -0.00000     13.99419    38.84560    0.16020    53.00000

 Normal termination of Gaussian 16 at Thu Dec 10 11:49:34 2020.
