 Gaussian 16, Revision A.03,

 -----------------------------------------------------------
 # opt freq B3LYP/6-31G(d) empiricaldispersion=gd3bj scf=xqc
 -----------------------------------------------------------

 -------------------------------
 CID_146487986_JID_3968_neutraal
 -------------------------------
 Symbolic Z-matrix:
 Charge =  0 Multiplicity = 1

 SCF Done:  E(RB3LYP) =  -556.805347139     A.U. after   14 cycles
 SCF Done:  E(RB3LYP) =  -556.808972841     A.U. after   11 cycles
 SCF Done:  E(RB3LYP) =  -556.809340320     A.U. after   11 cycles
 SCF Done:  E(RB3LYP) =  -556.809467953     A.U. after   11 cycles
 SCF Done:  E(RB3LYP) =  -556.809509532     A.U. after   10 cycles
 SCF Done:  E(RB3LYP) =  -556.809536540     A.U. after    9 cycles
 SCF Done:  E(RB3LYP) =  -556.809546683     A.U. after    9 cycles
 SCF Done:  E(RB3LYP) =  -556.809547547     A.U. after    9 cycles
 SCF Done:  E(RB3LYP) =  -556.809553670     A.U. after    9 cycles
 SCF Done:  E(RB3LYP) =  -556.809590941     A.U. after   11 cycles
 SCF Done:  E(RB3LYP) =  -556.809722394     A.U. after   10 cycles
 SCF Done:  E(RB3LYP) =  -556.809721884     A.U. after    8 cycles
 SCF Done:  E(RB3LYP) =  -556.809722850     A.U. after    9 cycles
 SCF Done:  E(RB3LYP) =  -556.809723021     A.U. after    7 cycles
 SCF Done:  E(RB3LYP) =  -556.809723010     A.U. after    7 cycles
 SCF Done:  E(RB3LYP) =  -556.809723049     A.U. after    7 cycles
 Optimization completed.
    -- Stationary point found.
 Normal termination of Gaussian 16 at Mon Dec 14 13:20:01 2020.

 --------------------------------------------------------------------
 #N Geom=AllCheck Guess=TCheck SCRF=Check GenChk RB3LYP/6-31G(d) Freq
 --------------------------------------------------------------------

 Structure from the checkpoint file:  "JID_3968.chk"
 -------------------------------
 CID_146487986_JID_3968_neutraal
 -------------------------------
 Charge =  0 Multiplicity = 1

 SCF Done:  E(RB3LYP) =  -556.809723049     A.U. after    1 cycles

  Exact polarizability: 151.271   4.262 120.485  -8.552   7.667  94.630
 Approx polarizability: 191.128   6.965 185.961 -19.393  21.359 143.837

                      1                      2                      3
                      A                      A                      A
 Frequencies --     28.3285                34.8458                56.0038
 Red. masses --      3.7966                 2.7044                 3.0664
 Frc consts  --      0.0018                 0.0019                 0.0057
 IR Inten    --      0.0907                 0.1117                 2.7015

                      4                      5                      6
                      A                      A                      A
 Frequencies --     70.2947                98.3363               139.6601
 Red. masses --      3.6490                 3.0904                 2.1216
 Frc consts  --      0.0106                 0.0176                 0.0244
 IR Inten    --      1.0620                 2.0096                 0.0603

                      7                      8                      9
                      A                      A                      A
 Frequencies --    184.1774               206.6878               233.5043
 Red. masses --      2.0349                 3.5268                 1.9442
 Frc consts  --      0.0407                 0.0888                 0.0625
 IR Inten    --      0.4570                 5.0221                 0.8599

                     10                     11                     12
                      A                      A                      A
 Frequencies --    256.3683               275.3843               278.6547
 Red. masses --      1.2110                 1.7849                 1.1316
 Frc consts  --      0.0469                 0.0798                 0.0518
 IR Inten    --      1.1626                 0.2965                 0.1431

                     13                     14                     15
                      A                      A                      A
 Frequencies --    308.5593               349.3004               394.5370
 Red. masses --      2.5439                 2.3175                 2.0290
 Frc consts  --      0.1427                 0.1666                 0.1861
 IR Inten    --      1.3161                 3.7042                 0.6498

                     16                     17                     18
                      A                      A                      A
 Frequencies --    410.7125               438.2239               478.8504
 Red. masses --      3.2434                 2.4707                 2.6553
 Frc consts  --      0.3224                 0.2795                 0.3587
 IR Inten    --      6.5532                 1.4218                 0.9465

                     19                     20                     21
                      A                      A                      A
 Frequencies --    549.7417               578.8445               608.5965
 Red. masses --      3.0325                 4.7855                 2.5560
 Frc consts  --      0.5400                 0.9447                 0.5578
 IR Inten    --     12.6090                 1.4117                 1.2138

                     22                     23                     24
                      A                      A                      A
 Frequencies --    622.0386               644.2256               725.8458
 Red. masses --      1.2358                 1.1477                 3.8263
 Frc consts  --      0.2817                 0.2806                 1.1877
 IR Inten    --     69.2869                59.0364                 4.3375

                     25                     26                     27
                      A                      A                      A
 Frequencies --    726.9717               750.8312               759.8450
 Red. masses --      4.3463                 1.1826                 1.4501
 Frc consts  --      1.3533                 0.3928                 0.4933
 IR Inten    --      5.9875                 1.7010                14.2098

                     28                     29                     30
                      A                      A                      A
 Frequencies --    811.7967               818.6111               889.4489
 Red. masses --      3.4217                 2.6208                 2.6287
 Frc consts  --      1.3286                 1.0348                 1.2253
 IR Inten    --      5.6878                 2.8494                 6.9524

                     31                     32                     33
                      A                      A                      A
 Frequencies --    901.6776               947.7866               954.4027
 Red. masses --      1.5268                 1.2194                 2.1249
 Frc consts  --      0.7314                 0.6454                 1.1404
 IR Inten    --      2.9414                 1.6815                11.2007

                     34                     35                     36
                      A                      A                      A
 Frequencies --    964.9592               986.6951               991.4377
 Red. masses --      1.4371                 1.5537                 2.3060
 Frc consts  --      0.7884                 0.8912                 1.3355
 IR Inten    --      0.4665                 1.4822                38.1194

                     37                     38                     39
                      A                      A                      A
 Frequencies --   1069.4698              1092.5705              1105.9600
 Red. masses --      1.9133                 1.4764                 1.5889
 Frc consts  --      1.2894                 1.0384                 1.1451
 IR Inten    --      2.1999                 8.1590                 2.7891

                     40                     41                     42
                      A                      A                      A
 Frequencies --   1125.7750              1141.0112              1161.2616
 Red. masses --      1.5908                 1.8271                 1.9534
 Frc consts  --      1.1879                 1.4015                 1.5520
 IR Inten    --      2.0863                 7.3210                17.9809

                     43                     44                     45
                      A                      A                      A
 Frequencies --   1177.8009              1199.5296              1226.4521
 Red. masses --      1.8078                 1.7877                 1.8648
 Frc consts  --      1.4776                 1.5155                 1.6526
 IR Inten    --     61.1114                 7.0501                64.1271

                     46                     47                     48
                      A                      A                      A
 Frequencies --   1258.4081              1282.9613              1302.8734
 Red. masses --      2.0895                 1.3650                 1.9200
 Frc consts  --      1.9495                 1.3238                 1.9202
 IR Inten    --     75.0465                13.1769                12.9138

                     49                     50                     51
                      A                      A                      A
 Frequencies --   1330.7263              1346.0529              1376.5327
 Red. masses --      1.4456                 2.4258                 1.5879
 Frc consts  --      1.5083                 2.5896                 1.7728
 IR Inten    --      2.8569                 9.9719                 3.3595

                     52                     53                     54
                      A                      A                      A
 Frequencies --   1384.3830              1387.5315              1415.8182
 Red. masses --      1.6963                 1.4092                 1.4671
 Frc consts  --      1.9154                 1.5985                 1.7327
 IR Inten    --     11.0443                25.3328                11.6210

                     55                     56                     57
                      A                      A                      A
 Frequencies --   1422.4221              1424.8706              1435.2793
 Red. masses --      1.3637                 1.3048                 1.4381
 Frc consts  --      1.6257                 1.5608                 1.7455
 IR Inten    --     27.1880                10.7050                 9.0889

                     58                     59                     60
                      A                      A                      A
 Frequencies --   1443.4766              1448.7442              1491.1577
 Red. masses --      1.2671                 1.3643                 2.5254
 Frc consts  --      1.5556                 1.6872                 3.3085
 IR Inten    --     10.4790                29.6794               148.1202

                     61                     62                     63
                      A                      A                      A
 Frequencies --   1509.6554              1515.4566              1518.4568
 Red. masses --      1.1203                 1.0593                 1.0992
 Frc consts  --      1.5044                 1.4333                 1.4933
 IR Inten    --     11.5321                 3.5379                24.0524

                     64                     65                     66
                      A                      A                      A
 Frequencies --   1520.1270              1521.1068              1533.4423
 Red. masses --      1.0867                 1.0636                 1.0664
 Frc consts  --      1.4795                 1.4499                 1.4774
 IR Inten    --     11.3743                 1.9138                 9.7275

                     67                     68                     69
                      A                      A                      A
 Frequencies --   1535.3330              1539.5245              1541.9319
 Red. masses --      1.0559                 1.0596                 1.0549
 Frc consts  --      1.4665                 1.4796                 1.4777
 IR Inten    --      5.7353                 1.0109                 5.5478

                     70                     71                     72
                      A                      A                      A
 Frequencies --   1642.7708              1716.5776              3035.1800
 Red. masses --      5.4100                 8.4057                 1.0643
 Frc consts  --      8.6021                14.5932                 5.7765
 IR Inten    --      5.5593               333.0407                17.7156

                     73                     74                     75
                      A                      A                      A
 Frequencies --   3044.2317              3047.3688              3047.9674
 Red. masses --      1.0412                 1.0366                 1.0585
 Frc consts  --      5.6851                 5.6716                 5.7936
 IR Inten    --     14.2219                20.5176                34.0163

                     76                     77                     78
                      A                      A                      A
 Frequencies --   3052.3361              3053.7350              3078.5014
 Red. masses --      1.0389                 1.0656                 1.0990
 Frc consts  --      5.7027                 5.8545                 6.1365
 IR Inten    --     32.2593                40.6598                 7.6615

                     79                     80                     81
                      A                      A                      A
 Frequencies --   3084.4397              3087.0175              3108.5779
 Red. masses --      1.1010                 1.0851                 1.1020
 Frc consts  --      6.1715                 6.0923                 6.2740
 IR Inten    --     16.3510                 0.3724                78.2279

                     82                     83                     84
                      A                      A                      A
 Frequencies --   3112.0656              3113.1800              3117.4296
 Red. masses --      1.1018                 1.0997                 1.0998
 Frc consts  --      6.2872                 6.2799                 6.2974
 IR Inten    --      6.8310                33.6912                36.4853

                     85                     86                     87
                      A                      A                      A
 Frequencies --   3122.7662              3133.9014              3146.0318
 Red. masses --      1.0991                 1.1029                 1.1013
 Frc consts  --      6.3150                 6.3823                 6.4221
 IR Inten    --     55.9147                30.8052                12.0679

                     88                     89                     90
                      A                      A                      A
 Frequencies --   3292.7397              3318.9416              3515.5484
 Red. masses --      1.0910                 1.1055                 1.0748
 Frc consts  --      6.9696                 7.1748                 7.8261
 IR Inten    --      1.6577                 1.6587                 5.0539

 - Thermochemistry -
 -------------------
 Temperature   298.150 Kelvin.  Pressure   1.00000 Atm.
 Atom     1 has atomic number  6 and mass  12.00000

 Molecular mass:   181.15790 amu.
 Principal axes and moments of inertia in atomic units:
                           1         2         3
     Eigenvalues --  1112.899764145.564084546.47729
           X            1.00000   0.00056  -0.00027
           Y           -0.00057   0.99973  -0.02303
           Z            0.00025   0.02303   0.99973
 This molecule is an asymmetric top.
 Rotational symmetry number  1.
 Warning -- assumption of classical behavior for rotation
           may cause significant error
 Rotational temperatures (Kelvin)      0.07783     0.02089     0.01905
 Rotational constants (GHZ):           1.62166     0.43534     0.39695
 Zero-point vibrational energy     754446.5 (Joules/Mol)
                                  180.31703 (Kcal/Mol)
 Warning -- explicit consideration of  21 degrees of freedom as
           vibrations may cause significant error
 Vibrational temperatures:     40.76    50.14    80.58   101.14   141.48
          (Kelvin)            200.94   264.99   297.38   335.96   368.86
                              396.22   400.92   443.95   502.57   567.65
                              590.92   630.51   688.96   790.96   832.83
                              875.63   894.97   926.90  1044.33  1045.95
                             1080.28  1093.25  1167.99  1177.80  1279.72
                             1297.31  1363.65  1373.17  1388.36  1419.63
                             1426.46  1538.73  1571.97  1591.23  1619.74
                             1641.66  1670.80  1694.59  1725.86  1764.59
                             1810.57  1845.90  1874.54  1914.62  1936.67
                             1980.52  1991.82  1996.35  2037.05  2046.55
                             2050.07  2065.05  2076.84  2084.42  2145.44
                             2172.06  2180.40  2184.72  2187.12  2188.53
                             2206.28  2209.00  2215.03  2218.50  2363.58
                             2469.77  4366.95  4379.97  4384.48  4385.35
                             4391.63  4393.64  4429.28  4437.82  4441.53
                             4472.55  4477.57  4479.17  4485.29  4492.96
                             4508.99  4526.44  4737.52  4775.22  5058.09

 Zero-point correction=                           0.287353 (Hartree/Particle)
 Thermal correction to Energy=                    0.301890
 Thermal correction to Enthalpy=                  0.302834
 Thermal correction to Gibbs Free Energy=         0.244961
 Sum of electronic and zero-point Energies=           -556.522370
 Sum of electronic and thermal Energies=              -556.507833
 Sum of electronic and thermal Enthalpies=            -556.506889
 Sum of electronic and thermal Free Energies=         -556.564762

                     E (Thermal)             CV                S
                      KCal/Mol        Cal/Mol-Kelvin    Cal/Mol-Kelvin
 Total                  189.439             54.379            121.804
 Electronic               0.000              0.000              0.000
 Translational            0.889              2.981             41.489
 Rotational               0.889              2.981             31.417
 Vibrational            187.661             48.417             48.897
 Vibration     1          0.593              1.984              5.943
 Vibration     2          0.594              1.983              5.532
 Vibration     3          0.596              1.975              4.593
 Vibration     4          0.598              1.968              4.145
 Vibration     5          0.604              1.950              3.487
 Vibration     6          0.615              1.914              2.809
 Vibration     7          0.631              1.861              2.286
 Vibration     8          0.641              1.830              2.073
 Vibration     9          0.654              1.790              1.852
 Vibration    10          0.666              1.752              1.686
 Vibration    11          0.677              1.719              1.562
 Vibration    12          0.679              1.713              1.542
 Vibration    13          0.698              1.657              1.370
 Vibration    14          0.727              1.577              1.169
 Vibration    15          0.762              1.482              0.983
 Vibration    16          0.775              1.447              0.924
 Vibration    17          0.798              1.387              0.832
 Vibration    18          0.835              1.297              0.713
 Vibration    19          0.905              1.140              0.545
 Vibration    20          0.935              1.077              0.488
 Vibration    21          0.967              1.014              0.435

 Optimization completed.
    -- Stationary point found.
 Normal termination of Gaussian 16 at Mon Dec 14 13:27:53 2020.

 ----------------------------------------------------------------------
 # B3LYP/6-311++G(d,p) empiricaldispersion=gd3bj scf=xqc pop=npa geom=c
 heck
 ----------------------------------------------------------------------

 ---------------------------------------
 CID_146487986_JID_3968_Energie_neutraal
 ---------------------------------------
 Structure from the checkpoint file:  "JID_3968.chk"
 Charge =  0 Multiplicity = 1

 SCF Done:  E(RB3LYP) =  -556.968423462     A.U. after   14 cycles
 Normal termination of Gaussian 16 at Mon Dec 14 13:31:00 2020.

 ----------------------------------------------------------------------
 # B3LYP/6-311++G(d,p) empiricaldispersion=gd3bj scf=xqc pop=npa geom=c
 heck
 ----------------------------------------------------------------------

 -------------------------------------
 CID_146487986_JID_3968_Energie_kation
 -------------------------------------
 Structure from the checkpoint file:  "JID_3968.chk"
 Charge =  1 Multiplicity = 2

 SCF Done:  E(UB3LYP) =  -556.722799547     A.U. after   17 cycles
 Normal termination of Gaussian 16 at Mon Dec 14 13:35:59 2020.
 Gaussian 16:  ES64L-G16RevA.03 25-Dec-2016

 ----------------------------------------------------------------------
 # B3LYP/6-311++G(d,p) empiricaldispersion=gd3bj scf=xqc pop=npa geom=c
 heck
 ----------------------------------------------------------------------

 ------------------------------------
 CID_146487986_JID_3968_Energie_anion
 ------------------------------------
 Structure from the checkpoint file:  "JID_3968.chk"
 Charge = -1 Multiplicity = 2

                         Standard orientation:
 ---------------------------------------------------------------------
 Center     Atomic      Atomic             Coordinates (Angstroms)
 Number     Number       Type             X           Y           Z
 ---------------------------------------------------------------------
      1          6           0        4.004053   -1.210441    0.107818
      2          6           0        3.049179   -0.437976    1.022907
      3          6           0        2.702972    0.969821    0.521738
      4          6           0        1.919933    0.993703   -0.799818
      5          7           0        0.645969    0.308514   -0.714765
      6          6           0        0.380255   -1.005895   -1.121291
      7          6           0       -0.870128   -1.314630   -0.717824
      8          7           0       -1.381804   -0.216243   -0.025186
      9          6           0       -0.453947    0.819449   -0.023811
     10          7           0       -0.673763    1.971283    0.521638
     11          6           0       -2.733782   -0.026421    0.497767
     12          6           0       -3.620300    0.665942   -0.543208
     13          6           0       -3.325601   -1.347153    0.987486
     14          1           0        3.562797   -1.403093   -0.876932
     15          1           0        4.264743   -2.181985    0.541430
     16          1           0        4.936190   -0.654386   -0.051982
     17          1           0        2.122295   -1.009653    1.156244
     18          1           0        3.500257   -0.348887    2.019166
     19          1           0        2.103812    1.485451    1.281692
     20          1           0        3.622207    1.556876    0.386711
     21          1           0        1.734719    2.031019   -1.105522
     22          1           0        2.491688    0.525608   -1.606552
     23          1           0        1.107203   -1.583874   -1.669173
     24          1           0       -1.436412   -2.221607   -0.847465
     25          1           0        0.132113    2.585710    0.420429
     26          1           0       -2.609030    0.652460    1.347066
     27          1           0       -3.735476    0.036065   -1.433533
     28          1           0       -4.615795    0.865483   -0.130443
     29          1           0       -3.168990    1.617370   -0.836914
     30          1           0       -2.656801   -1.842696    1.698717
     31          1           0       -4.280720   -1.156931    1.486956
     32          1           0       -3.523423   -2.036207    0.157716
 ---------------------------------------------------------------------

 SCF Done:  E(UB3LYP) =  -556.953977061     A.U. after   32 cycles

 The electronic state is 2-A.
 Alpha  occ. eigenvalues --  -14.25503 -14.25004 -14.15821 -10.16214 -10.11900
 Alpha  occ. eigenvalues --  -10.11677 -10.10131 -10.10050 -10.07451 -10.07290
 Alpha  occ. eigenvalues --  -10.06955 -10.06617 -10.05974  -0.92994  -0.82643
 Alpha  occ. eigenvalues --   -0.76866  -0.71712  -0.68774  -0.64268  -0.62049
 Alpha  occ. eigenvalues --   -0.59960  -0.56904  -0.53985  -0.50740  -0.47846
 Alpha  occ. eigenvalues --   -0.45460  -0.42452  -0.39637  -0.38422  -0.37093
 Alpha  occ. eigenvalues --   -0.35939  -0.35284  -0.34965  -0.33628  -0.33418
 Alpha  occ. eigenvalues --   -0.31271  -0.30074  -0.29969  -0.29195  -0.28964
 Alpha  occ. eigenvalues --   -0.28379  -0.26086  -0.25070  -0.24251  -0.23981
 Alpha  occ. eigenvalues --   -0.23558  -0.19838  -0.17959  -0.16951  -0.08222
 Alpha  occ. eigenvalues --    0.04276
 Alpha virt. eigenvalues --    0.05779   0.07089   0.07497   0.08178   0.08534
 Alpha virt. eigenvalues --    0.08883   0.10088   0.10190   0.10614   0.11026
 Alpha virt. eigenvalues --    0.11539   0.11709   0.12010   0.12592   0.13349

  Beta  occ. eigenvalues --  -14.25504 -14.25005 -14.15815 -10.16213 -10.11896
  Beta  occ. eigenvalues --  -10.11656 -10.10115 -10.10034 -10.07436 -10.07257
  Beta  occ. eigenvalues --  -10.06943 -10.06602 -10.05929  -0.92988  -0.82636
  Beta  occ. eigenvalues --   -0.76856  -0.71686  -0.68746  -0.64234  -0.62011
  Beta  occ. eigenvalues --   -0.59916  -0.56850  -0.53947  -0.50692  -0.47790
  Beta  occ. eigenvalues --   -0.45434  -0.42408  -0.39610  -0.38389  -0.37062
  Beta  occ. eigenvalues --   -0.35915  -0.35246  -0.34936  -0.33590  -0.33397
  Beta  occ. eigenvalues --   -0.31238  -0.30039  -0.29932  -0.29160  -0.28923
  Beta  occ. eigenvalues --   -0.28352  -0.26062  -0.25039  -0.24206  -0.23948
  Beta  occ. eigenvalues --   -0.23523  -0.19825  -0.17949  -0.16943  -0.08211
  Beta virt. eigenvalues --    0.06392   0.06842   0.07781   0.08101   0.08704
  Beta virt. eigenvalues --    0.08961   0.09405   0.10490   0.10566   0.11079
  Beta virt. eigenvalues --    0.11276   0.11826   0.11986   0.12344   0.12756

 Mulliken charges and spin densities:
               1          2
     1  C    1.372616  -1.903478
     2  C   -1.014726   0.797144
     3  C    0.055553  -0.156677
     4  C    0.651780  -0.883428
     5  N    0.062988   0.059447
     6  C    0.479920  -0.568800
     7  C    0.487127  -0.741236
     8  N    0.229370   0.017205
     9  C    0.082452  -0.530370
    10  N   -0.461689   0.030801
    11  C   -1.755215   1.659230
    12  C    0.491519  -0.912414
    13  C    0.929862  -1.458175
    14  H   -0.214476   0.345727
    15  H   -0.257769   0.396964
    16  H   -0.298876   0.437451
    17  H    0.199580  -0.043163
    18  H   -0.286445   0.447248
    19  H    0.113536   0.003138
    20  H   -0.352202   0.515213
    21  H   -0.103010   0.286894
    22  H   -0.188375   0.364484
    23  H   -0.618488   0.775862
    24  H   -0.388996   0.520517
    25  H    0.199100   0.007724
    26  H    0.121421   0.076796
    27  H   -0.017735   0.166210
    28  H   -0.055817   0.187987
    29  H    0.152931   0.032215
    30  H   -0.051900   0.209301
    31  H   -0.380828   0.541036
    32  H   -0.183206   0.319146
 Sum of Mulliken charges =  -1.00000   1.00000

 Dipole moment (field-independent basis, Debye):
    X=             -2.5778    Y=              2.4744    Z=              0.4030  Tot=              3.5958
 Quadrupole moment (field-independent basis, Debye-Ang):
   XX=           -173.2337   YY=           -127.2903   ZZ=           -117.1882
   XY=              0.6040   XZ=              5.1226   YZ=             -2.3043

 Summary of Natural Population Analysis:

                                       Natural Population
                Natural  -----------------------------------------------
    Atom  No    Charge         Core      Valence    Rydberg      Total
 -----------------------------------------------------------------------
      C    1   -0.28671      0.99967     2.28182    0.00522     3.28671
      C    2   -0.19403      0.99964     2.18607    0.00832     3.19403
      C    3   -0.19547      0.99962     2.18724    0.00860     3.19547
      C    4   -0.08399      0.99961     2.07203    0.01235     3.08399
      N    5   -0.24286      0.99963     2.73151    0.01171     3.74286
      C    6   -0.02631      0.99954     2.01467    0.01211     3.02631
      C    7   -0.02733      0.99953     2.01590    0.01190     3.02733
      N    8   -0.23702      0.99962     2.72538    0.01202     3.73702
      C    9    0.30766      0.99963     1.67593    0.01678     2.69234
      N   10   -0.42018      0.99971     2.91273    0.00774     3.92018
      C   11   -0.00751      0.99961     1.99612    0.01179     3.00751
      C   12   -0.28810      0.99964     2.28400    0.00446     3.28810
      C   13   -0.28990      0.99965     2.28463    0.00562     3.28990
      H   14    0.09488      0.00000     0.40343    0.00169     0.40512
      H   15    0.10067      0.00000     0.39819    0.00114     0.39933
      H   16    0.09704      0.00000     0.40128    0.00168     0.40296
      H   17    0.09863      0.00000     0.39966    0.00171     0.40137
      H   18    0.09639      0.00000     0.40263    0.00099     0.40361
      H   19    0.10041      0.00000     0.39826    0.00133     0.39959
      H   20    0.09837      0.00000     0.40035    0.00128     0.40163
      H   21    0.09865      0.00000     0.40002    0.00133     0.40135
      H   22    0.10308      0.00000     0.39524    0.00169     0.39692
      H   23    0.10845      0.00000     0.38996    0.00159     0.39155
      H   24    0.10888      0.00000     0.38977    0.00135     0.39112
      H   25    0.16641      0.00000     0.33162    0.00197     0.33359
      H   26    0.10939      0.00000     0.38826    0.00235     0.39061
      H   27    0.09663      0.00000     0.40239    0.00098     0.40337
      H   28    0.09735      0.00000     0.40177    0.00088     0.40265
      H   29    0.11012      0.00000     0.38895    0.00092     0.38988
      H   30    0.10444      0.00000     0.39444    0.00112     0.39556
      H   31    0.10375      0.00000     0.39529    0.00096     0.39625
      H   32    0.09820      0.00000     0.40038    0.00142     0.40180
 =======================================================================
   * Total *   -0.00000     12.99510    36.84991    0.15499    50.00000

 Normal termination of Gaussian 16 at Mon Dec 14 13:45:20 2020.
