 Gaussian 16, Revision A.03,

 -----------------------------------------------------------
 # opt freq B3LYP/6-31G(d) empiricaldispersion=gd3bj scf=xqc
 -----------------------------------------------------------

 -------------------------------
 CID_65264000_JID_10500_neutraal
 -------------------------------
 Symbolic Z-matrix:
 Charge =  0 Multiplicity = 1

 SCF Done:  E(RB3LYP) =  -1308.62921380     A.U. after   18 cycles
 SCF Done:  E(RB3LYP) =  -1308.63817714     A.U. after   14 cycles
 SCF Done:  E(RB3LYP) =  -1308.63748648     A.U. after   15 cycles
 SCF Done:  E(RB3LYP) =  -1308.64077282     A.U. after   13 cycles
 SCF Done:  E(RB3LYP) =  -1308.64088104     A.U. after   14 cycles
 SCF Done:  E(RB3LYP) =  -1308.64200007     A.U. after   13 cycles
 SCF Done:  E(RB3LYP) =  -1308.64212617     A.U. after   14 cycles
 SCF Done:  E(RB3LYP) =  -1308.64322421     A.U. after   13 cycles
 SCF Done:  E(RB3LYP) =  -1308.64364666     A.U. after   14 cycles
 SCF Done:  E(RB3LYP) =  -1308.64379567     A.U. after   12 cycles
 SCF Done:  E(RB3LYP) =  -1308.64387125     A.U. after   11 cycles
 SCF Done:  E(RB3LYP) =  -1308.64387600     A.U. after   10 cycles
 SCF Done:  E(RB3LYP) =  -1308.64387787     A.U. after    9 cycles
 SCF Done:  E(RB3LYP) =  -1308.64387800     A.U. after    8 cycles
 SCF Done:  E(RB3LYP) =  -1308.64387804     A.U. after    7 cycles
 SCF Done:  E(RB3LYP) =  -1308.64387806     A.U. after    7 cycles
 Optimization completed.
    -- Stationary point found.
 Normal termination of Gaussian 16 at Sun Dec 13 16:55:40 2020.

 --------------------------------------------------------------------
 #N Geom=AllCheck Guess=TCheck SCRF=Check GenChk RB3LYP/6-31G(d) Freq
 --------------------------------------------------------------------

 Structure from the checkpoint file:  "JID_10500.chk"
 -------------------------------
 CID_65264000_JID_10500_neutraal
 -------------------------------
 Charge =  0 Multiplicity = 1

 SCF Done:  E(RB3LYP) =  -1308.64387806     A.U. after    1 cycles

  Exact polarizability: 195.863   3.405 187.472 -34.096   6.567 135.005
 Approx polarizability: 282.122   6.934 351.341 -86.497  22.116 241.364

                      1                      2                      3
                      A                      A                      A
 Frequencies --     19.8563                28.0304                37.7305
 Red. masses --      5.4261                 6.2595                 4.9152
 Frc consts  --      0.0013                 0.0029                 0.0041
 IR Inten    --      0.2143                 0.4174                 0.0429

                      4                      5                      6
                      A                      A                      A
 Frequencies --     53.5074                65.6320                74.1990
 Red. masses --      9.9502                 6.4622                 8.1907
 Frc consts  --      0.0168                 0.0164                 0.0266
 IR Inten    --      0.5249                 0.1099                 0.5834

                      7                      8                      9
                      A                      A                      A
 Frequencies --    115.3050               158.4091               197.7329
 Red. masses --      5.9405                 6.3075                 6.0263
 Frc consts  --      0.0465                 0.0933                 0.1388
 IR Inten    --      2.1190                 0.8272                 2.5214

                     10                     11                     12
                      A                      A                      A
 Frequencies --    213.4387               228.8359               244.9677
 Red. masses --      1.4360                 4.3058                 4.5223
 Frc consts  --      0.0385                 0.1328                 0.1599
 IR Inten    --      1.2266                 3.9928                 0.7539

                     13                     14                     15
                      A                      A                      A
 Frequencies --    256.5020               274.4700               290.1772
 Red. masses --      3.6385                 1.8631                 4.9504
 Frc consts  --      0.1410                 0.0827                 0.2456
 IR Inten    --     12.3113                 2.2901                 0.6864

                     16                     17                     18
                      A                      A                      A
 Frequencies --    301.2301               325.1977               353.9992
 Red. masses --      1.0475                 2.9668                 2.7416
 Frc consts  --      0.0560                 0.1849                 0.2024
 IR Inten    --      0.0147                 2.6114                 3.0428

                     19                     20                     21
                      A                      A                      A
 Frequencies --    370.1550               401.9561               432.5738
 Red. masses --      6.7302                 5.1290                 3.1946
 Frc consts  --      0.5433                 0.4882                 0.3522
 IR Inten    --      1.2879                13.1580                11.0812

                     22                     23                     24
                      A                      A                      A
 Frequencies --    462.3433               473.5749               495.1348
 Red. masses --      3.4391                 1.9983                 5.1777
 Frc consts  --      0.4331                 0.2641                 0.7479
 IR Inten    --      4.9923                52.6984                12.3752

                     25                     26                     27
                      A                      A                      A
 Frequencies --    509.3486               535.8202               559.0992
 Red. masses --      3.9806                 4.5673                 3.8649
 Frc consts  --      0.6084                 0.7726                 0.7118
 IR Inten    --     11.9325                72.4969                 1.8732

                     28                     29                     30
                      A                      A                      A
 Frequencies --    567.9966               592.5673               606.4542
 Red. masses --      4.7751                 3.7324                 4.6196
 Frc consts  --      0.9077                 0.7722                 1.0010
 IR Inten    --     55.5464                16.2482                 9.7280

                     31                     32                     33
                      A                      A                      A
 Frequencies --    616.9193               627.6145               673.1999
 Red. masses --      1.6986                 1.8480                 6.0161
 Frc consts  --      0.3809                 0.4289                 1.6064
 IR Inten    --     27.1421                51.5907                 5.0415

                     34                     35                     36
                      A                      A                      A
 Frequencies --    699.5071               720.0004               766.3748
 Red. masses --      3.5908                 3.0068                 2.6338
 Frc consts  --      1.0352                 0.9184                 0.9114
 IR Inten    --     13.0410                31.6445                 9.9103

                     37                     38                     39
                      A                      A                      A
 Frequencies --    768.1450               781.8906               814.3244
 Red. masses --      2.0953                 4.4422                 3.4297
 Frc consts  --      0.7284                 1.6001                 1.3400
 IR Inten    --     64.8860                43.9692                35.8697

                     40                     41                     42
                      A                      A                      A
 Frequencies --    824.4047               829.8436               843.3085
 Red. masses --      4.2387                 5.5397                 6.4620
 Frc consts  --      1.6973                 2.2476                 2.7076
 IR Inten    --     22.8574                56.6169                37.4577

                     43                     44                     45
                      A                      A                      A
 Frequencies --    869.6550               886.3601               908.8338
 Red. masses --      3.3869                 2.5714                 1.9516
 Frc consts  --      1.5092                 1.1902                 0.9497
 IR Inten    --      6.8958                10.3974                 3.3888

                     46                     47                     48
                      A                      A                      A
 Frequencies --    920.9983               943.9388               963.7147
 Red. masses --      3.0063                 1.6712                 1.9858
 Frc consts  --      1.5024                 0.8773                 1.0866
 IR Inten    --      1.6405                 2.0622                19.2200

                     49                     50                     51
                      A                      A                      A
 Frequencies --    985.5659              1038.0092              1064.9710
 Red. masses --      1.2926                 1.3190                 1.8855
 Frc consts  --      0.7398                 0.8374                 1.2600
 IR Inten    --      0.5061                 1.4453                 2.4381

                     52                     53                     54
                      A                      A                      A
 Frequencies --   1073.7589              1128.4935              1138.8927
 Red. masses --      2.0250                 3.0182                 3.1820
 Frc consts  --      1.3756                 2.2646                 2.4317
 IR Inten    --      2.9417                10.9012               108.4061

                     55                     56                     57
                      A                      A                      A
 Frequencies --   1174.2871              1192.4237              1194.6203
 Red. masses --      2.9317                 3.3840                 1.4296
 Frc consts  --      2.3819                 2.8349                 1.2020
 IR Inten    --     43.2159               231.2392                19.2371

                     58                     59                     60
                      A                      A                      A
 Frequencies --   1226.9079              1267.3042              1272.6539
 Red. masses --      1.6274                 2.1563                 2.1575
 Frc consts  --      1.4433                 2.0404                 2.0589
 IR Inten    --     29.0337                75.0653                21.3635

                     61                     62                     63
                      A                      A                      A
 Frequencies --   1303.9964              1324.9676              1344.7262
 Red. masses --      1.8029                 1.5455                 3.2747
 Frc consts  --      1.8063                 1.5986                 3.4889
 IR Inten    --    162.3249                33.1830                 8.7126

                     64                     65                     66
                      A                      A                      A
 Frequencies --   1368.0663              1378.6425              1400.3552
 Red. masses --      5.0930                 2.0676                 4.9684
 Frc consts  --      5.6161                 2.3154                 5.7404
 IR Inten    --      6.6719                72.4995                14.9633

                     67                     68                     69
                      A                      A                      A
 Frequencies --   1407.8218              1420.0373              1426.8448
 Red. masses --      1.7444                 1.2305                 2.3869
 Frc consts  --      2.0371                 1.4619                 2.8632
 IR Inten    --     42.6648                 7.1565                14.3071

                     70                     71                     72
                      A                      A                      A
 Frequencies --   1446.9143              1490.7873              1498.7220
 Red. masses --      1.2723                 1.5218                 1.4657
 Frc consts  --      1.5694                 1.9927                 1.9398
 IR Inten    --      3.9899                 2.1283                37.5319

                     73                     74                     75
                      A                      A                      A
 Frequencies --   1515.1000              1519.7906              1527.0844
 Red. masses --      1.0677                 1.0597                 1.1285
 Frc consts  --      1.4441                 1.4421                 1.5505
 IR Inten    --      4.3576                 1.8133                49.4635

                     76                     77                     78
                      A                      A                      A
 Frequencies --   1536.6588              1547.0866              1552.3287
 Red. masses --      1.0594                 4.4539                 1.1895
 Frc consts  --      1.4739                 6.2809                 1.6888
 IR Inten    --      8.7159                30.7577                 7.7155

                     79                     80                     81
                      A                      A                      A
 Frequencies --   1590.7028              1664.1529              1788.8172
 Red. masses --      6.4746                 5.8872                 8.6148
 Frc consts  --      9.6525                 9.6061                16.2415
 IR Inten    --     77.8904                21.9785               339.0431

                     82                     83                     84
                      A                      A                      A
 Frequencies --   1842.8446              3058.2942              3065.5495
 Red. masses --      9.8254                 1.0357                 1.0391
 Frc consts  --     19.6597                 5.7074                 5.7534
 IR Inten    --    256.9578                11.2124                10.8832

                     85                     86                     87
                      A                      A                      A
 Frequencies --   3073.2931              3125.4908              3126.7898
 Red. masses --      1.0635                 1.0981                 1.0998
 Frc consts  --      5.9184                 6.3204                 6.3349
 IR Inten    --     24.5850                15.9020                11.7295

                     88                     89                     90
                      A                      A                      A
 Frequencies --   3134.6476              3152.0152              3159.1170
 Red. masses --      1.0990                 1.1038                 1.1036
 Frc consts  --      6.3627                 6.4614                 6.4889
 IR Inten    --     44.4106                 8.4598                17.4044

                     91                     92                     93
                      A                      A                      A
 Frequencies --   3196.7513              3211.1212              3236.3368
 Red. masses --      1.0884                 1.0915                 1.0951
 Frc consts  --      6.5535                 6.6313                 6.7577
 IR Inten    --     10.2079                 7.8242                 4.9119

                     94                     95                     96
                      A                      A                      A
 Frequencies --   3511.3644              3573.5211              3686.6323
 Red. masses --      1.0729                 1.0756                 1.0640
 Frc consts  --      7.7944                 8.0925                 8.5205
 IR Inten    --     20.6978                29.9438                57.1230

 - Thermochemistry -
 -------------------
 Temperature   298.150 Kelvin.  Pressure   1.00000 Atm.
 Atom     1 has atomic number  6 and mass  12.00000

 Molecular mass:   294.07866 amu.
 Principal axes and moments of inertia in atomic units:
                           1         2         3
     Eigenvalues --  3062.50337********************
           X            0.99997  -0.00605   0.00542
           Y            0.00595   0.99982   0.01796
           Z           -0.00552  -0.01793   0.99982
 This molecule is an asymmetric top.
 Rotational symmetry number  1.
 Warning -- assumption of classical behavior for rotation
           may cause significant error
 Rotational temperatures (Kelvin)      0.02828     0.00782     0.00753
 Rotational constants (GHZ):           0.58930     0.16298     0.15693
 Zero-point vibrational energy     691863.5 (Joules/Mol)
                                  165.35934 (Kcal/Mol)
 Warning -- explicit consideration of  31 degrees of freedom as
           vibrations may cause significant error
 Vibrational temperatures:     28.57    40.33    54.29    76.99    94.43
          (Kelvin)            106.76   165.90   227.92   284.49   307.09
                              329.24   352.45   369.05   394.90   417.50
                              433.40   467.89   509.33   532.57   578.33
                              622.38   665.21   681.37   712.39   732.84
                              770.93   804.42   817.22   852.57   872.55
                              887.61   903.00   968.58  1006.43  1035.92
                             1102.64  1105.19  1124.97  1171.63  1186.13
                             1193.96  1213.33  1251.24  1275.27  1307.61
                             1325.11  1358.12  1386.57  1418.01  1493.46
                             1532.26  1544.90  1623.65  1638.61  1689.54
                             1715.63  1718.79  1765.25  1823.37  1831.07
                             1876.16  1906.33  1934.76  1968.34  1983.56
                             2014.80  2025.54  2043.12  2052.91  2081.79
                             2144.91  2156.33  2179.89  2186.64  2197.13
                             2210.91  2225.91  2233.45  2288.67  2394.34
                             2573.71  2651.44  4400.20  4410.64  4421.78
                             4496.88  4498.75  4510.06  4535.05  4545.26
                             4599.41  4620.09  4656.37  5052.07  5141.50
                             5304.24

 Zero-point correction=                           0.263517 (Hartree/Particle)
 Thermal correction to Energy=                    0.282014
 Thermal correction to Enthalpy=                  0.282958
 Thermal correction to Gibbs Free Energy=         0.214768
 Sum of electronic and zero-point Energies=          -1308.380361
 Sum of electronic and thermal Energies=             -1308.361864
 Sum of electronic and thermal Enthalpies=           -1308.360920
 Sum of electronic and thermal Free Energies=        -1308.429110

                     E (Thermal)             CV                S
                      KCal/Mol        Cal/Mol-Kelvin    Cal/Mol-Kelvin
 Total                  176.966             70.616            143.517
 Electronic               0.000              0.000              0.000
 Translational            0.889              2.981             42.933
 Rotational               0.889              2.981             34.322
 Vibrational            175.189             64.655             66.262
 Vibration     1          0.593              1.986              6.649
 Vibration     2          0.593              1.984              5.964
 Vibration     3          0.594              1.982              5.375
 Vibration     4          0.596              1.976              4.683
 Vibration     5          0.597              1.971              4.280
 Vibration     6          0.599              1.966              4.039
 Vibration     7          0.608              1.937              3.178
 Vibration     8          0.621              1.893              2.569
 Vibration     9          0.637              1.843              2.154
 Vibration    10          0.644              1.820              2.014
 Vibration    11          0.652              1.797              1.888
 Vibration    12          0.660              1.771              1.767
 Vibration    13          0.666              1.752              1.685
 Vibration    14          0.677              1.721              1.568
 Vibration    15          0.686              1.692              1.473
 Vibration    16          0.693              1.671              1.410
 Vibration    17          0.709              1.625              1.284
 Vibration    18          0.730              1.567              1.148
 Vibration    19          0.742              1.534              1.079
 Vibration    20          0.768              1.466              0.955
 Vibration    21          0.793              1.399              0.850
 Vibration    22          0.820              1.334              0.759
 Vibration    23          0.830              1.309              0.728
 Vibration    24          0.851              1.261              0.670
 Vibration    25          0.864              1.229              0.635
 Vibration    26          0.891              1.171              0.574
 Vibration    27          0.915              1.120              0.526
 Vibration    28          0.924              1.100              0.508
 Vibration    29          0.950              1.048              0.463
 Vibration    30          0.965              1.018              0.439
 Vibration    31          0.977              0.996              0.421

 Optimization completed.
    -- Stationary point found.
 Normal termination of Gaussian 16 at Sun Dec 13 17:12:13 2020.

 ----------------------------------------------------------------------
 # B3LYP/6-311++G(d,p) empiricaldispersion=gd3bj scf=xqc pop=npa geom=c
 heck
 ----------------------------------------------------------------------

 ---------------------------------------
 CID_65264000_JID_10500_Energie_neutraal
 ---------------------------------------
 Structure from the checkpoint file:  "JID_10500.chk"
 Charge =  0 Multiplicity = 1

 SCF Done:  E(RB3LYP) =  -1308.93516152     A.U. after   19 cycles
 Normal termination of Gaussian 16 at Sun Dec 13 17:20:00 2020.

 ----------------------------------------------------------------------
 # B3LYP/6-311++G(d,p) empiricaldispersion=gd3bj scf=xqc pop=npa geom=c
 heck
 ----------------------------------------------------------------------

 -------------------------------------
 CID_65264000_JID_10500_Energie_kation
 -------------------------------------
 Structure from the checkpoint file:  "JID_10500.chk"
 Charge =  1 Multiplicity = 2

 SCF Done:  E(UB3LYP) =  -1308.63883092     A.U. after   29 cycles
 Normal termination of Gaussian 16 at Sun Dec 13 17:36:00 2020.
 Gaussian 16:  ES64L-G16RevA.03 25-Dec-2016

 ----------------------------------------------------------------------
 # B3LYP/6-311++G(d,p) empiricaldispersion=gd3bj scf=xqc pop=npa geom=c
 heck
 ----------------------------------------------------------------------

 ------------------------------------
 CID_65264000_JID_10500_Energie_anion
 ------------------------------------
 Structure from the checkpoint file:  "JID_10500.chk"
 Charge = -1 Multiplicity = 2

                         Standard orientation:
 ---------------------------------------------------------------------
 Center     Atomic      Atomic             Coordinates (Angstroms)
 Number     Number       Type             X           Y           Z
 ---------------------------------------------------------------------
      1          6           0        2.484780   -0.090968    2.099895
      2          6           0        2.847777   -0.009648    0.607512
      3          6           0        2.607161    1.430547    0.081231
      4          6           0        4.337231   -0.294659    0.401762
      5          8           0        4.802996   -0.977627   -0.482766
      6          8           0        5.118368    0.358689    1.296364
      7          7           0        2.141005   -1.069352   -0.123671
      8          6           0        0.739417   -0.838395   -0.410015
      9          6           0        0.512495    0.001611   -1.672028
     10          8           0        1.313775   -0.003001   -2.594305
     11          7           0       -0.618195    0.797159   -1.749790
     12          6           0       -1.618973    1.013601   -0.783687
     13          6           0       -1.943487    2.283912   -0.363132
     14          6           0       -2.996034    2.534211    0.568124
     15          6           0       -3.739795    1.521588    1.116124
     16          6           0       -3.449964    0.190960    0.704886
     17          7           0       -4.091139   -0.916297    1.102451
     18         16           0       -3.405390   -2.170400    0.291111
     19          7           0       -2.275781   -1.361321   -0.588903
     20          6           0       -2.398707   -0.071015   -0.262339
     21          1           0        3.040366    0.646487    2.683545
     22          1           0        2.697498   -1.091427    2.486128
     23          1           0        1.415446    0.104733    2.233942
     24          1           0        1.554338    1.704909    0.211155
     25          1           0        3.212296    2.151007    0.639366
     26          1           0        2.853434    1.500612   -0.981456
     27          1           0        6.037694    0.149357    1.045763
     28          1           0        2.637065   -1.255681   -0.993567
     29          1           0        0.238972   -1.799059   -0.577103
     30          1           0        0.244676   -0.388881    0.454341
     31          1           0       -0.609603    1.409455   -2.557980
     32          1           0       -1.371934    3.122501   -0.750312
     33          1           0       -3.193290    3.563126    0.853042
     34          1           0       -4.534466    1.702982    1.830408
 ---------------------------------------------------------------------

 SCF Done:  E(UB3LYP) =  -1308.98718147     A.U. after   23 cycles

 The electronic state is 2-A.
 Alpha  occ. eigenvalues --  -88.75685 -19.10587 -19.04469 -18.98116 -14.22854
 Alpha  occ. eigenvalues --  -14.19745 -14.16926 -14.16885 -10.23125 -10.16119
 Alpha  occ. eigenvalues --  -10.14033 -10.08947 -10.07890 -10.07872 -10.07849
 Alpha  occ. eigenvalues --  -10.07262 -10.07097 -10.04480 -10.04350 -10.03548
 Alpha  occ. eigenvalues --   -7.84043  -5.80477  -5.79910  -5.79690  -1.04443
 Alpha  occ. eigenvalues --   -0.95269  -0.93463  -0.85735  -0.81983  -0.81596
 Alpha  occ. eigenvalues --   -0.72979  -0.70614  -0.70067  -0.61610  -0.60997
 Alpha  occ. eigenvalues --   -0.60885  -0.59873  -0.57776  -0.51010  -0.49704
 Alpha  occ. eigenvalues --   -0.47348  -0.46975  -0.44752  -0.43386  -0.41877
 Alpha  occ. eigenvalues --   -0.39279  -0.39076  -0.37864  -0.37120  -0.35508
 Alpha  occ. eigenvalues --   -0.35359  -0.34535  -0.34049  -0.33296  -0.33004
 Alpha  occ. eigenvalues --   -0.31364  -0.30648  -0.30151  -0.29807  -0.29482
 Alpha  occ. eigenvalues --   -0.27642  -0.27001  -0.25990  -0.25714  -0.25124
 Alpha  occ. eigenvalues --   -0.24170  -0.22406  -0.22248  -0.20819  -0.19353
 Alpha  occ. eigenvalues --   -0.17560  -0.16058  -0.15831  -0.14305  -0.12976
 Alpha  occ. eigenvalues --   -0.12269  -0.09839   0.00962
 Alpha virt. eigenvalues --    0.05271   0.07052   0.07903   0.08861   0.09353
 Alpha virt. eigenvalues --    0.09918   0.10537   0.11057   0.11277   0.12296
 Alpha virt. eigenvalues --    0.12351   0.12743   0.13208   0.13451   0.13512

  Beta  occ. eigenvalues --  -88.75538 -19.10587 -19.04469 -18.98083 -14.22876
  Beta  occ. eigenvalues --  -14.19746 -14.16402 -14.16336 -10.23125 -10.16093
  Beta  occ. eigenvalues --  -10.14033 -10.08947 -10.07890 -10.07849 -10.07648
  Beta  occ. eigenvalues --  -10.07345 -10.07196 -10.04446 -10.04254 -10.03328
  Beta  occ. eigenvalues --   -7.83912  -5.80405  -5.79844  -5.79213  -1.04442
  Beta  occ. eigenvalues --   -0.95268  -0.93405  -0.85128  -0.81981  -0.81444
  Beta  occ. eigenvalues --   -0.72053  -0.70303  -0.70037  -0.61335  -0.60980
  Beta  occ. eigenvalues --   -0.60558  -0.59748  -0.57755  -0.50618  -0.49423
  Beta  occ. eigenvalues --   -0.47064  -0.46785  -0.44675  -0.43334  -0.41871
  Beta  occ. eigenvalues --   -0.39184  -0.38992  -0.37790  -0.37055  -0.35406
  Beta  occ. eigenvalues --   -0.35217  -0.34335  -0.33949  -0.33161  -0.32944
  Beta  occ. eigenvalues --   -0.31306  -0.30602  -0.29958  -0.29565  -0.28818
  Beta  occ. eigenvalues --   -0.27513  -0.26923  -0.25819  -0.25713  -0.25011
  Beta  occ. eigenvalues --   -0.24072  -0.21660  -0.21019  -0.20770  -0.18114
  Beta  occ. eigenvalues --   -0.17022  -0.15962  -0.14909  -0.13622  -0.12850
  Beta  occ. eigenvalues --   -0.10954  -0.08003
  Beta virt. eigenvalues --    0.05269   0.07047   0.07146   0.07890   0.08862
  Beta virt. eigenvalues --    0.09330   0.09996   0.10738   0.11166   0.11300
  Beta virt. eigenvalues --    0.12307   0.12441   0.13005   0.13227   0.13523

 Mulliken charges and spin densities:
               1          2
     1  C   -0.544620   0.001692
     2  C   -0.461500   0.001278
     3  C   -0.372528  -0.000492
     4  C    0.135874   0.000584
     5  O   -0.271577   0.000007
     6  O   -0.149586   0.000000
     7  N    0.101656  -0.001686
     8  C   -0.257359  -0.007046
     9  C   -0.143981   0.027118
    10  O   -0.326363   0.012732
    11  N   -0.167134  -0.015226
    12  C    0.220032   0.128695
    13  C   -0.303504   0.144879
    14  C   -0.345158   0.008684
    15  C   -0.406330   0.152088
    16  C   -0.615691  -0.009428
    17  N   -0.175439   0.211893
    18  S    0.345898   0.294278
    19  N   -0.194699   0.211445
    20  C    0.330942  -0.149392
    21  H    0.144405   0.000043
    22  H    0.182666  -0.000038
    23  H    0.146912   0.000526
    24  H    0.185015  -0.004360
    25  H    0.164494   0.000850
    26  H    0.201317  -0.000002
    27  H    0.277216   0.000067
    28  H    0.248638   0.000260
    29  H    0.271262   0.000458
    30  H    0.110930  -0.003117
    31  H    0.281539   0.016769
    32  H    0.124174  -0.007788
    33  H    0.124796  -0.003486
    34  H    0.137702  -0.012286
 Sum of Mulliken charges =  -1.00000   1.00000

 Dipole moment (field-independent basis, Debye):
    X=              8.1292    Y=              3.7569    Z=              2.1872  Tot=              9.2185
 Quadrupole moment (field-independent basis, Debye-Ang):
   XX=           -180.6802   YY=           -142.0735   ZZ=           -145.5893
   XY=              0.2847   XZ=             16.7220   YZ=             -2.6731

 Summary of Natural Population Analysis:

                                       Natural Population
                Natural  -----------------------------------------------
    Atom  No    Charge         Core      Valence    Rydberg      Total
 -----------------------------------------------------------------------
      C    1   -0.28817      0.99963     2.28232    0.00622     3.28817
      C    2    0.02196      0.99955     1.96442    0.01408     2.97804
      C    3   -0.29961      0.99963     2.29455    0.00543     3.29961
      C    4    0.41273      0.99963     1.56020    0.02745     2.58727
      O    5   -0.30458      0.99987     3.29800    0.00672     4.30458
      O    6   -0.34829      0.99987     3.34175    0.00667     4.34829
      N    7   -0.34581      0.99972     2.83287    0.01322     3.84581
      C    8   -0.14254      0.99958     2.13242    0.01054     3.14254
      C    9    0.34649      0.99969     1.63101    0.02282     2.65351
      O   10   -0.33286      0.99987     3.32653    0.00646     4.33286
      N   11   -0.31276      0.99964     2.80123    0.01190     3.81276
      C   12    0.09196      0.99942     1.89821    0.01041     2.90804
      C   13   -0.09978      0.99954     2.09170    0.00855     3.09978
      C   14   -0.10751      0.99959     2.09854    0.00938     3.10751
      C   15   -0.06589      0.99952     2.05701    0.00935     3.06589
      C   16    0.03560      0.99952     1.95115    0.01373     2.96440
      N   17   -0.25209      0.99972     2.73579    0.01658     3.75209
      S   18    0.45753      4.99948     2.50632    0.03667     7.54247
      N   19   -0.26432      0.99971     2.74970    0.01491     3.76432
      C   20    0.03293      0.99949     1.95314    0.01445     2.96707
      H   21    0.10172      0.00000     0.39749    0.00079     0.39828
      H   22    0.10449      0.00000     0.39461    0.00090     0.39551
      H   23    0.10504      0.00000     0.39411    0.00084     0.39496
      H   24    0.10901      0.00000     0.38996    0.00103     0.39099
      H   25    0.10079      0.00000     0.39831    0.00089     0.39921
      H   26    0.11184      0.00000     0.38726    0.00090     0.38816
      H   27    0.23656      0.00000     0.25939    0.00405     0.26344
      H   28    0.19403      0.00000     0.30385    0.00212     0.30597
      H   29    0.12464      0.00000     0.37440    0.00097     0.37536
      H   30    0.10592      0.00000     0.39301    0.00107     0.39408
      H   31    0.19374      0.00000     0.30443    0.00183     0.30626
      H   32    0.09122      0.00000     0.40774    0.00104     0.40878
      H   33    0.09059      0.00000     0.40837    0.00104     0.40941
      H   34    0.09542      0.00000     0.40310    0.00148     0.40458
 =======================================================================
   * Total *   -0.00000     23.99265    52.72288    0.28448    77.00000

 Normal termination of Gaussian 16 at Sun Dec 13 17:48:54 2020.
