 Gaussian 16, Revision A.03,

 -----------------------------------------------------------
 # opt freq B3LYP/6-31G(d) empiricaldispersion=gd3bj scf=xqc
 -----------------------------------------------------------

 ------------------------------
 CID_65979082_JID_6135_neutraal
 ------------------------------
 Symbolic Z-matrix:
 Charge =  0 Multiplicity = 1

 SCF Done:  E(RB3LYP) =  -745.311885521     A.U. after   14 cycles
 SCF Done:  E(RB3LYP) =  -745.315476213     A.U. after   13 cycles
 SCF Done:  E(RB3LYP) =  -745.309783904     A.U. after   14 cycles
 SCF Done:  E(RB3LYP) =  -745.317130566     A.U. after   12 cycles
 SCF Done:  E(RB3LYP) =  -745.317441988     A.U. after   12 cycles
 SCF Done:  E(RB3LYP) =  -745.319256338     A.U. after   12 cycles
 SCF Done:  E(RB3LYP) =  -745.319454317     A.U. after   11 cycles
 SCF Done:  E(RB3LYP) =  -745.319502004     A.U. after   12 cycles
 SCF Done:  E(RB3LYP) =  -745.319605293     A.U. after   11 cycles
 SCF Done:  E(RB3LYP) =  -745.319657081     A.U. after   10 cycles
 SCF Done:  E(RB3LYP) =  -745.322773175     A.U. after    7 cycles
 SCF Done:  E(RB3LYP) =  -745.322773325     A.U. after    7 cycles
 SCF Done:  E(RB3LYP) =  -745.322773482     A.U. after    7 cycles
 SCF Done:  E(RB3LYP) =  -745.322773592     A.U. after    8 cycles
 SCF Done:  E(RB3LYP) =  -745.322773683     A.U. after    8 cycles
 SCF Done:  E(RB3LYP) =  -745.322773727     A.U. after    7 cycles
 Optimization completed.
    -- Stationary point found.
 Normal termination of Gaussian 16 at Thu Dec 10 21:29:32 2020.

 --------------------------------------------------------------------
 #N Geom=AllCheck Guess=TCheck SCRF=Check GenChk RB3LYP/6-31G(d) Freq
 --------------------------------------------------------------------

 Structure from the checkpoint file:  "JID_6135.chk"
 ------------------------------
 CID_65979082_JID_6135_neutraal
 ------------------------------
 Charge =  0 Multiplicity = 1

 SCF Done:  E(RB3LYP) =  -745.322773727     A.U. after    1 cycles

  Exact polarizability: 160.514   2.523 124.062  -2.256   3.915 118.627
 Approx polarizability: 209.616  12.135 174.061  -4.053  14.256 195.301

                      1                      2                      3
                      A                      A                      A
 Frequencies --     25.1877                44.1898                65.6344
 Red. masses --      2.8767                 3.6444                 4.3069
 Frc consts  --      0.0011                 0.0042                 0.0109
 IR Inten    --      0.1965                 1.2047                 0.3618

                      4                      5                      6
                      A                      A                      A
 Frequencies --     80.7188                86.0603               113.3152
 Red. masses --      3.2896                 3.0384                 2.7525
 Frc consts  --      0.0126                 0.0133                 0.0208
 IR Inten    --      0.1103                 0.1898                 1.0394

                      7                      8                      9
                      A                      A                      A
 Frequencies --    117.9927               125.8392               160.0043
 Red. masses --      4.2065                 4.2232                 2.9965
 Frc consts  --      0.0345                 0.0394                 0.0452
 IR Inten    --      1.1611                 1.4038                 1.0704

                     10                     11                     12
                      A                      A                      A
 Frequencies --    221.5519               233.5328               248.2680
 Red. masses --      2.9665                 1.0921                 1.3202
 Frc consts  --      0.0858                 0.0351                 0.0479
 IR Inten    --      1.0986                 0.4092                 1.7808

                     13                     14                     15
                      A                      A                      A
 Frequencies --    282.6478               298.0311               309.0926
 Red. masses --      2.9543                 3.4198                 2.3412
 Frc consts  --      0.1391                 0.1790                 0.1318
 IR Inten    --      3.6806                 0.1726                 1.1430

                     16                     17                     18
                      A                      A                      A
 Frequencies --    353.4248               406.0579               420.8060
 Red. masses --      3.0045                 2.0466                 3.2419
 Frc consts  --      0.2211                 0.1988                 0.3382
 IR Inten    --      1.3100                 0.6399                 3.3911

                     19                     20                     21
                      A                      A                      A
 Frequencies --    430.0037               487.4247               547.7988
 Red. masses --      3.2155                 4.0993                 3.4867
 Frc consts  --      0.3503                 0.5738                 0.6165
 IR Inten    --      4.6676                10.1910                 9.7028

                     22                     23                     24
                      A                      A                      A
 Frequencies --    601.7921               641.0309               699.6978
 Red. masses --      2.3363                 4.2319                 5.8874
 Frc consts  --      0.4985                 1.0246                 1.6982
 IR Inten    --     58.4276                 1.0136                 0.5086

                     25                     26                     27
                      A                      A                      A
 Frequencies --    718.5256               784.2473               804.9447
 Red. masses --      3.1091                 2.8792                 2.9426
 Frc consts  --      0.9457                 1.0433                 1.1233
 IR Inten    --     20.8628                 0.3537                16.6207

                     28                     29                     30
                      A                      A                      A
 Frequencies --    812.3464               817.2395               849.3349
 Red. masses --      1.8030                 2.0493                 2.0037
 Frc consts  --      0.7010                 0.8064                 0.8516
 IR Inten    --      3.2713                 5.8658                27.8228

                     31                     32                     33
                      A                      A                      A
 Frequencies --    856.6541               872.3608               902.7902
 Red. masses --      1.8934                 2.2833                 4.0412
 Frc consts  --      0.8187                 1.0238                 1.9406
 IR Inten    --     32.2325                 9.2107                48.4563

                     34                     35                     36
                      A                      A                      A
 Frequencies --    914.6439               941.4144               957.0960
 Red. masses --      3.1119                 2.2602                 2.9745
 Frc consts  --      1.5338                 1.1802                 1.6053
 IR Inten    --      3.5301                 5.6819                 5.0608

                     37                     38                     39
                      A                      A                      A
 Frequencies --    961.4429              1011.2635              1022.0355
 Red. masses --      1.9222                 4.0773                 3.2166
 Frc consts  --      1.0469                 2.4567                 1.9796
 IR Inten    --      1.3589                 1.8756                 4.5981

                     40                     41                     42
                      A                      A                      A
 Frequencies --   1024.4082              1042.6200              1053.0851
 Red. masses --      2.4310                 2.0479                 2.9491
 Frc consts  --      1.5031                 1.3116                 1.9270
 IR Inten    --      3.8320                 5.5001                 1.4569

                     43                     44                     45
                      A                      A                      A
 Frequencies --   1073.3095              1089.4144              1112.9573
 Red. masses --      1.8225                 1.8072                 2.7022
 Frc consts  --      1.2370                 1.2637                 1.9721
 IR Inten    --     55.7772                 5.4743                48.3433

                     46                     47                     48
                      A                      A                      A
 Frequencies --   1118.6069              1135.1145              1154.3756
 Red. masses --      2.1947                 1.9010                 2.3065
 Frc consts  --      1.6180                 1.4432                 1.8109
 IR Inten    --     14.0427                 4.5046                 3.4737

                     49                     50                     51
                      A                      A                      A
 Frequencies --   1174.2980              1202.9429              1217.1208
 Red. masses --      3.0147                 1.2848                 1.0951
 Frc consts  --      2.4493                 1.0954                 0.9558
 IR Inten    --    115.0326                 7.3243                 1.1350

                     52                     53                     54
                      A                      A                      A
 Frequencies --   1221.0150              1238.9854              1266.2216
 Red. masses --      1.8123                 1.2539                 1.2241
 Frc consts  --      1.5919                 1.1341                 1.1564
 IR Inten    --     18.1770                 6.8329                 0.2935

                     55                     56                     57
                      A                      A                      A
 Frequencies --   1290.1580              1312.2626              1334.7777
 Red. masses --      2.0183                 1.2523                 1.6116
 Frc consts  --      1.9794                 1.2705                 1.6917
 IR Inten    --     19.2684                15.8526                 2.5792

                     58                     59                     60
                      A                      A                      A
 Frequencies --   1341.2169              1345.3969              1348.2857
 Red. masses --      1.7076                 1.1360                 1.5057
 Frc consts  --      1.8098                 1.2115                 1.6127
 IR Inten    --      7.5548                 1.5961                 0.7169

                     61                     62                     63
                      A                      A                      A
 Frequencies --   1355.5497              1387.1896              1400.9091
 Red. masses --      1.4077                 2.5994                 1.2057
 Frc consts  --      1.5240                 2.9471                 1.3941
 IR Inten    --     11.4604                51.2506                 9.9609

                     64                     65                     66
                      A                      A                      A
 Frequencies --   1411.8944              1421.4680              1422.7897
 Red. masses --      1.9271                 1.3636                 1.3864
 Frc consts  --      2.2634                 1.6233                 1.6535
 IR Inten    --     12.6749                 2.6522                 6.3904

                     67                     68                     69
                      A                      A                      A
 Frequencies --   1432.2847              1449.8272              1460.6930
 Red. masses --      1.2884                 1.2940                 1.3945
 Frc consts  --      1.5573                 1.6026                 1.7530
 IR Inten    --     13.7263                18.2222                 9.7231

                     70                     71                     72
                      A                      A                      A
 Frequencies --   1503.4995              1516.5142              1524.9533
 Red. masses --      1.1075                 1.0474                 1.1058
 Frc consts  --      1.4750                 1.4193                 1.5151
 IR Inten    --      8.6055                 3.8321                 5.1361

                     73                     74                     75
                      A                      A                      A
 Frequencies --   1525.7547              1527.1404              1529.3792
 Red. masses --      1.0518                 1.0792                 1.0595
 Frc consts  --      1.4426                 1.4828                 1.4601
 IR Inten    --      0.3488                 8.0322                 6.7238

                     76                     77                     78
                      A                      A                      A
 Frequencies --   1539.4226              1546.1552              1557.8939
 Red. masses --      1.0949                 1.0784                 1.1064
 Frc consts  --      1.5287                 1.5189                 1.5821
 IR Inten    --      0.7080                 3.4214                 2.2917

                     79                     80                     81
                      A                      A                      A
 Frequencies --   1563.5625              1632.7261              2946.4314
 Red. masses --      5.3164                 8.4098                 1.0735
 Frc consts  --      7.6577                13.2088                 5.4909
 IR Inten    --     10.5776                90.8511                92.2886

                     82                     83                     84
                      A                      A                      A
 Frequencies --   2969.7142              3043.8411              3048.5349
 Red. masses --      1.0745                 1.0510                 1.0516
 Frc consts  --      5.5831                 5.7369                 5.7581
 IR Inten    --    115.8451                26.4424                62.7071

                     85                     86                     87
                      A                      A                      A
 Frequencies --   3062.9733              3063.3514              3079.3924
 Red. masses --      1.0371                 1.0637                 1.0766
 Frc consts  --      5.7325                 5.8810                 6.0148
 IR Inten    --     14.7210                10.4294                20.2008

                     88                     89                     90
                      A                      A                      A
 Frequencies --   3089.5711              3092.8105              3096.7735
 Red. masses --      1.0869                 1.0743                 1.0869
 Frc consts  --      6.1125                 6.0543                 6.1413
 IR Inten    --     39.7827                43.2955                 9.1796

                     91                     92                     93
                      A                      A                      A
 Frequencies --   3100.5808              3105.0579              3118.8918
 Red. masses --      1.0901                 1.1003                 1.0979
 Frc consts  --      6.1746                 6.2502                 6.2922
 IR Inten    --     13.4817                11.2076                30.4023

                     94                     95                     96
                      A                      A                      A
 Frequencies --   3123.0935              3132.8812              3133.9668
 Red. masses --      1.1000                 1.1014                 1.1041
 Frc consts  --      6.3216                 6.3693                 6.3894
 IR Inten    --      9.6660                21.9329                28.2344

                     97                     98                     99
                      A                      A                      A
 Frequencies --   3146.5363              3149.6240              3531.0035
 Red. masses --      1.1031                 1.1030                 1.0753
 Frc consts  --      6.4346                 6.4469                 7.8994
 IR Inten    --     13.2089                26.6716                 0.5630

 - Thermochemistry -
 -------------------
 Temperature   298.150 Kelvin.  Pressure   1.00000 Atm.
 Atom     1 has atomic number  6 and mass  12.00000

 Molecular mass:   225.14773 amu.
 Principal axes and moments of inertia in atomic units:
                           1         2         3
     Eigenvalues --  1939.773904913.075955672.47158
           X            0.99996  -0.00377   0.00854
           Y            0.00391   0.99987  -0.01567
           Z           -0.00848   0.01570   0.99984
 This molecule is an asymmetric top.
 Rotational symmetry number  1.
 Warning -- assumption of classical behavior for rotation
           may cause significant error
 Rotational temperatures (Kelvin)      0.04465     0.01763     0.01527
 Rotational constants (GHZ):           0.93039     0.36733     0.31816
 Zero-point vibrational energy     801902.6 (Joules/Mol)
                                  191.65933 (Kcal/Mol)
 Warning -- explicit consideration of  22 degrees of freedom as
           vibrations may cause significant error
 Vibrational temperatures:     36.24    63.58    94.43   116.14   123.82
          (Kelvin)            163.04   169.77   181.05   230.21   318.76
                              336.00   357.20   406.67   428.80   444.72
                              508.50   584.23   605.45   618.68   701.30
                              788.16   865.84   922.30  1006.71  1033.80
                             1128.36  1158.14  1168.79  1175.83  1222.00
                             1232.53  1255.13  1298.91  1315.97  1354.49
                             1377.05  1383.30  1454.98  1470.48  1473.89
                             1500.10  1515.15  1544.25  1567.42  1601.30
                             1609.43  1633.18  1660.89  1689.55  1730.77
                             1751.17  1756.77  1782.62  1821.81  1856.25
                             1888.05  1920.45  1929.71  1935.73  1939.88
                             1950.33  1995.86  2015.60  2031.40  2045.18
                             2047.08  2060.74  2085.98  2101.61  2163.20
                             2181.93  2194.07  2195.22  2197.21  2200.44
                             2214.89  2224.57  2241.46  2249.62  2349.13
                             4239.26  4272.76  4379.41  4386.16  4406.94
                             4407.48  4430.56  4445.20  4449.86  4455.57
                             4461.04  4467.49  4487.39  4493.44  4507.52
                             4509.08  4527.16  4531.61  5080.33

 Zero-point correction=                           0.305429 (Hartree/Particle)
 Thermal correction to Energy=                    0.321331
 Thermal correction to Enthalpy=                  0.322275
 Thermal correction to Gibbs Free Energy=         0.260881
 Sum of electronic and zero-point Energies=           -745.017345
 Sum of electronic and thermal Energies=              -745.001443
 Sum of electronic and thermal Enthalpies=            -745.000499
 Sum of electronic and thermal Free Energies=         -745.061893

                     E (Thermal)             CV                S
                      KCal/Mol        Cal/Mol-Kelvin    Cal/Mol-Kelvin
 Total                  201.638             59.235            129.214
 Electronic               0.000              0.000              0.000
 Translational            0.889              2.981             42.137
 Rotational               0.889              2.981             32.358
 Vibrational            199.861             53.273             54.719
 Vibration     1          0.593              1.985              6.176
 Vibration     2          0.595              1.980              5.062
 Vibration     3          0.597              1.971              4.280
 Vibration     4          0.600              1.962              3.873
 Vibration     5          0.601              1.959              3.748
 Vibration     6          0.607              1.938              3.211
 Vibration     7          0.608              1.934              3.133
 Vibration     8          0.611              1.927              3.009
 Vibration     9          0.622              1.891              2.550
 Vibration    10          0.648              1.808              1.946
 Vibration    11          0.654              1.790              1.852
 Vibration    12          0.662              1.766              1.743
 Vibration    13          0.682              1.706              1.518
 Vibration    14          0.691              1.677              1.428
 Vibration    15          0.698              1.656              1.367
 Vibration    16          0.730              1.568              1.151
 Vibration    17          0.771              1.457              0.941
 Vibration    18          0.783              1.425              0.889
 Vibration    19          0.791              1.405              0.859
 Vibration    20          0.843              1.278              0.690
 Vibration    21          0.903              1.145              0.549
 Vibration    22          0.960              1.028              0.447

                           ! Non-Optimized Parameters !
 Normal termination of Gaussian 16 at Thu Dec 10 21:42:15 2020.

 ----------------------------------------------------------------------
 # B3LYP/6-311++G(d,p) empiricaldispersion=gd3bj scf=xqc pop=npa geom=c
 heck
 ----------------------------------------------------------------------

 --------------------------------------
 CID_65979082_JID_6135_Energie_neutraal
 --------------------------------------
 Structure from the checkpoint file:  "JID_6135.chk"
 Charge =  0 Multiplicity = 1

 SCF Done:  E(RB3LYP) =  -745.529273236     A.U. after   15 cycles
 Normal termination of Gaussian 16 at Thu Dec 10 21:47:40 2020.

 ----------------------------------------------------------------------
 # B3LYP/6-311++G(d,p) empiricaldispersion=gd3bj scf=xqc pop=npa geom=c
 heck
 ----------------------------------------------------------------------

 ------------------------------------
 CID_65979082_JID_6135_Energie_kation
 ------------------------------------
 Structure from the checkpoint file:  "JID_6135.chk"
 Charge =  1 Multiplicity = 2

 SCF Done:  E(UB3LYP) =  -745.225050289     A.U. after   29 cycles
 Normal termination of Gaussian 16 at Thu Dec 10 22:01:40 2020.
 Gaussian 16:  ES64L-G16RevA.03 25-Dec-2016

 ----------------------------------------------------------------------
 # B3LYP/6-311++G(d,p) empiricaldispersion=gd3bj scf=xqc pop=npa geom=c
 heck
 ----------------------------------------------------------------------

 -----------------------------------
 CID_65979082_JID_6135_Energie_anion
 -----------------------------------
 Structure from the checkpoint file:  "JID_6135.chk"
 Charge = -1 Multiplicity = 2

                         Standard orientation:
 ---------------------------------------------------------------------
 Center     Atomic      Atomic             Coordinates (Angstroms)
 Number     Number       Type             X           Y           Z
 ---------------------------------------------------------------------
      1          6           0        1.462022    2.534506    0.058422
      2          6           0        2.629471    1.658240    0.490450
      3          8           0        3.051151    0.827281   -0.598602
      4          6           0        2.802938   -0.570054   -0.502148
      5          6           0        3.639379   -1.245843    0.588594
      6          6           0        1.339800   -0.906190   -0.347890
      7          7           0        0.657451   -1.442334   -1.327639
      8          8           0       -0.625198   -1.623529   -0.765112
      9          6           0       -0.565774   -1.150691    0.492610
     10          7           0        0.619654   -0.717229    0.816987
     11          6           0       -1.791611   -1.195906    1.339555
     12          6           0       -2.880866   -0.167745    0.951039
     13          6           0       -3.457026   -0.397104   -0.474934
     14          6           0       -2.869678    0.743964   -1.342578
     15          7           0       -1.827830    1.330710   -0.491318
     16          6           0       -2.331983    1.267850    0.878298
     17          1           0        1.738372    3.130086   -0.818343
     18          1           0        1.177511    3.219658    0.867246
     19          1           0        0.597791    1.915264   -0.197983
     20          1           0        3.493944    2.273805    0.769438
     21          1           0        2.346698    1.058264    1.360224
     22          1           0        3.106191   -0.956935   -1.479300
     23          1           0        3.322397   -0.931638    1.586866
     24          1           0        3.533968   -2.334701    0.530192
     25          1           0        4.692453   -0.984144    0.449376
     26          1           0       -2.219541   -2.204173    1.287407
     27          1           0       -1.468907   -1.023515    2.370192
     28          1           0       -3.666442   -0.244707    1.709352
     29          1           0       -4.549742   -0.352451   -0.463516
     30          1           0       -3.174050   -1.378316   -0.863228
     31          1           0       -2.429991    0.378630   -2.275312
     32          1           0       -3.663610    1.465944   -1.599875
     33          1           0       -1.577533    2.273829   -0.774969
     34          1           0       -3.148376    1.985197    1.083844
     35          1           0       -1.523706    1.455708    1.593395
 ---------------------------------------------------------------------

 SCF Done:  E(UB3LYP) =  -745.519827838     A.U. after   32 cycles

 The electronic state is 2-A.
 Alpha  occ. eigenvalues --  -19.10290 -19.03173 -14.25652 -14.20826 -14.18988
 Alpha  occ. eigenvalues --  -10.16317 -10.14604 -10.13180 -10.12017 -10.08393
 Alpha  occ. eigenvalues --  -10.08152 -10.08112 -10.07982 -10.07433 -10.05899
 Alpha  occ. eigenvalues --  -10.05881  -1.05157  -0.94327  -0.82899  -0.81434
 Alpha  occ. eigenvalues --   -0.77133  -0.69270  -0.68215  -0.64324  -0.62835
 Alpha  occ. eigenvalues --   -0.59750  -0.56959  -0.52906  -0.50932  -0.48833
 Alpha  occ. eigenvalues --   -0.47531  -0.45496  -0.41937  -0.41411  -0.39898
 Alpha  occ. eigenvalues --   -0.39117  -0.36271  -0.36031  -0.35409  -0.33887
 Alpha  occ. eigenvalues --   -0.33243  -0.32565  -0.31548  -0.31344  -0.29276
 Alpha  occ. eigenvalues --   -0.28609  -0.28485  -0.28343  -0.27032  -0.26116
 Alpha  occ. eigenvalues --   -0.25585  -0.24104  -0.23099  -0.23038  -0.22408
 Alpha  occ. eigenvalues --   -0.22287  -0.21440  -0.19176  -0.18023  -0.16975
 Alpha  occ. eigenvalues --   -0.12141   0.04389
 Alpha virt. eigenvalues --    0.06483   0.06891   0.07741   0.08104   0.08833
 Alpha virt. eigenvalues --    0.08985   0.09419   0.10358   0.10452   0.10861
 Alpha virt. eigenvalues --    0.11183   0.11912   0.12227   0.12372   0.13226

  Beta  occ. eigenvalues --  -19.10202 -19.03171 -14.25548 -14.20833 -14.18969
  Beta  occ. eigenvalues --  -10.16199 -10.14605 -10.13169 -10.12015 -10.08379
  Beta  occ. eigenvalues --  -10.08121 -10.08102 -10.07972 -10.07402 -10.05881
  Beta  occ. eigenvalues --  -10.05874  -1.05007  -0.94320  -0.82832  -0.81401
  Beta  occ. eigenvalues --   -0.76969  -0.69237  -0.68149  -0.64309  -0.62779
  Beta  occ. eigenvalues --   -0.59663  -0.56920  -0.52872  -0.50811  -0.48771
  Beta  occ. eigenvalues --   -0.47482  -0.45426  -0.41830  -0.41367  -0.39793
  Beta  occ. eigenvalues --   -0.38978  -0.36179  -0.35950  -0.35328  -0.33857
  Beta  occ. eigenvalues --   -0.33169  -0.32504  -0.31517  -0.31273  -0.29254
  Beta  occ. eigenvalues --   -0.28559  -0.28464  -0.28301  -0.26992  -0.26080
  Beta  occ. eigenvalues --   -0.25541  -0.24014  -0.23005  -0.22956  -0.22302
  Beta  occ. eigenvalues --   -0.22169  -0.21326  -0.19128  -0.17647  -0.16894
  Beta  occ. eigenvalues --   -0.12058
  Beta virt. eigenvalues --    0.06355   0.07229   0.07652   0.08238   0.08690
  Beta virt. eigenvalues --    0.09174   0.09306   0.09807   0.10505   0.10804
  Beta virt. eigenvalues --    0.11178   0.11426   0.12193   0.12450   0.12758

 Mulliken charges and spin densities:
               1          2
     1  C   -0.371428  -0.130593
     2  C   -0.141906   0.024613
     3  O   -0.045655   0.003090
     4  C   -0.307405   0.257074
     5  C   -0.270656  -0.246033
     6  C   -0.029269   0.207586
     7  N   -0.282982   0.055346
     8  O    0.252012   0.042581
     9  C   -1.107877   0.442703
    10  N    0.047790   0.101765
    11  C    1.918624  -2.498424
    12  C   -0.082284   0.568354
    13  C    0.112995  -0.775430
    14  C    0.417010  -0.678300
    15  N   -0.170084   0.040358
    16  C    0.284013  -0.867237
    17  H    0.050529   0.079076
    18  H   -0.066174   0.188329
    19  H    0.562212  -0.341373
    20  H    0.077119   0.071995
    21  H    0.135583  -0.016075
    22  H    0.195749   0.016095
    23  H    0.116242   0.058046
    24  H    0.081423   0.050594
    25  H    0.061276   0.094545
    26  H   -0.171930   0.376239
    27  H   -0.163205   0.349243
    28  H   -1.119291   1.373260
    29  H   -0.188382   0.358905
    30  H    0.018250   0.140141
    31  H    0.142997   0.012885
    32  H   -0.254047   0.380758
    33  H   -0.000866   0.271581
    34  H   -0.646821   0.799528
    35  H   -0.053565   0.188780
 Sum of Mulliken charges =  -1.00000   1.00000

 Dipole moment (field-independent basis, Debye):
    X=              8.6461    Y=             -0.7505    Z=             -2.4899  Tot=              9.0287
 Quadrupole moment (field-independent basis, Debye-Ang):
   XX=           -174.7046   YY=           -133.7349   ZZ=           -135.3173
   XY=              2.6890   XZ=             16.2805   YZ=              0.8064

 Summary of Natural Population Analysis:

                                       Natural Population
                Natural  -----------------------------------------------
    Atom  No    Charge         Core      Valence    Rydberg      Total
 -----------------------------------------------------------------------
      C    1   -0.30166      0.99965     2.29574    0.00627     3.30166
      C    2   -0.01700      0.99959     2.00633    0.01107     3.01700
      O    3   -0.30259      0.99988     3.29376    0.00895     4.30259
      C    4    0.05105      0.99950     1.93525    0.01420     2.94895
      C    5   -0.29630      0.99965     2.29208    0.00458     3.29630
      C    6    0.16087      0.99961     1.82023    0.01929     2.83913
      N    7   -0.07799      0.99966     2.56614    0.01219     3.57799
      O    8   -0.16599      0.99985     3.15807    0.00807     4.16599
      C    9    0.31726      0.99961     1.66138    0.02175     2.68274
      N   10   -0.28462      0.99966     2.77595    0.00900     3.78462
      C   11   -0.21801      0.99956     2.20757    0.01088     3.21801
      C   12   -0.10724      0.99959     2.09340    0.01425     3.10724
      C   13   -0.19739      0.99962     2.18902    0.00876     3.19739
      C   14   -0.08619      0.99964     2.07612    0.01043     3.08619
      N   15   -0.34560      0.99975     2.83396    0.01189     3.84560
      C   16   -0.08874      0.99961     2.07689    0.01224     3.08874
      H   17    0.09523      0.00000     0.40385    0.00092     0.40477
      H   18    0.09601      0.00000     0.40299    0.00100     0.40399
      H   19    0.11169      0.00000     0.38575    0.00257     0.38831
      H   20    0.07875      0.00000     0.41998    0.00127     0.42125
      H   21    0.09164      0.00000     0.40665    0.00171     0.40836
      H   22    0.10056      0.00000     0.39814    0.00130     0.39944
      H   23    0.10470      0.00000     0.39415    0.00115     0.39530
      H   24    0.10242      0.00000     0.39662    0.00096     0.39758
      H   25    0.09968      0.00000     0.39915    0.00117     0.40032
      H   26    0.11471      0.00000     0.38340    0.00189     0.38529
      H   27    0.11518      0.00000     0.38345    0.00137     0.38482
      H   28    0.11025      0.00000     0.38237    0.00738     0.38975
      H   29    0.10330      0.00000     0.39531    0.00139     0.39670
      H   30    0.10251      0.00000     0.39584    0.00165     0.39749
      H   31    0.09388      0.00000     0.40509    0.00103     0.40612
      H   32    0.07999      0.00000     0.41853    0.00148     0.42001
      H   33    0.17723      0.00000     0.32018    0.00260     0.32277
      H   34    0.08515      0.00000     0.41205    0.00280     0.41485
      H   35    0.09725      0.00000     0.40124    0.00151     0.40275
 =======================================================================
   * Total *    0.00000     15.99442    44.78662    0.21896    61.00000

 Normal termination of Gaussian 16 at Thu Dec 10 22:17:21 2020.
