 Gaussian 16, Revision A.03,

 -----------------------------------------------------------
 # opt freq B3LYP/6-31G(d) empiricaldispersion=gd3bj scf=xqc
 -----------------------------------------------------------

 -------------------------------
 CID_118922842_JID_3010_neutraal
 -------------------------------
 Symbolic Z-matrix:
 Charge =  0 Multiplicity = 1

 SCF Done:  E(RB3LYP) =  -559.431735056     A.U. after   14 cycles
 SCF Done:  E(RB3LYP) =  -559.435723232     A.U. after   11 cycles
 SCF Done:  E(RB3LYP) =  -559.436319886     A.U. after   10 cycles
 SCF Done:  E(RB3LYP) =  -559.436433710     A.U. after   10 cycles
 SCF Done:  E(RB3LYP) =  -559.436514491     A.U. after   11 cycles
 SCF Done:  E(RB3LYP) =  -559.436569696     A.U. after   10 cycles
 SCF Done:  E(RB3LYP) =  -559.436689318     A.U. after   11 cycles
 SCF Done:  E(RB3LYP) =  -559.436854275     A.U. after   12 cycles
 SCF Done:  E(RB3LYP) =  -559.436992543     A.U. after   10 cycles
 SCF Done:  E(RB3LYP) =  -559.437135341     A.U. after   11 cycles
 SCF Done:  E(RB3LYP) =  -559.438524469     A.U. after    9 cycles
 SCF Done:  E(RB3LYP) =  -559.438525807     A.U. after    9 cycles
 SCF Done:  E(RB3LYP) =  -559.438526743     A.U. after    9 cycles
 SCF Done:  E(RB3LYP) =  -559.438527124     A.U. after    7 cycles
 SCF Done:  E(RB3LYP) =  -559.438527167     A.U. after    7 cycles
 Optimization completed.
    -- Stationary point found.
 Normal termination of Gaussian 16 at Wed Dec  9 22:33:36 2020.

 --------------------------------------------------------------------
 #N Geom=AllCheck Guess=TCheck SCRF=Check GenChk RB3LYP/6-31G(d) Freq
 --------------------------------------------------------------------

 Structure from the checkpoint file:  "JID_3010.chk"
 -------------------------------
 CID_118922842_JID_3010_neutraal
 -------------------------------
 Charge =  0 Multiplicity = 1

 SCF Done:  E(RB3LYP) =  -559.438527167     A.U. after    1 cycles

  Exact polarizability: 156.152   1.839 113.034  -3.424   0.452  89.849
 Approx polarizability: 184.176  -0.857 181.254  -6.092   3.035 134.487

                      1                      2                      3
                      A                      A                      A
 Frequencies --     26.1730                32.2812                49.9684
 Red. masses --      2.3448                 2.5572                 2.0548
 Frc consts  --      0.0009                 0.0016                 0.0030
 IR Inten    --      0.0114                 0.1010                 0.0774

                      4                      5                      6
                      A                      A                      A
 Frequencies --     88.2033                91.5808               141.4929
 Red. masses --      4.6121                 3.3325                 3.0445
 Frc consts  --      0.0211                 0.0165                 0.0359
 IR Inten    --      0.0093                 0.1441                 0.6332

                      7                      8                      9
                      A                      A                      A
 Frequencies --    198.0105               224.5371               241.0921
 Red. masses --      2.6000                 1.0369                 2.9041
 Frc consts  --      0.0601                 0.0308                 0.0995
 IR Inten    --      1.1564                 0.0627                 0.2668

                     10                     11                     12
                      A                      A                      A
 Frequencies --    264.7341               278.7566               351.6740
 Red. masses --      1.1989                 3.3047                 3.3100
 Frc consts  --      0.0495                 0.1513                 0.2412
 IR Inten    --      0.2893                 0.1688                 1.4402

                     13                     14                     15
                      A                      A                      A
 Frequencies --    396.4287               433.5149               486.7086
 Red. masses --      3.3264                 3.6088                 2.4325
 Frc consts  --      0.3080                 0.3996                 0.3395
 IR Inten    --      0.1707                 2.5527                 0.4494

                     16                     17                     18
                      A                      A                      A
 Frequencies --    527.0284               625.8078               651.9340
 Red. masses --      3.7889                 2.5612                 3.2464
 Frc consts  --      0.6201                 0.5910                 0.8129
 IR Inten    --      3.9750                 0.7195                 1.1985

                     19                     20                     21
                      A                      A                      A
 Frequencies --    672.9417               744.3813               763.6549
 Red. masses --      4.1477                 3.7241                 1.5717
 Frc consts  --      1.1067                 1.2158                 0.5400
 IR Inten    --      1.7737                 5.1673                 1.6221

                     22                     23                     24
                      A                      A                      A
 Frequencies --    826.2947               838.9273               843.8736
 Red. masses --      2.0266                 1.7261                 1.6271
 Frc consts  --      0.8152                 0.7158                 0.6827
 IR Inten    --      3.7802                 3.0023                12.3611

                     25                     26                     27
                      A                      A                      A
 Frequencies --    895.6086               896.6699               915.0517
 Red. masses --      3.1077                 2.7145                 2.5680
 Frc consts  --      1.4687                 1.2859                 1.2669
 IR Inten    --      2.2571                 0.8454                 2.9083

                     28                     29                     30
                      A                      A                      A
 Frequencies --    948.2967               963.6471               975.5062
 Red. masses --      1.1540                 2.3839                 2.2707
 Frc consts  --      0.6114                 1.3043                 1.2731
 IR Inten    --      1.0545                 3.4267                 1.1801

                     31                     32                     33
                      A                      A                      A
 Frequencies --    983.5621               987.9137               998.3626
 Red. masses --      1.4661                 1.8760                 1.4939
 Frc consts  --      0.8356                 1.0788                 0.8773
 IR Inten    --      0.7831                 0.1160                 0.7978

                     34                     35                     36
                      A                      A                      A
 Frequencies --   1020.1022              1065.9641              1105.5848
 Red. masses --      4.8586                 2.1729                 3.4881
 Frc consts  --      2.9788                 1.4547                 2.5120
 IR Inten    --     22.3605                 1.5528                 0.1366

                     37                     38                     39
                      A                      A                      A
 Frequencies --   1117.6153              1134.3963              1162.7906
 Red. masses --      1.6309                 2.5259                 2.4535
 Frc consts  --      1.2002                 1.9151                 1.9545
 IR Inten    --      2.9831                34.7480                42.5233

                     40                     41                     42
                      A                      A                      A
 Frequencies --   1185.1855              1198.8530              1215.7732
 Red. masses --      2.5058                 1.4369                 1.4926
 Frc consts  --      2.0738                 1.2168                 1.2999
 IR Inten    --     13.7967                 0.3706                 0.4748

                     43                     44                     45
                      A                      A                      A
 Frequencies --   1220.2938              1236.3245              1256.7581
 Red. masses --      1.9819                 2.0560                 1.5789
 Frc consts  --      1.7389                 1.8516                 1.4692
 IR Inten    --      5.3469                 3.9570                 1.3327

                     46                     47                     48
                      A                      A                      A
 Frequencies --   1272.8802              1310.1414              1316.4180
 Red. masses --      1.2318                 1.3389                 1.6371
 Frc consts  --      1.1759                 1.3540                 1.6715
 IR Inten    --      1.7973                 2.0315                 4.5730

                     49                     50                     51
                      A                      A                      A
 Frequencies --   1337.9428              1349.7360              1352.7649
 Red. masses --      1.2837                 1.4031                 1.3794
 Frc consts  --      1.3540                 1.5060                 1.4872
 IR Inten    --      4.0589                 6.6129                 0.7309

                     52                     53                     54
                      A                      A                      A
 Frequencies --   1353.4235              1357.4402              1397.8733
 Red. masses --      1.3529                 1.3370                 1.8094
 Frc consts  --      1.4601                 1.4515                 2.0831
 IR Inten    --      0.9570                 1.0518                 7.6977

                     55                     56                     57
                      A                      A                      A
 Frequencies --   1421.5315              1431.8030              1448.8614
 Red. masses --      1.5329                 1.5465                 1.2341
 Frc consts  --      1.8250                 1.8680                 1.5263
 IR Inten    --      6.8744                 0.8592                 4.3209

                     58                     59                     60
                      A                      A                      A
 Frequencies --   1516.4197              1516.5552              1519.1179
 Red. masses --      1.0770                 1.0433                 1.0504
 Frc consts  --      1.4592                 1.4138                 1.4282
 IR Inten    --      0.2332                 1.7195                 1.2931

                     61                     62                     63
                      A                      A                      A
 Frequencies --   1526.1602              1528.2725              1530.1101
 Red. masses --      1.0907                 1.0844                 1.0469
 Frc consts  --      1.4967                 1.4923                 1.4441
 IR Inten    --      1.0035                 3.3928                 7.1631

                     64                     65                     66
                      A                      A                      A
 Frequencies --   1539.7798              1550.5766              1619.5094
 Red. masses --      1.0753                 1.1041                 8.8517
 Frc consts  --      1.5020                 1.5640                13.6786
 IR Inten    --      4.1241                 0.2064                35.6656

                     67                     68                     69
                      A                      A                      A
 Frequencies --   1654.4773              3007.2959              3021.7737
 Red. masses --      7.4867                 1.0821                 1.0827
 Frc consts  --     12.0743                 5.7659                 5.8247
 IR Inten    --     19.3745                14.4486                15.2581

                     70                     71                     72
                      A                      A                      A
 Frequencies --   3051.2470              3053.0685              3057.2974
 Red. masses --      1.0672                 1.0349                 1.0660
 Frc consts  --      5.8541                 5.6836                 5.8708
 IR Inten    --     19.1000                23.8998                24.3647

                     73                     74                     75
                      A                      A                      A
 Frequencies --   3059.4724              3063.0857              3073.0789
 Red. masses --      1.0632                 1.0358                 1.0643
 Frc consts  --      5.8633                 5.7257                 5.9220
 IR Inten    --     29.9272                28.6877                50.9546

                     76                     77                     78
                      A                      A                      A
 Frequencies --   3095.0410              3108.7966              3115.5626
 Red. masses --      1.0994                 1.0990                 1.1010
 Frc consts  --      6.2047                 6.2578                 6.2967
 IR Inten    --     19.3977                 7.9667                23.7290

                     79                     80                     81
                      A                      A                      A
 Frequencies --   3121.1130              3123.6231              3132.6233
 Red. masses --      1.1032                 1.1050                 1.1025
 Frc consts  --      6.3316                 6.3523                 6.3745
 IR Inten    --     19.6468                74.5097                40.6215

                     82                     83                     84
                      A                      A                      A
 Frequencies --   3135.2922              3142.8696              3279.6765
 Red. masses --      1.1026                 1.1025                 1.0975
 Frc consts  --      6.3861                 6.4162                 6.9556
 IR Inten    --     24.5882                22.2622                 8.9829

 - Thermochemistry -
 -------------------
 Temperature   298.150 Kelvin.  Pressure   1.00000 Atm.
 Atom     1 has atomic number  6 and mass  12.00000

 Molecular mass:   179.13101 amu.
 Principal axes and moments of inertia in atomic units:
                           1         2         3
     Eigenvalues --   803.823454974.030735377.97204
           X            0.99998   0.00547   0.00128
           Y           -0.00548   0.99996   0.00636
           Z           -0.00125  -0.00637   0.99998
 This molecule is an asymmetric top.
 Rotational symmetry number  1.
 Warning -- assumption of classical behavior for rotation
           may cause significant error
 Rotational temperatures (Kelvin)      0.10775     0.01741     0.01611
 Rotational constants (GHZ):           2.24520     0.36283     0.33558
 Zero-point vibrational energy     698481.4 (Joules/Mol)
                                  166.94106 (Kcal/Mol)
 Warning -- explicit consideration of  16 degrees of freedom as
           vibrations may cause significant error
 Vibrational temperatures:     37.66    46.45    71.89   126.90   131.76
          (Kelvin)            203.58   284.89   323.06   346.88   380.89
                              401.07   505.98   570.37   623.73   700.27
                              758.28   900.40   937.99   968.21  1071.00
                             1098.73  1188.85  1207.03  1214.15  1288.58
                             1290.11  1316.56  1364.39  1386.47  1403.54
                             1415.13  1421.39  1436.42  1467.70  1533.68
                             1590.69  1608.00  1632.14  1673.00  1705.22
                             1724.88  1749.23  1755.73  1778.80  1808.19
                             1831.39  1885.00  1894.03  1925.00  1941.97
                             1946.33  1947.27  1953.05  2011.23  2045.27
                             2060.05  2084.59  2181.79  2181.98  2185.67
                             2195.80  2198.84  2201.49  2215.40  2230.93
                             2330.11  2380.42  4326.83  4347.66  4390.06
                             4392.68  4398.77  4401.90  4407.10  4421.48
                             4453.07  4472.86  4482.60  4490.59  4494.20
                             4507.15  4510.99  4521.89  4718.72

 Zero-point correction=                           0.266038 (Hartree/Particle)
 Thermal correction to Energy=                    0.279109
 Thermal correction to Enthalpy=                  0.280054
 Thermal correction to Gibbs Free Energy=         0.224431
 Sum of electronic and zero-point Energies=           -559.172490
 Sum of electronic and thermal Energies=              -559.159418
 Sum of electronic and thermal Enthalpies=            -559.158474
 Sum of electronic and thermal Free Energies=         -559.214096

                     E (Thermal)             CV                S
                      KCal/Mol        Cal/Mol-Kelvin    Cal/Mol-Kelvin
 Total                  175.144             48.407            117.068
 Electronic               0.000              0.000              0.000
 Translational            0.889              2.981             41.456
 Rotational               0.889              2.981             31.442
 Vibrational            173.366             42.445             44.170
 Vibration     1          0.593              1.985              6.100
 Vibration     2          0.594              1.983              5.684
 Vibration     3          0.595              1.978              4.819
 Vibration     4          0.601              1.957              3.700
 Vibration     5          0.602              1.955              3.626
 Vibration     6          0.615              1.912              2.784
 Vibration     7          0.637              1.843              2.152
 Vibration     8          0.649              1.804              1.922
 Vibration     9          0.658              1.777              1.795
 Vibration    10          0.671              1.738              1.630
 Vibration    11          0.679              1.713              1.541
 Vibration    12          0.728              1.572              1.159
 Vibration    13          0.763              1.478              0.976
 Vibration    14          0.794              1.397              0.847
 Vibration    15          0.843              1.280              0.692
 Vibration    16          0.882              1.190              0.594

                           ! Non-Optimized Parameters !
 Normal termination of Gaussian 16 at Wed Dec  9 22:40:26 2020.

 ----------------------------------------------------------------------
 # B3LYP/6-311++G(d,p) empiricaldispersion=gd3bj scf=xqc pop=npa geom=c
 heck
 ----------------------------------------------------------------------

 ---------------------------------------
 CID_118922842_JID_3010_Energie_neutraal
 ---------------------------------------
 Structure from the checkpoint file:  "JID_3010.chk"
 Charge =  0 Multiplicity = 1

 SCF Done:  E(RB3LYP) =  -559.588297802     A.U. after   15 cycles
 Normal termination of Gaussian 16 at Wed Dec  9 22:43:31 2020.

 ----------------------------------------------------------------------
 # B3LYP/6-311++G(d,p) empiricaldispersion=gd3bj scf=xqc pop=npa geom=c
 heck
 ----------------------------------------------------------------------

 -------------------------------------
 CID_118922842_JID_3010_Energie_kation
 -------------------------------------
 Structure from the checkpoint file:  "JID_3010.chk"
 Charge =  1 Multiplicity = 2

 SCF Done:  E(UB3LYP) =  -559.282727579     A.U. after   19 cycles
 Normal termination of Gaussian 16 at Wed Dec  9 22:48:53 2020.
 Gaussian 16:  ES64L-G16RevA.03 25-Dec-2016

 ----------------------------------------------------------------------
 # B3LYP/6-311++G(d,p) empiricaldispersion=gd3bj scf=xqc pop=npa geom=c
 heck
 ----------------------------------------------------------------------

 ------------------------------------
 CID_118922842_JID_3010_Energie_anion
 ------------------------------------
 Structure from the checkpoint file:  "JID_3010.chk"
 Charge = -1 Multiplicity = 2

                         Standard orientation:
 ---------------------------------------------------------------------
 Center     Atomic      Atomic             Coordinates (Angstroms)
 Number     Number       Type             X           Y           Z
 ---------------------------------------------------------------------
      1          6           0        3.388986    1.362418    1.001341
      2          6           0        3.088884    0.558664   -0.278520
      3          6           0        4.233914   -0.395023   -0.632791
      4          6           0        1.801202   -0.192213   -0.139339
      5          7           0        1.587906   -1.472140   -0.163029
      6          6           0        0.214298   -1.607661    0.035370
      7          6           0       -0.355346   -0.382281    0.173434
      8          8           0        0.664158    0.543860    0.062967
      9          6           0       -1.731664    0.135511    0.378200
     10          6           0       -2.278948    0.995923   -0.782499
     11          6           0       -3.788516    1.083126   -0.486590
     12          6           0       -4.143812   -0.231074    0.271514
     13          6           0       -2.800955   -0.963974    0.506688
     14          1           0        3.539171    0.686636    1.850940
     15          1           0        2.566517    2.041499    1.244930
     16          1           0        4.300687    1.955439    0.870983
     17          1           0        2.958454    1.277827   -1.100448
     18          1           0        4.381205   -1.131393    0.163232
     19          1           0        4.022327   -0.944162   -1.554381
     20          1           0        5.163617    0.168795   -0.763417
     21          1           0       -0.257725   -2.578633    0.068678
     22          1           0       -1.746298    0.752156    1.290229
     23          1           0       -1.790398    1.972185   -0.853172
     24          1           0       -2.097943    0.465938   -1.726193
     25          1           0       -4.377667    1.212306   -1.399642
     26          1           0       -3.994627    1.951952    0.148711
     27          1           0       -4.839990   -0.856437   -0.295693
     28          1           0       -4.631900   -0.003341    1.224922
     29          1           0       -2.634841   -1.710265   -0.280065
     30          1           0       -2.757446   -1.486889    1.467000
 ---------------------------------------------------------------------

 SCF Done:  E(UB3LYP) =  -559.572883750     A.U. after   33 cycles
 SCF Done:  E(UB3LYP) =  -559.572883750     a.u. after    1 cycles

 The electronic state is 2-A.
 Alpha  occ. eigenvalues --  -19.09386 -14.20874 -10.15790 -10.13136 -10.09700
 Alpha  occ. eigenvalues --  -10.09485 -10.08964 -10.07288 -10.07052 -10.06820
 Alpha  occ. eigenvalues --  -10.06799 -10.06778 -10.06630  -1.02795  -0.82025
 Alpha  occ. eigenvalues --   -0.75252  -0.72232  -0.66586  -0.61654  -0.60632
 Alpha  occ. eigenvalues --   -0.59477  -0.53826  -0.51976  -0.47592  -0.46974
 Alpha  occ. eigenvalues --   -0.46002  -0.42040  -0.39589  -0.38513  -0.37351
 Alpha  occ. eigenvalues --   -0.34981  -0.34139  -0.33050  -0.32291  -0.30724
 Alpha  occ. eigenvalues --   -0.30138  -0.29290  -0.27358  -0.25865  -0.25529
 Alpha  occ. eigenvalues --   -0.25144  -0.24934  -0.24401  -0.24266  -0.23935
 Alpha  occ. eigenvalues --   -0.22359  -0.22077  -0.19162  -0.13742   0.04385
 Alpha virt. eigenvalues --    0.05812   0.07337   0.07598   0.08255   0.08380
 Alpha virt. eigenvalues --    0.08693   0.09471   0.09948   0.10447   0.10871
 Alpha virt. eigenvalues --    0.11032   0.11243   0.11745   0.12582   0.13097

  Beta  occ. eigenvalues --  -19.09377 -14.20863 -10.15790 -10.13133 -10.09689
  Beta  occ. eigenvalues --  -10.09479 -10.08952 -10.07271 -10.07037 -10.06787
  Beta  occ. eigenvalues --  -10.06772 -10.06753 -10.06611  -1.02784  -0.82007
  Beta  occ. eigenvalues --   -0.75225  -0.72205  -0.66557  -0.61608  -0.60591
  Beta  occ. eigenvalues --   -0.59426  -0.53790  -0.51934  -0.47532  -0.46940
  Beta  occ. eigenvalues --   -0.45953  -0.42013  -0.39556  -0.38452  -0.37323
  Beta  occ. eigenvalues --   -0.34944  -0.34115  -0.33010  -0.32264  -0.30690
  Beta  occ. eigenvalues --   -0.30118  -0.29259  -0.27319  -0.25831  -0.25496
  Beta  occ. eigenvalues --   -0.25110  -0.24893  -0.24353  -0.24225  -0.23898
  Beta  occ. eigenvalues --   -0.22321  -0.22042  -0.19141  -0.13718
  Beta virt. eigenvalues --    0.06493   0.06887   0.07922   0.08095   0.08682
  Beta virt. eigenvalues --    0.08769   0.09074   0.09730   0.10352   0.10822
  Beta virt. eigenvalues --    0.11183   0.11432   0.11527   0.11993   0.12727

 Mulliken charges and spin densities:
               1          2
     1  C    0.901245  -1.427676
     2  C   -2.941498   3.571466
     3  C    0.446995  -1.203334
     4  C    1.674291  -2.292907
     5  N   -0.016380   0.021637
     6  C   -0.325015   0.065745
     7  C    1.474982  -2.041211
     8  O    0.017594   0.032867
     9  C   -1.002683   2.149329
    10  C    0.395218  -0.850795
    11  C   -0.052564  -0.330363
    12  C    0.796479  -1.160579
    13  C    0.006871  -0.606149
    14  H   -0.057554   0.195553
    15  H   -0.017199   0.169668
    16  H   -0.511540   0.680963
    17  H   -0.287479   0.475536
    18  H    0.059236   0.100416
    19  H    0.066852   0.083341
    20  H   -0.390156   0.553625
    21  H   -0.068332   0.242720
    22  H   -0.241689   0.450796
    23  H    0.014923   0.147069
    24  H   -0.047448   0.200380
    25  H   -0.184673   0.334469
    26  H   -0.153866   0.300697
    27  H   -0.274660   0.414028
    28  H   -0.261147   0.417302
    29  H    0.111845   0.008087
    30  H   -0.132651   0.297320
 Sum of Mulliken charges =  -1.00000   1.00000

 Dipole moment (field-independent basis, Debye):
    X=             -0.1454    Y=             -2.4510    Z=             -0.6830  Tot=              2.5485
 Quadrupole moment (field-independent basis, Debye-Ang):
   XX=           -183.7940   YY=           -119.0687   ZZ=           -112.0526
   XY=             -6.7439   XZ=              3.5607   YZ=             -0.7979

 Summary of Natural Population Analysis:

                                       Natural Population
                Natural  -----------------------------------------------
    Atom  No    Charge         Core      Valence    Rydberg      Total
 -----------------------------------------------------------------------
      C    1   -0.27955      0.99965     2.27386    0.00604     3.27955
      C    2   -0.14035      0.99957     2.13059    0.01019     3.14035
      C    3   -0.28098      0.99966     2.27428    0.00704     3.28098
      C    4    0.27441      0.99957     1.70607    0.01996     2.72559
      N    5   -0.25690      0.99968     2.74805    0.00917     3.75690
      C    6   -0.04824      0.99948     2.03723    0.01153     3.04824
      C    7    0.14423      0.99944     1.84182    0.01452     2.85577
      O    8   -0.24152      0.99985     3.23483    0.00684     4.24152
      C    9   -0.13608      0.99956     2.12484    0.01168     3.13608
      C   10   -0.18120      0.99962     2.17461    0.00697     3.18120
      C   11   -0.19165      0.99965     2.18501    0.00700     3.19165
      C   12   -0.19193      0.99965     2.18462    0.00766     3.19193
      C   13   -0.18663      0.99963     2.17708    0.00991     3.18663
      H   14    0.09742      0.00000     0.40153    0.00105     0.40258
      H   15    0.10512      0.00000     0.39347    0.00141     0.39488
      H   16    0.10143      0.00000     0.39691    0.00167     0.39857
      H   17    0.10675      0.00000     0.39157    0.00168     0.39325
      H   18    0.10172      0.00000     0.39717    0.00111     0.39828
      H   19    0.10389      0.00000     0.39509    0.00102     0.39611
      H   20    0.09933      0.00000     0.39963    0.00104     0.40067
      H   21    0.10164      0.00000     0.39723    0.00113     0.39836
      H   22    0.10637      0.00000     0.39162    0.00201     0.39363
      H   23    0.10459      0.00000     0.39408    0.00133     0.39541
      H   24    0.09501      0.00000     0.40343    0.00155     0.40499
      H   25    0.09941      0.00000     0.39919    0.00140     0.40059
      H   26    0.09714      0.00000     0.40105    0.00181     0.40286
      H   27    0.09875      0.00000     0.39997    0.00127     0.40125
      H   28    0.09916      0.00000     0.39910    0.00175     0.40084
      H   29    0.09529      0.00000     0.40314    0.00157     0.40471
      H   30    0.10337      0.00000     0.39549    0.00114     0.39663
 =======================================================================
   * Total *    0.00000     12.99501    35.85254    0.15245    49.00000

 Normal termination of Gaussian 16 at Wed Dec  9 22:57:19 2020.
