 Gaussian 16, Revision A.03,

 -----------------------------------------------------------
 # opt freq B3LYP/6-31G(d) empiricaldispersion=gd3bj scf=xqc
 -----------------------------------------------------------

 ------------------------------
 CID_143794273_JID_765_neutraal
 ------------------------------
 Symbolic Z-matrix:
 Charge =  0 Multiplicity = 1

 SCF Done:  E(RB3LYP) =  -442.649045243     A.U. after   14 cycles
 SCF Done:  E(RB3LYP) =  -442.651470871     A.U. after   14 cycles
 SCF Done:  E(RB3LYP) =  -442.643200463     A.U. after   15 cycles
 SCF Done:  E(RB3LYP) =  -442.651470990     A.U. after   13 cycles
 SCF Done:  E(RB3LYP) =  -442.651845551     A.U. after   15 cycles
 SCF Done:  E(RB3LYP) =  -442.652699428     A.U. after   14 cycles
 SCF Done:  E(RB3LYP) =  -442.652977125     A.U. after   12 cycles
 SCF Done:  E(RB3LYP) =  -442.653170694     A.U. after   12 cycles
 SCF Done:  E(RB3LYP) =  -442.653269571     A.U. after   12 cycles
 SCF Done:  E(RB3LYP) =  -442.653368489     A.U. after   11 cycles
 SCF Done:  E(RB3LYP) =  -442.654770104     A.U. after    9 cycles
 SCF Done:  E(RB3LYP) =  -442.654770166     A.U. after    8 cycles
 SCF Done:  E(RB3LYP) =  -442.654770360     A.U. after    9 cycles
 SCF Done:  E(RB3LYP) =  -442.654770370     A.U. after    8 cycles
 SCF Done:  E(RB3LYP) =  -442.654770382     A.U. after    7 cycles
 Optimization completed.
    -- Stationary point found.
 Normal termination of Gaussian 16 at Sun Dec 13 16:23:00 2020.

 --------------------------------------------------------------------
 #N Geom=AllCheck Guess=TCheck SCRF=Check GenChk RB3LYP/6-31G(d) Freq
 --------------------------------------------------------------------

 Structure from the checkpoint file:  "JID_765.chk"
 ------------------------------
 CID_143794273_JID_765_neutraal
 ------------------------------
 Charge =  0 Multiplicity = 1

 SCF Done:  E(RB3LYP) =  -442.654770382     A.U. after    1 cycles

  Exact polarizability:  86.244 -28.137 104.839  -7.745  -0.218  82.352
 Approx polarizability: 120.207 -47.365 156.098 -20.598   4.541 142.476

                      1                      2                      3
                      A                      A                      A
 Frequencies --     13.4450                30.6234                39.8594
 Red. masses --      2.8761                 4.0505                 3.8642
 Frc consts  --      0.0003                 0.0022                 0.0036
 IR Inten    --      0.1291                 0.4726                 0.7999

                      4                      5                      6
                      A                      A                      A
 Frequencies --     71.5664                86.3601               107.9935
 Red. masses --      2.8652                 3.7678                 1.6057
 Frc consts  --      0.0086                 0.0166                 0.0110
 IR Inten    --      0.0008                 0.0063                 0.3184

                      7                      8                      9
                      A                      A                      A
 Frequencies --    125.9754               216.8667               235.0762
 Red. masses --      3.2414                 3.4012                 1.0641
 Frc consts  --      0.0303                 0.0942                 0.0346
 IR Inten    --      0.3549                 2.2316                 0.3215

                     10                     11                     12
                      A                      A                      A
 Frequencies --    264.5882               281.6838               370.4823
 Red. masses --      2.1173                 1.1645                 2.0662
 Frc consts  --      0.0873                 0.0544                 0.1671
 IR Inten    --      5.2467                 0.5727                 0.0974

                     13                     14                     15
                      A                      A                      A
 Frequencies --    499.7044               594.7746               631.9722
 Red. masses --      3.9659                 2.2224                 3.1835
 Frc consts  --      0.5835                 0.4632                 0.7491
 IR Inten    --      3.5665                 0.5471                 0.0399

                     16                     17                     18
                      A                      A                      A
 Frequencies --    682.5669               745.8482               763.2810
 Red. masses --      3.4281                 1.2849                 1.0754
 Frc consts  --      0.9410                 0.4211                 0.3692
 IR Inten    --      5.5676                41.4183                 9.2220

                     19                     20                     21
                      A                      A                      A
 Frequencies --    791.2183               862.9510               884.0638
 Red. masses --      4.2823                 1.3108                 2.5580
 Frc consts  --      1.5795                 0.5751                 1.1779
 IR Inten    --      8.4326                 7.1100                 0.7392

                     22                     23                     24
                      A                      A                      A
 Frequencies --    923.3162               938.4338               942.1583
 Red. masses --      1.1003                 7.6097                 1.2232
 Frc consts  --      0.5527                 3.9484                 0.6397
 IR Inten    --      0.0869                14.5703                 6.2322

                     25                     26                     27
                      A                      A                      A
 Frequencies --    945.1771               947.3218              1030.3569
 Red. masses --      1.3454                 4.5595                 1.0908
 Frc consts  --      0.7081                 2.4108                 0.6823
 IR Inten    --     36.4097                12.6378                20.1489

                     28                     29                     30
                      A                      A                      A
 Frequencies --   1038.9626              1070.7266              1120.7652
 Red. masses --      1.4582                 2.4087                 3.9570
 Frc consts  --      0.9274                 1.6270                 2.9285
 IR Inten    --     12.9911                 0.4709                 5.6012

                     31                     32                     33
                      A                      A                      A
 Frequencies --   1156.7748              1166.0588              1192.8496
 Red. masses --      2.5350                 1.5462                 1.7788
 Frc consts  --      1.9986                 1.2387                 1.4912
 IR Inten    --      7.5293                 7.6984                 0.8106

                     34                     35                     36
                      A                      A                      A
 Frequencies --   1231.9840              1292.1593              1322.7710
 Red. masses --      1.6542                 3.3816                 1.2995
 Frc consts  --      1.4793                 3.3266                 1.3397
 IR Inten    --      1.2456                12.7263                 0.3921

                     37                     38                     39
                      A                      A                      A
 Frequencies --   1333.7414              1386.9016              1403.6662
 Red. masses --      1.1252                 1.4088                 2.4002
 Frc consts  --      1.1793                 1.5965                 2.7862
 IR Inten    --      0.3308                 2.8975                 5.7376

                     40                     41                     42
                      A                      A                      A
 Frequencies --   1434.4937              1450.6755              1454.3556
 Red. masses --      1.2891                 1.2361                 1.4795
 Frc consts  --      1.5629                 1.5326                 1.8438
 IR Inten    --      3.4449                 2.6219                 0.4790

                     43                     44                     45
                      A                      A                      A
 Frequencies --   1519.4260              1523.7454              1529.9706
 Red. masses --      1.0402                 1.0458                 1.0547
 Frc consts  --      1.4149                 1.4307                 1.4546
 IR Inten    --      2.5270                 2.5205                 0.8282

                     46                     47                     48
                      A                      A                      A
 Frequencies --   1537.4548              1545.7649              1549.7172
 Red. masses --      1.0452                 1.1617                 3.0247
 Frc consts  --      1.4556                 1.6354                 4.2800
 IR Inten    --     16.1645                 9.8987                 5.3535

                     49                     50                     51
                      A                      A                      A
 Frequencies --   1593.4762              1720.5083              3037.5984
 Red. masses --      4.9541                 4.9107                 1.0652
 Frc consts  --      7.4115                 8.5647                 5.7911
 IR Inten    --     33.2094                 0.1618                32.3081

                     52                     53                     54
                      A                      A                      A
 Frequencies --   3040.9484              3045.5085              3073.8198
 Red. masses --      1.0359                 1.0373                 1.0959
 Frc consts  --      5.6440                 5.6684                 6.1007
 IR Inten    --     31.4383                13.7237                 4.7970

                     55                     56                     57
                      A                      A                      A
 Frequencies --   3103.2352              3110.5296              3114.8753
 Red. masses --      1.1018                 1.1009                 1.1023
 Frc consts  --      6.2514                 6.2757                 6.3012
 IR Inten    --     11.7188                56.6273                37.3453

                     58                     59                     60
                      A                      A                      A
 Frequencies --   3120.8801              3183.5819              3210.8210
 Red. masses --      1.1021                 1.0579                 1.0928
 Frc consts  --      6.3247                 6.3172                 6.6375
 IR Inten    --     75.2069                 1.4084                 1.8298

                     61                     62                     63
                      A                      A                      A
 Frequencies --   3269.5282              3280.0351              3319.2836
 Red. masses --      1.1172                 1.0934                 1.1053
 Frc consts  --      7.0364                 6.9308                 7.1747
 IR Inten    --      5.6927                 5.5730                 0.7438

 - Thermochemistry -
 -------------------
 Temperature   298.150 Kelvin.  Pressure   1.00000 Atm.
 Atom     1 has atomic number  6 and mass  12.00000

 Molecular mass:   139.09971 amu.
 Principal axes and moments of inertia in atomic units:
                           1         2         3
     Eigenvalues --  1140.799841893.315822517.05935
           X            0.99996  -0.00751   0.00469
           Y            0.00750   0.99997   0.00223
           Z           -0.00470  -0.00219   0.99999
 This molecule is an asymmetric top.
 Rotational symmetry number  1.
 Warning -- assumption of classical behavior for rotation
           may cause significant error
 Rotational temperatures (Kelvin)      0.07592     0.04575     0.03441
 Rotational constants (GHZ):           1.58200     0.95322     0.71700
 Zero-point vibrational energy     517476.2 (Joules/Mol)
                                  123.67977 (Kcal/Mol)
 Warning -- explicit consideration of  14 degrees of freedom as
           vibrations may cause significant error
 Vibrational temperatures:     19.34    44.06    57.35   102.97   124.25
          (Kelvin)            155.38   181.25   312.02   338.22   380.68
                              405.28   533.04   718.96   855.75   909.27
                              982.06  1073.11  1098.19  1138.39  1241.59
                             1271.97  1328.45  1350.20  1355.56  1359.90
                             1362.98  1482.45  1494.84  1540.54  1612.53
                             1664.34  1677.70  1716.24  1772.55  1859.13
                             1903.17  1918.96  1995.44  2019.56  2063.92
                             2087.20  2092.49  2186.12  2192.33  2201.29
                             2212.05  2224.01  2229.70  2292.66  2475.43
                             4370.43  4375.25  4381.81  4422.54  4464.86
                             4475.36  4481.61  4490.25  4580.46  4619.66
                             4704.12  4719.24  4775.71

 Zero-point correction=                           0.197096 (Hartree/Particle)
 Thermal correction to Energy=                    0.209375
 Thermal correction to Enthalpy=                  0.210319
 Thermal correction to Gibbs Free Energy=         0.155378
 Sum of electronic and zero-point Energies=           -442.457674
 Sum of electronic and thermal Energies=              -442.445396
 Sum of electronic and thermal Enthalpies=            -442.444451
 Sum of electronic and thermal Free Energies=         -442.499392

                     E (Thermal)             CV                S
                      KCal/Mol        Cal/Mol-Kelvin    Cal/Mol-Kelvin
 Total                  131.385             41.355            115.633
 Electronic               0.000              0.000              0.000
 Translational            0.889              2.981             40.702
 Rotational               0.889              2.981             30.076
 Vibrational            129.607             35.393             44.855
 Vibration     1          0.593              1.987              7.423
 Vibration     2          0.594              1.984              5.789
 Vibration     3          0.594              1.981              5.266
 Vibration     4          0.598              1.968              4.110
 Vibration     5          0.601              1.959              3.741
 Vibration     6          0.606              1.943              3.305
 Vibration     7          0.611              1.927              3.007
 Vibration     8          0.646              1.815              1.985
 Vibration     9          0.655              1.787              1.840
 Vibration    10          0.671              1.738              1.631
 Vibration    11          0.681              1.708              1.523
 Vibration    12          0.742              1.533              1.078
 Vibration    13          0.855              1.251              0.659
 Vibration    14          0.952              1.043              0.459

 Optimization completed.
    -- Stationary point found.
 Normal termination of Gaussian 16 at Sun Dec 13 16:26:49 2020.

 ----------------------------------------------------------------------
 # B3LYP/6-311++G(d,p) empiricaldispersion=gd3bj scf=xqc pop=npa geom=c
 heck
 ----------------------------------------------------------------------

 --------------------------------------
 CID_143794273_JID_765_Energie_neutraal
 --------------------------------------
 Structure from the checkpoint file:  "JID_765.chk"
 Charge =  0 Multiplicity = 1

 SCF Done:  E(RB3LYP) =  -442.780879453     A.U. after   13 cycles
 Normal termination of Gaussian 16 at Sun Dec 13 16:28:04 2020.

 ----------------------------------------------------------------------
 # B3LYP/6-311++G(d,p) empiricaldispersion=gd3bj scf=xqc pop=npa geom=c
 heck
 ----------------------------------------------------------------------

 ------------------------------------
 CID_143794273_JID_765_Energie_kation
 ------------------------------------
 Structure from the checkpoint file:  "JID_765.chk"
 Charge =  1 Multiplicity = 2

 SCF Done:  E(UB3LYP) =  -442.463480524     A.U. after   19 cycles
 Normal termination of Gaussian 16 at Sun Dec 13 16:30:24 2020.
 Gaussian 16:  ES64L-G16RevA.03 25-Dec-2016

 ----------------------------------------------------------------------
 # B3LYP/6-311++G(d,p) empiricaldispersion=gd3bj scf=xqc pop=npa geom=c
 heck
 ----------------------------------------------------------------------

 -----------------------------------
 CID_143794273_JID_765_Energie_anion
 -----------------------------------
 Structure from the checkpoint file:  "JID_765.chk"
 Charge = -1 Multiplicity = 2

                         Standard orientation:
 ---------------------------------------------------------------------
 Center     Atomic      Atomic             Coordinates (Angstroms)
 Number     Number       Type             X           Y           Z
 ---------------------------------------------------------------------
      1          6           0       -3.117551    0.147847   -0.222451
      2          6           0       -2.226589   -0.868449    0.495846
      3          6           0       -1.471346   -1.779888   -0.474740
      4          6           0       -0.268256    2.553484    0.382184
      5          6           0        0.439655    1.864939   -0.521570
      6          6           0        1.150730    0.632779   -0.253625
      7          7           0        1.838190   -0.085348   -1.102010
      8          6           0        2.301703   -1.161542   -0.362041
      9          6           0        1.867177   -1.045030    0.919246
     10          8           0        1.127770    0.104165    1.008156
     11          1           0       -2.519764    0.798224   -0.871048
     12          1           0       -3.652797    0.787801    0.488828
     13          1           0       -3.864932   -0.355061   -0.848718
     14          1           0       -1.505030   -0.337373    1.128587
     15          1           0       -2.839132   -1.480161    1.172208
     16          1           0       -0.834453   -1.196849   -1.149599
     17          1           0       -0.826816   -2.488589    0.057105
     18          1           0       -2.167683   -2.358785   -1.094146
     19          1           0       -0.355969    2.220634    1.411600
     20          1           0       -0.781102    3.469695    0.110009
     21          1           0        0.523999    2.199712   -1.551103
     22          1           0        2.908420   -1.937743   -0.805376
     23          1           0        1.972636   -1.622227    1.823380
 ---------------------------------------------------------------------

 SCF Done:  E(UB3LYP) =  -442.775835571     A.U. after   33 cycles
 SCF Done:  E(UB3LYP) =  -442.775835571     a.u. after    1 cycles

 The electronic state is 2-A.
 Alpha  occ. eigenvalues --  -19.02803 -14.14000 -10.08478 -10.06899 -10.04873
 Alpha  occ. eigenvalues --  -10.03874 -10.03618 -10.02709 -10.00914  -9.99405
 Alpha  occ. eigenvalues --   -0.96902  -0.75891  -0.65532  -0.64365  -0.58042
 Alpha  occ. eigenvalues --   -0.55641  -0.47262  -0.46560  -0.46004  -0.40447
 Alpha  occ. eigenvalues --   -0.36837  -0.33639  -0.31634  -0.31093  -0.30613
 Alpha  occ. eigenvalues --   -0.29812  -0.27530  -0.25620  -0.25536  -0.24045
 Alpha  occ. eigenvalues --   -0.21578  -0.21371  -0.20871  -0.20423  -0.17278
 Alpha  occ. eigenvalues --   -0.15038  -0.13541  -0.08052   0.06088
 Alpha virt. eigenvalues --    0.08084   0.09205   0.10191   0.10256   0.11340
 Alpha virt. eigenvalues --    0.11509   0.12701   0.12783   0.13655   0.14613
 Alpha virt. eigenvalues --    0.15592   0.16120   0.16877   0.17264   0.17804

  Beta  occ. eigenvalues --  -19.02565 -14.13799 -10.08285 -10.06709 -10.04942
  Beta  occ. eigenvalues --  -10.03868 -10.03616 -10.02693 -10.00812  -9.98968
  Beta  occ. eigenvalues --   -0.96515  -0.75505  -0.65514  -0.63812  -0.57553
  Beta  occ. eigenvalues --   -0.55619  -0.47007  -0.45994  -0.45787  -0.40106
  Beta  occ. eigenvalues --   -0.36560  -0.33470  -0.31421  -0.30417  -0.30369
  Beta  occ. eigenvalues --   -0.29549  -0.27512  -0.25586  -0.25342  -0.23782
  Beta  occ. eigenvalues --   -0.21555  -0.21347  -0.20647  -0.20311  -0.16014
  Beta  occ. eigenvalues --   -0.13560  -0.13261  -0.06325
  Beta virt. eigenvalues --    0.08249   0.09283   0.10189   0.10305   0.11100
  Beta virt. eigenvalues --    0.11484   0.12141   0.12658   0.12924   0.13600
  Beta virt. eigenvalues --    0.14792   0.15884   0.16128   0.16795   0.17116

 Mulliken charges and spin densities:
               1          2
     1  C   -0.489123  -0.088377
     2  C    0.066422  -0.021217
     3  C   -0.069325  -0.376594
     4  C   -0.680400   0.297723
     5  C    0.100972   0.179693
     6  C   -0.431234  -0.034826
     7  N   -0.093739   0.094354
     8  C    0.096522  -0.239951
     9  C   -0.070091   0.233951
    10  O   -0.020447   0.041650
    11  H    0.179967  -0.001660
    12  H    0.109568  -0.010503
    13  H    0.039955   0.058223
    14  H    0.163812  -0.061775
    15  H   -0.197496   0.308064
    16  H    0.118885   0.013523
    17  H   -0.088721   0.205522
    18  H    0.014053   0.101073
    19  H    0.031571   0.051403
    20  H    0.072152  -0.001377
    21  H    0.128872   0.017292
    22  H    0.091211   0.028991
    23  H   -0.073388   0.204819
 Sum of Mulliken charges =  -1.00000   1.00000

 Dipole moment (field-independent basis, Debye):
    X=             -1.2247    Y=             -1.2998    Z=              0.1283  Tot=              1.7905
 Quadrupole moment (field-independent basis, Debye-Ang):
   XX=            -88.7203   YY=            -92.1109   ZZ=            -77.8815
   XY=             -6.6361   XZ=              3.0359   YZ=             -0.8756

 Summary of Natural Population Analysis:

                                       Natural Population
                Natural  -----------------------------------------------
    Atom  No    Charge         Core      Valence    Rydberg      Total
 -----------------------------------------------------------------------
      C    1   -0.28704      0.99967     2.28138    0.00600     3.28704
      C    2   -0.19668      0.99966     2.18891    0.00812     3.19668
      C    3   -0.28990      0.99967     2.28356    0.00667     3.28990
      C    4   -0.09585      0.99960     2.08787    0.00838     3.09585
      C    5   -0.12915      0.99953     2.11950    0.01012     3.12915
      C    6    0.27841      0.99956     1.70214    0.01989     2.72159
      N    7   -0.24514      0.99969     2.73427    0.01118     3.74514
      C    8   -0.07255      0.99958     2.06012    0.01286     3.07255
      C    9    0.05891      0.99952     1.92581    0.01576     2.94109
      O   10   -0.22603      0.99986     3.21748    0.00868     4.22603
      H   11    0.10612      0.00000     0.39287    0.00101     0.39388
      H   12    0.09310      0.00000     0.40615    0.00075     0.40690
      H   13    0.08625      0.00000     0.41287    0.00088     0.41375
      H   14    0.10504      0.00000     0.39343    0.00153     0.39496
      H   15    0.08358      0.00000     0.41518    0.00125     0.41642
      H   16    0.10663      0.00000     0.39203    0.00134     0.39337
      H   17    0.10062      0.00000     0.39792    0.00146     0.39938
      H   18    0.08617      0.00000     0.41293    0.00090     0.41383
      H   19    0.08445      0.00000     0.41396    0.00158     0.41555
      H   20    0.07936      0.00000     0.41948    0.00116     0.42064
      H   21    0.09475      0.00000     0.40382    0.00143     0.40525
      H   22    0.09079      0.00000     0.40812    0.00109     0.40921
      H   23    0.08815      0.00000     0.41080    0.00104     0.41185
 =======================================================================
   * Total *   -0.00000      9.99633    27.88059    0.12307    38.00000

 Normal termination of Gaussian 16 at Sun Dec 13 16:34:23 2020.
