 Gaussian 16, Revision A.03,

 -----------------------------------------------------------
 # opt freq B3LYP/6-31G(d) empiricaldispersion=gd3bj scf=xqc
 -----------------------------------------------------------

 -----------------------------
 CID_137356549_JID_22_neutraal
 -----------------------------
 Symbolic Z-matrix:
 Charge =  0 Multiplicity = 1

 SCF Done:  E(RB3LYP) =  -765.642550633     A.U. after   14 cycles
 SCF Done:  E(RB3LYP) =  -765.644893788     A.U. after   12 cycles
 SCF Done:  E(RB3LYP) =  -765.645225973     A.U. after   11 cycles
 SCF Done:  E(RB3LYP) =  -765.645257602     A.U. after   11 cycles
 SCF Done:  E(RB3LYP) =  -765.645287527     A.U. after    9 cycles
 SCF Done:  E(RB3LYP) =  -765.645299906     A.U. after   10 cycles
 SCF Done:  E(RB3LYP) =  -765.645306951     A.U. after   10 cycles
 SCF Done:  E(RB3LYP) =  -765.645315234     A.U. after   10 cycles
 SCF Done:  E(RB3LYP) =  -765.645320355     A.U. after   10 cycles
 SCF Done:  E(RB3LYP) =  -765.645320654     A.U. after    7 cycles
 Optimization completed.
    -- Stationary point found.
 Normal termination of Gaussian 16 at Tue Dec  8 10:15:20 2020.

 --------------------------------------------------------------------
 #N Geom=AllCheck Guess=TCheck SCRF=Check GenChk RB3LYP/6-31G(d) Freq
 --------------------------------------------------------------------

 Structure from the checkpoint file:  "JID_22.chk"
 -----------------------------
 CID_137356549_JID_22_neutraal
 -----------------------------
 Charge =  0 Multiplicity = 1

 SCF Done:  E(RB3LYP) =  -765.645320654     A.U. after    1 cycles

  Exact polarizability: 113.233  12.485  95.868  -1.434   2.393  95.159
 Approx polarizability: 160.044  23.631 131.113  -4.655   5.214 158.823

                      1                      2                      3
                      A                      A                      A
 Frequencies --     37.2295                58.6893                99.2370
 Red. masses --      3.5044                 3.0650                 3.4901
 Frc consts  --      0.0029                 0.0062                 0.0203
 IR Inten    --      0.1758                 0.1319                 0.0383

                      4                      5                      6
                      A                      A                      A
 Frequencies --    125.2756               159.7117               200.2632
 Red. masses --      2.6974                 1.2404                 1.9919
 Frc consts  --      0.0249                 0.0186                 0.0471
 IR Inten    --      0.5261                13.3461                 5.6781

                      7                      8                      9
                      A                      A                      A
 Frequencies --    225.7687               260.8000               307.8510
 Red. masses --      2.7259                 1.6560                 2.1555
 Frc consts  --      0.0819                 0.0664                 0.1204
 IR Inten    --      0.7875                 1.2604                 3.0645

                     10                     11                     12
                      A                      A                      A
 Frequencies --    348.2768               431.4893               498.3266
 Red. masses --      5.3430                 2.6284                 2.9419
 Frc consts  --      0.3818                 0.2883                 0.4304
 IR Inten    --      2.7532                 0.6174                 3.1520

                     13                     14                     15
                      A                      A                      A
 Frequencies --    618.0595               622.8125               648.0356
 Red. masses --      2.9378                 3.3911                 3.4404
 Frc consts  --      0.6612                 0.7750                 0.8512
 IR Inten    --      2.0963                 0.2310                15.6429

                     16                     17                     18
                      A                      A                      A
 Frequencies --    664.7666               727.5541               746.7736
 Red. masses --      1.3236                 1.1826                 3.2612
 Frc consts  --      0.3446                 0.3688                 1.0715
 IR Inten    --      0.0196                90.6519                56.8718

                     19                     20                     21
                      A                      A                      A
 Frequencies --    779.8985               810.2559               865.3864
 Red. masses --      1.2256                 1.2522                 1.7616
 Frc consts  --      0.4392                 0.4843                 0.7773
 IR Inten    --     15.7089                 0.7161                 7.0816

                     22                     23                     24
                      A                      A                      A
 Frequencies --    867.4452               893.1345               906.1439
 Red. masses --      1.4668                 4.5706                 1.5404
 Frc consts  --      0.6503                 2.1481                 0.7452
 IR Inten    --      3.7971                 0.3614                 5.2169

                     25                     26                     27
                      A                      A                      A
 Frequencies --    944.2736               989.2674              1012.8153
 Red. masses --      1.6869                 1.7870                 1.6611
 Frc consts  --      0.8862                 1.0304                 1.0039
 IR Inten    --     12.3084                 4.0638                 2.6815

                     28                     29                     30
                      A                      A                      A
 Frequencies --   1076.3887              1094.1879              1100.5600
 Red. masses --      2.0881                 2.0116                 1.4129
 Frc consts  --      1.4254                 1.4190                 1.0083
 IR Inten    --      3.0613                 2.7012                11.7350

                     31                     32                     33
                      A                      A                      A
 Frequencies --   1115.7834              1139.6440              1147.1712
 Red. masses --      1.3631                 1.8164                 1.8684
 Frc consts  --      0.9999                 1.3899                 1.4487
 IR Inten    --     36.3547                11.5642                 6.1787

                     34                     35                     36
                      A                      A                      A
 Frequencies --   1247.6115              1278.8442              1296.0001
 Red. masses --      1.4554                 1.3056                 1.5673
 Frc consts  --      1.3347                 1.2580                 1.5510
 IR Inten    --      2.2170                15.7103                19.0762

                     37                     38                     39
                      A                      A                      A
 Frequencies --   1317.9081              1325.3234              1356.0331
 Red. masses --      1.7873                 1.4047                 1.7501
 Frc consts  --      1.8290                 1.4537                 1.8961
 IR Inten    --     62.5143                 8.8861                35.3546

                     40                     41                     42
                      A                      A                      A
 Frequencies --   1393.5057              1400.6010              1442.8375
 Red. masses --      1.3972                 1.3933                 1.4456
 Frc consts  --      1.5986                 1.6103                 1.7731
 IR Inten    --      2.6785                 7.1281                 4.5149

                     43                     44                     45
                      A                      A                      A
 Frequencies --   1445.4142              1455.6453              1514.0061
 Red. masses --      3.3157                 1.9921                 1.1075
 Frc consts  --      4.0814                 2.4870                 1.4957
 IR Inten    --      3.7342                19.4245                 2.2098

                     46                     47                     48
                      A                      A                      A
 Frequencies --   1520.7545              1531.9938              1534.5802
 Red. masses --      1.0645                 1.0831                 2.6523
 Frc consts  --      1.4504                 1.4977                 3.6800
 IR Inten    --      1.1388                 4.2059                64.2410

                     49                     50                     51
                      A                      A                      A
 Frequencies --   1541.5690              1584.0093              2681.3161
 Red. masses --      1.0539                 4.1358                 1.0384
 Frc consts  --      1.4756                 6.1140                 4.3987
 IR Inten    --      7.5091                 1.2649                14.4096

                     52                     53                     54
                      A                      A                      A
 Frequencies --   3045.2821              3048.0571              3058.3200
 Red. masses --      1.0433                 1.0590                 1.0632
 Frc consts  --      5.7005                 5.7968                 5.8590
 IR Inten    --     20.9040                18.1359                27.9044

                     55                     56                     57
                      A                      A                      A
 Frequencies --   3086.0631              3099.6721              3116.2293
 Red. masses --      1.0998                 1.0972                 1.0999
 Frc consts  --      6.1712                 6.2110                 6.2930
 IR Inten    --      1.5124                 4.1516                47.0821

                     58                     59                     60
                      A                      A                      A
 Frequencies --   3119.6675              3124.7107              3251.7415
 Red. masses --      1.0969                 1.0939                 1.0879
 Frc consts  --      6.2898                 6.2930                 6.7772
 IR Inten    --     49.0168                19.5089                 3.4722

                     61                     62                     63
                      A                      A                      A
 Frequencies --   3262.2594              3276.8618              3284.6431
 Red. masses --      1.0923                 1.1006                 1.1048
 Frc consts  --      6.8490                 6.9631                 7.0225
 IR Inten    --      6.5612                 4.6325                 1.2375

 - Thermochemistry -
 -------------------
 Temperature   298.150 Kelvin.  Pressure   1.00000 Atm.
 Atom     1 has atomic number  6 and mass  12.00000

 Molecular mass:   155.07687 amu.
 Principal axes and moments of inertia in atomic units:
                           1         2         3
     Eigenvalues --  1468.517601825.011522669.35254
           X            0.99316  -0.11679  -0.00025
           Y            0.11676   0.99283   0.02577
           Z           -0.00276  -0.02562   0.99967
 This molecule is an asymmetric top.
 Rotational symmetry number  1.
 Warning -- assumption of classical behavior for rotation
           may cause significant error
 Rotational temperatures (Kelvin)      0.05898     0.04746     0.03245
 Rotational constants (GHZ):           1.22895     0.98889     0.67610
 Zero-point vibrational energy     515379.6 (Joules/Mol)
                                  123.17868 (Kcal/Mol)
 Warning -- explicit consideration of  13 degrees of freedom as
           vibrations may cause significant error
 Vibrational temperatures:     53.56    84.44   142.78   180.24   229.79
          (Kelvin)            288.13   324.83   375.23   442.93   501.09
                              620.82   716.98   889.25   896.09   932.38
                              956.45  1046.79  1074.44  1122.10  1165.78
                             1245.10  1248.06  1285.02  1303.74  1358.60
                             1423.34  1457.22  1548.68  1574.29  1583.46
                             1605.36  1639.69  1650.52  1795.03  1839.97
                             1864.66  1896.18  1906.84  1951.03  2004.94
                             2015.15  2075.92  2079.63  2094.35  2178.32
                             2188.03  2204.20  2207.92  2217.97  2279.04
                             3857.82  4381.48  4385.47  4400.24  4440.16
                             4459.74  4483.56  4488.51  4495.76  4678.53
                             4693.66  4714.67  4725.87

 Zero-point correction=                           0.196298 (Hartree/Particle)
 Thermal correction to Energy=                    0.207228
 Thermal correction to Enthalpy=                  0.208172
 Thermal correction to Gibbs Free Energy=         0.158685
 Sum of electronic and zero-point Energies=           -765.449023
 Sum of electronic and thermal Energies=              -765.438093
 Sum of electronic and thermal Enthalpies=            -765.437148
 Sum of electronic and thermal Free Energies=         -765.486635

                     E (Thermal)             CV                S
                      KCal/Mol        Cal/Mol-Kelvin    Cal/Mol-Kelvin
 Total                  130.038             40.287            104.154
 Electronic               0.000              0.000              0.000
 Translational            0.889              2.981             41.026
 Rotational               0.889              2.981             30.349
 Vibrational            128.260             34.325             32.779
 Vibration     1          0.594              1.982              5.401
 Vibration     2          0.596              1.974              4.501
 Vibration     3          0.604              1.950              3.469
 Vibration     4          0.610              1.928              3.017
 Vibration     5          0.622              1.892              2.553
 Vibration     6          0.638              1.840              2.131
 Vibration     7          0.650              1.802              1.912
 Vibration     8          0.669              1.744              1.656
 Vibration     9          0.698              1.659              1.374
 Vibration    10          0.726              1.579              1.174
 Vibration    11          0.793              1.402              0.854
 Vibration    12          0.854              1.254              0.662
 Vibration    13          0.978              0.994              0.420

 Optimization completed.
    -- Stationary point found.
 Normal termination of Gaussian 16 at Tue Dec  8 10:19:30 2020.

 ----------------------------------------------------------------------
 # B3LYP/6-311++G(d,p) empiricaldispersion=gd3bj scf=xqc pop=npa geom=c
 heck
 ----------------------------------------------------------------------

 -------------------------------------
 CID_137356549_JID_22_Energie_neutraal
 -------------------------------------
 Structure from the checkpoint file:  "JID_22.chk"
 Charge =  0 Multiplicity = 1

 SCF Done:  E(RB3LYP) =  -765.777782024     A.U. after   15 cycles
 Normal termination of Gaussian 16 at Tue Dec  8 10:21:18 2020.

 ----------------------------------------------------------------------
 # B3LYP/6-311++G(d,p) empiricaldispersion=gd3bj scf=xqc pop=npa geom=c
 heck
 ----------------------------------------------------------------------

 -----------------------------------
 CID_137356549_JID_22_Energie_kation
 -----------------------------------
 Structure from the checkpoint file:  "JID_22.chk"
 Charge =  1 Multiplicity = 2

 SCF Done:  E(UB3LYP) =  -765.480734281     A.U. after   25 cycles
 Normal termination of Gaussian 16 at Tue Dec  8 10:24:55 2020.
 Gaussian 16:  ES64L-G16RevA.03 25-Dec-2016

 ----------------------------------------------------------------------
 # B3LYP/6-311++G(d,p) empiricaldispersion=gd3bj scf=xqc pop=npa geom=c
 heck
 ----------------------------------------------------------------------

 ----------------------------------
 CID_137356549_JID_22_Energie_anion
 ----------------------------------
 Structure from the checkpoint file:  "JID_22.chk"
 Charge = -1 Multiplicity = 2

                         Standard orientation:
 ---------------------------------------------------------------------
 Center     Atomic      Atomic             Coordinates (Angstroms)
 Number     Number       Type             X           Y           Z
 ---------------------------------------------------------------------
      1          6           0        2.002654   -2.186869   -0.710334
      2          6           0        1.693101   -1.594169    0.667376
      3          6           0        1.671870   -0.058303    0.695003
      4          6           0        0.664791    0.565474   -0.279211
      5          7           0       -0.670620    0.042641   -0.105204
      6          6           0       -1.506144   -0.343192   -1.133422
      7          6           0       -2.713731   -0.719952   -0.592131
      8          6           0       -2.615999   -0.545772    0.820002
      9          6           0       -1.351966   -0.071931    1.090567
     10         16           0        0.731561    2.425658   -0.250505
     11          1           0        1.195898   -1.986537   -1.423833
     12          1           0        2.117570   -3.274150   -0.649608
     13          1           0        2.932188   -1.775116   -1.123281
     14          1           0        0.729800   -1.977052    1.022537
     15          1           0        2.449327   -1.929689    1.388382
     16          1           0        1.454547    0.289003    1.712772
     17          1           0        2.659912    0.339713    0.439247
     18          1           0        0.960948    0.334250   -1.304594
     19          1           0       -1.162592   -0.305996   -2.157212
     20          1           0       -3.569180   -1.084864   -1.143661
     21          1           0       -3.382761   -0.753163    1.553944
     22          1           0       -0.881809    0.191568    2.026033
     23          1           0        0.418044    2.551303    1.056685
 ---------------------------------------------------------------------

 SCF Done:  E(UB3LYP) =  -765.762914652     A.U. after   31 cycles

 The electronic state is 2-A.
 Alpha  occ. eigenvalues --  -88.73380 -14.26043 -10.14323 -10.08964 -10.08677
 Alpha  occ. eigenvalues --  -10.06832 -10.06032 -10.05815 -10.05767 -10.05145
 Alpha  occ. eigenvalues --   -7.82093  -5.78461  -5.78131  -5.77473  -0.88825
 Alpha  occ. eigenvalues --   -0.73259  -0.67377  -0.64078  -0.62440  -0.58712
 Alpha  occ. eigenvalues --   -0.53886  -0.48517  -0.47704  -0.44722  -0.42173
 Alpha  occ. eigenvalues --   -0.36927  -0.35508  -0.33253  -0.32968  -0.31423
 Alpha  occ. eigenvalues --   -0.30469  -0.29523  -0.28119  -0.27780  -0.27018
 Alpha  occ. eigenvalues --   -0.25626  -0.23240  -0.22855  -0.21948  -0.14761
 Alpha  occ. eigenvalues --   -0.13233  -0.11778   0.04800
 Alpha virt. eigenvalues --    0.07244   0.07584   0.08003   0.09396   0.09461
 Alpha virt. eigenvalues --    0.09696   0.10251   0.11168   0.12023   0.12497
 Alpha virt. eigenvalues --    0.12864   0.13736   0.13999   0.14704   0.15320

  Beta  occ. eigenvalues --  -88.73355 -14.26046 -10.14299 -10.08948 -10.08646
  Beta  occ. eigenvalues --  -10.06799 -10.06014 -10.05812 -10.05762 -10.05104
  Beta  occ. eigenvalues --   -7.82068  -5.78392  -5.78118  -5.77456  -0.88813
  Beta  occ. eigenvalues --   -0.73220  -0.67336  -0.64006  -0.62399  -0.58615
  Beta  occ. eigenvalues --   -0.53804  -0.48444  -0.47681  -0.44653  -0.42089
  Beta  occ. eigenvalues --   -0.36861  -0.35452  -0.33201  -0.32921  -0.31382
  Beta  occ. eigenvalues --   -0.30417  -0.29464  -0.28087  -0.27736  -0.26927
  Beta  occ. eigenvalues --   -0.25537  -0.23179  -0.22806  -0.21870  -0.14723
  Beta  occ. eigenvalues --   -0.13191  -0.11747
  Beta virt. eigenvalues --    0.07227   0.08059   0.08362   0.08823   0.09575
  Beta virt. eigenvalues --    0.09829   0.10433   0.10862   0.11746   0.12381
  Beta virt. eigenvalues --    0.12945   0.13338   0.14185   0.14337   0.15039

 Mulliken charges and spin densities:
               1          2
     1  C    1.185772  -1.761583
     2  C   -0.809097   0.539559
     3  C    0.911838  -1.195113
     4  C   -0.546039   0.662030
     5  N    0.407852  -0.029240
     6  C    0.118982  -0.425810
     7  C   -0.064679  -0.185509
     8  C    0.608782  -0.852124
     9  C   -0.097725  -0.201860
    10  S    0.528308  -0.716954
    11  H   -0.231066   0.368807
    12  H   -0.465064   0.608125
    13  H   -0.141618   0.277718
    14  H    0.283123  -0.136731
    15  H   -0.524037   0.696714
    16  H   -0.323393   0.484022
    17  H   -0.453104   0.631211
    18  H   -0.323258   0.579620
    19  H   -0.211868   0.338431
    20  H   -0.001522   0.136636
    21  H   -0.057340   0.203260
    22  H   -0.418432   0.552939
    23  H   -0.376416   0.425851
 Sum of Mulliken charges =  -1.00000   1.00000

 Dipole moment (field-independent basis, Debye):
    X=             -4.3844    Y=              0.8852    Z=             -1.0528  Tot=              4.5951
 Quadrupole moment (field-independent basis, Debye-Ang):
   XX=           -119.0104   YY=           -112.9988   ZZ=           -107.3140
   XY=              7.5245   XZ=             -0.5046   YZ=             -2.9524

 Summary of Natural Population Analysis:

                                       Natural Population
                Natural  -----------------------------------------------
    Atom  No    Charge         Core      Valence    Rydberg      Total
 -----------------------------------------------------------------------
      C    1   -0.28773      0.99967     2.28263    0.00543     3.28773
      C    2   -0.19306      0.99964     2.18473    0.00869     3.19306
      C    3   -0.19781      0.99959     2.18747    0.01075     3.19781
      C    4   -0.04877      0.99953     2.03253    0.01670     3.04877
      N    5   -0.21560      0.99963     2.70277    0.01320     3.71560
      C    6   -0.01264      0.99955     2.00100    0.01209     3.01264
      C    7   -0.14937      0.99957     2.14067    0.00913     3.14937
      C    8   -0.14559      0.99957     2.13704    0.00898     3.14559
      C    9   -0.01725      0.99955     2.00467    0.01303     3.01725
      S   10   -0.02048      4.99965     3.00761    0.01322     8.02048
      H   11    0.09503      0.00000     0.40338    0.00159     0.40497
      H   12    0.10087      0.00000     0.39797    0.00116     0.39913
      H   13    0.09749      0.00000     0.40095    0.00156     0.40251
      H   14    0.09827      0.00000     0.40017    0.00155     0.40173
      H   15    0.09937      0.00000     0.39912    0.00150     0.40063
      H   16    0.10369      0.00000     0.39358    0.00273     0.39631
      H   17    0.10792      0.00000     0.39009    0.00199     0.39208
      H   18    0.10911      0.00000     0.38923    0.00166     0.39089
      H   19    0.10156      0.00000     0.39722    0.00121     0.39844
      H   20    0.10204      0.00000     0.39729    0.00067     0.39796
      H   21    0.10230      0.00000     0.39700    0.00070     0.39770
      H   22    0.10613      0.00000     0.39202    0.00185     0.39387
      H   23    0.06452      0.00000     0.43191    0.00356     0.43548
 =======================================================================
   * Total *    0.00000     13.99596    27.87106    0.13298    42.00000

 Normal termination of Gaussian 16 at Tue Dec  8 10:29:17 2020.
