 Gaussian 16, Revision A.03,

 -----------------------------------------------------------
 # opt freq B3LYP/6-31G(d) empiricaldispersion=gd3bj scf=xqc
 -----------------------------------------------------------

 ------------------------------
 CID_61449426_JID_9124_neutraal
 ------------------------------
 Symbolic Z-matrix:
 Charge =  0 Multiplicity = 1

 SCF Done:  E(RB3LYP) =  -987.126580112     A.U. after   15 cycles
 SCF Done:  E(RB3LYP) =  -987.126835919     A.U. after   14 cycles
 SCF Done:  E(RB3LYP) =  -987.137550518     A.U. after   13 cycles
 SCF Done:  E(RB3LYP) =  -987.138052302     A.U. after   13 cycles
 SCF Done:  E(RB3LYP) =  -987.140947293     A.U. after   13 cycles
 SCF Done:  E(RB3LYP) =  -987.141928875     A.U. after   13 cycles
 SCF Done:  E(RB3LYP) =  -987.143352045     A.U. after   13 cycles
 SCF Done:  E(RB3LYP) =  -987.143398669     A.U. after   13 cycles
 SCF Done:  E(RB3LYP) =  -987.145280522     A.U. after   13 cycles
 SCF Done:  E(RB3LYP) =  -987.145684315     A.U. after   12 cycles
 SCF Done:  E(RB3LYP) =  -987.147304954     A.U. after    8 cycles
 SCF Done:  E(RB3LYP) =  -987.147305794     A.U. after    8 cycles
 SCF Done:  E(RB3LYP) =  -987.147306254     A.U. after    8 cycles
 SCF Done:  E(RB3LYP) =  -987.147306364     A.U. after    7 cycles
 Optimization completed.
    -- Stationary point found.
 Normal termination of Gaussian 16 at Sat Dec 12 09:55:26 2020.

 --------------------------------------------------------------------
 #N Geom=AllCheck Guess=TCheck SCRF=Check GenChk RB3LYP/6-31G(d) Freq
 --------------------------------------------------------------------

 Structure from the checkpoint file:  "JID_9124.chk"
 ------------------------------
 CID_61449426_JID_9124_neutraal
 ------------------------------
 Charge =  0 Multiplicity = 1

 SCF Done:  E(RB3LYP) =  -987.147306364     A.U. after    1 cycles

  Exact polarizability: 156.847   1.275 148.421  -0.080   1.379 118.461
 Approx polarizability: 207.265  -1.663 230.740   1.613  -0.114 181.112

                      1                      2                      3
                      A                      A                      A
 Frequencies --     34.0581                36.9618                48.9513
 Red. masses --      6.4819                 7.1220                 4.3767
 Frc consts  --      0.0044                 0.0057                 0.0062
 IR Inten    --      4.2771                 0.3744                 0.0810

                      4                      5                      6
                      A                      A                      A
 Frequencies --     59.5736                68.1725                79.9788
 Red. masses --      7.2541                 4.3021                 8.5407
 Frc consts  --      0.0152                 0.0118                 0.0322
 IR Inten    --      0.5400                 1.9317                 2.5504

                      7                      8                      9
                      A                      A                      A
 Frequencies --     89.4085                95.9816               103.8235
 Red. masses --      4.5256                 5.1370                 3.4026
 Frc consts  --      0.0213                 0.0279                 0.0216
 IR Inten    --      0.7446                 3.7289                 1.3190

                     10                     11                     12
                      A                      A                      A
 Frequencies --    124.8082               133.3937               136.8951
 Red. masses --      2.5323                 1.7756                 2.4398
 Frc consts  --      0.0232                 0.0186                 0.0269
 IR Inten    --      5.9560                 5.6764                 0.3207

                     13                     14                     15
                      A                      A                      A
 Frequencies --    156.3688               168.1886               196.4771
 Red. masses --      5.4955                 4.5910                 5.0019
 Frc consts  --      0.0792                 0.0765                 0.1138
 IR Inten    --      1.6901                 3.5503                 1.4451

                     16                     17                     18
                      A                      A                      A
 Frequencies --    229.7557               243.6522               275.4834
 Red. masses --      1.2505                 3.4987                 4.9954
 Frc consts  --      0.0389                 0.1224                 0.2234
 IR Inten    --      1.1931                 4.3658                 4.1016

                     19                     20                     21
                      A                      A                      A
 Frequencies --    289.6670               316.3414               366.1653
 Red. masses --      2.6417                 3.0050                 4.5375
 Frc consts  --      0.1306                 0.1772                 0.3584
 IR Inten    --      0.2974                 0.1365                20.1336

                     22                     23                     24
                      A                      A                      A
 Frequencies --    397.6953               422.2995               447.4241
 Red. masses --      2.1382                 5.5672                 2.7664
 Frc consts  --      0.1992                 0.5850                 0.3263
 IR Inten    --     10.3901                 5.9620                10.2293

                     25                     26                     27
                      A                      A                      A
 Frequencies --    465.9414               492.6784               510.7394
 Red. masses --      3.7859                 1.6688                 1.9917
 Frc consts  --      0.4843                 0.2387                 0.3061
 IR Inten    --     26.1422               106.8114                51.0506

                     28                     29                     30
                      A                      A                      A
 Frequencies --    518.0718               551.5538               560.1219
 Red. masses --      2.0401                 3.4201                 3.0225
 Frc consts  --      0.3226                 0.6130                 0.5587
 IR Inten    --     50.0290                47.5098                14.4393

                     31                     32                     33
                      A                      A                      A
 Frequencies --    580.5391               598.9176               622.5570
 Red. masses --      1.7778                 3.0521                 3.3816
 Frc consts  --      0.3530                 0.6450                 0.7722
 IR Inten    --    122.4430                52.6078                48.9419

                     34                     35                     36
                      A                      A                      A
 Frequencies --    676.0983               698.6147               713.5134
 Red. masses --      2.1088                 2.3479                 1.6997
 Frc consts  --      0.5680                 0.6751                 0.5098
 IR Inten    --      1.4530                18.6688                62.8685

                     37                     38                     39
                      A                      A                      A
 Frequencies --    759.3060               769.4449               780.2323
 Red. masses --      2.2641                 4.1142                 3.1469
 Frc consts  --      0.7691                 1.4351                 1.1287
 IR Inten    --     60.1092                 5.6930                15.9549

                     40                     41                     42
                      A                      A                      A
 Frequencies --    799.1239               806.3235               827.2977
 Red. masses --      1.8622                 1.9216                 2.5678
 Frc consts  --      0.7007                 0.7361                 1.0355
 IR Inten    --      1.7191                 8.6404                12.5836

                     43                     44                     45
                      A                      A                      A
 Frequencies --    845.1969               880.7395               897.6894
 Red. masses --      4.0528                 1.9051                 2.7154
 Frc consts  --      1.7058                 0.8707                 1.2892
 IR Inten    --      4.9059                67.5899                 5.2650

                     46                     47                     48
                      A                      A                      A
 Frequencies --    951.1051               983.2538              1002.9198
 Red. masses --      2.4432                 2.8833                 2.3913
 Frc consts  --      1.3022                 1.6424                 1.4171
 IR Inten    --      7.9045                 3.8374                39.2074

                     49                     50                     51
                      A                      A                      A
 Frequencies --   1012.5465              1077.3682              1086.0044
 Red. masses --      2.2774                 2.0770                 2.0601
 Frc consts  --      1.3757                 1.4204                 1.4316
 IR Inten    --     21.8185                17.1513                19.5759

                     52                     53                     54
                      A                      A                      A
 Frequencies --   1109.9709              1119.0017              1154.1968
 Red. masses --      2.2825                 1.8713                 1.2939
 Frc consts  --      1.6568                 1.3806                 1.0155
 IR Inten    --     11.2580                20.8831                12.1024

                     55                     56                     57
                      A                      A                      A
 Frequencies --   1165.5893              1176.4669              1193.1407
 Red. masses --      2.4403                 2.1308                 1.9790
 Frc consts  --      1.9534                 1.7376                 1.6599
 IR Inten    --     78.1275                17.1387               190.6883

                     58                     59                     60
                      A                      A                      A
 Frequencies --   1197.6540              1234.8360              1263.5278
 Red. masses --      2.2509                 1.2714                 2.4286
 Frc consts  --      1.9023                 1.1422                 2.2844
 IR Inten    --      3.4800                58.6448                16.8130

                     61                     62                     63
                      A                      A                      A
 Frequencies --   1269.9859              1317.0866              1341.1778
 Red. masses --      1.4503                 1.4608                 1.5854
 Frc consts  --      1.3782                 1.4930                 1.6802
 IR Inten    --     36.3291               122.6644                28.0330

                     64                     65                     66
                      A                      A                      A
 Frequencies --   1356.6024              1358.4350              1389.6392
 Red. masses --      1.3855                 1.4379                 2.1267
 Frc consts  --      1.5023                 1.5634                 2.4197
 IR Inten    --     77.6929                 8.2308               113.6175

                     67                     68                     69
                      A                      A                      A
 Frequencies --   1393.3029              1402.4486              1414.5092
 Red. masses --      1.7052                 2.5717                 1.2996
 Frc consts  --      1.9503                 2.9802                 1.5320
 IR Inten    --     72.2457                38.0032                13.8914

                     70                     71                     72
                      A                      A                      A
 Frequencies --   1418.6885              1439.2376              1465.0699
 Red. masses --      2.0178                 1.2783                 1.5900
 Frc consts  --      2.3928                 1.5601                 2.0108
 IR Inten    --     30.9067                20.6618               148.4371

                     73                     74                     75
                      A                      A                      A
 Frequencies --   1488.7297              1491.3812              1495.8569
 Red. masses --      1.1998                 1.2624                 1.3943
 Frc consts  --      1.5667                 1.6543                 1.8382
 IR Inten    --     82.7818                 9.5884                17.8881

                     76                     77                     78
                      A                      A                      A
 Frequencies --   1505.8016              1509.8598              1515.8227
 Red. masses --      1.1423                 1.3354                 1.2606
 Frc consts  --      1.5260                 1.7936                 1.7065
 IR Inten    --     20.1424                 2.6398                35.5018

                     79                     80                     81
                      A                      A                      A
 Frequencies --   1523.0291              1527.4811              1537.7985
 Red. masses --      1.0697                 1.1317                 1.0551
 Frc consts  --      1.4619                 1.5558                 1.4701
 IR Inten    --      3.2777                44.2793                 6.5590

                     82                     83                     84
                      A                      A                      A
 Frequencies --   1554.3610              1679.2885              1735.6595
 Red. masses --      1.1004                 1.2520                 5.5701
 Frc consts  --      1.5663                 2.0803                 9.8866
 IR Inten    --     35.2545               169.1477               317.0581

                     85                     86                     87
                      A                      A                      A
 Frequencies --   1781.0909              1804.4455              1863.3808
 Red. masses --      7.5854                 8.6165                10.1196
 Frc consts  --     14.1775                16.5298                20.7022
 IR Inten    --    312.2194               303.5446               264.5649

                     88                     89                     90
                      A                      A                      A
 Frequencies --   3041.5988              3060.0375              3073.5361
 Red. masses --      1.0536                 1.0375                 1.0649
 Frc consts  --      5.7430                 5.7237                 5.9271
 IR Inten    --     46.1215                16.2729                21.0395

                     91                     92                     93
                      A                      A                      A
 Frequencies --   3077.7276              3081.1883              3119.7109
 Red. masses --      1.0641                 1.0650                 1.1018
 Frc consts  --      5.9385                 5.9571                 6.3182
 IR Inten    --     19.0015                32.1051                17.9726

                     94                     95                     96
                      A                      A                      A
 Frequencies --   3126.5916              3139.7246              3141.6772
 Red. masses --      1.0902                 1.0999                 1.0889
 Frc consts  --      6.2793                 6.3881                 6.3323
 IR Inten    --     18.7724                15.6755                 1.1404

                     97                     98                     99
                      A                      A                      A
 Frequencies --   3143.2661              3149.9810              3158.4009
 Red. masses --      1.0944                 1.1001                 1.1032
 Frc consts  --      6.3706                 6.4312                 6.4839
 IR Inten    --      2.7766                 7.6826                16.5604

                    100                    101                    102
                      A                      A                      A
 Frequencies --   3208.5020              3465.8208              3546.1284
 Red. masses --      1.0953                 1.0592                 1.0738
 Frc consts  --      6.6433                 7.4963                 7.9555
 IR Inten    --     10.8041               245.3622                34.0483

                    103                    104                    105
                      A                      A                      A
 Frequencies --   3569.9521              3662.5973              3692.1435
 Red. masses --      1.0752                 1.0944                 1.0642
 Frc consts  --      8.0734                 8.6497                 8.5473
 IR Inten    --     25.7949                90.7952                76.9598

 - Thermochemistry -
 -------------------
 Temperature   298.150 Kelvin.  Pressure   1.00000 Atm.
 Atom     1 has atomic number  6 and mass  12.00000

 Molecular mass:   274.12772 amu.
 Principal axes and moments of inertia in atomic units:
                           1         2         3
     Eigenvalues --  3656.771186373.489838021.83024
           X            0.99972   0.02292  -0.00570
           Y           -0.02279   0.99949   0.02218
           Z            0.00620  -0.02204   0.99974
 This molecule is an asymmetric top.
 Rotational symmetry number  1.
 Warning -- assumption of classical behavior for rotation
           may cause significant error
 Rotational temperatures (Kelvin)      0.02369     0.01359     0.01080
 Rotational constants (GHZ):           0.49353     0.28316     0.22498
 Zero-point vibrational energy     805341.4 (Joules/Mol)
                                  192.48121 (Kcal/Mol)
 Warning -- explicit consideration of  32 degrees of freedom as
           vibrations may cause significant error
 Vibrational temperatures:     49.00    53.18    70.43    85.71    98.09
          (Kelvin)            115.07   128.64   138.10   149.38   179.57
                              191.92   196.96   224.98   241.99   282.69
                              330.57   350.56   396.36   416.77   455.14
                              526.83   572.19   607.59   643.74   670.39
                              708.85   734.84   745.39   793.56   805.89
                              835.27   861.71   895.72   972.75  1005.15
                             1026.59  1092.47  1107.06  1122.58  1149.76
                             1160.12  1190.30  1216.05  1267.19  1291.57
                             1368.43  1414.68  1442.98  1456.83  1550.09
                             1562.52  1597.00  1609.99  1660.63  1677.02
                             1692.67  1716.66  1723.16  1776.65  1817.93
                             1827.23  1894.99  1929.66  1951.85  1954.48
                             1999.38  2004.65  2017.81  2035.16  2041.18
                             2070.74  2107.91  2141.95  2145.76  2152.20
                             2166.51  2172.35  2180.93  2191.30  2197.70
                             2212.55  2236.38  2416.12  2497.23  2562.59
                             2596.19  2680.99  4376.18  4402.71  4422.13
                             4428.16  4433.14  4488.57  4498.47  4517.36
                             4520.17  4522.46  4532.12  4544.23  4616.32
                             4986.54  5102.09  5136.36  5269.66  5312.17

 Zero-point correction=                           0.306738 (Hartree/Particle)
 Thermal correction to Energy=                    0.327393
 Thermal correction to Enthalpy=                  0.328337
 Thermal correction to Gibbs Free Energy=         0.256032
 Sum of electronic and zero-point Energies=           -986.840568
 Sum of electronic and thermal Energies=              -986.819914
 Sum of electronic and thermal Enthalpies=            -986.818969
 Sum of electronic and thermal Free Energies=         -986.891274

                     E (Thermal)             CV                S
                      KCal/Mol        Cal/Mol-Kelvin    Cal/Mol-Kelvin
 Total                  205.442             74.361            152.178
 Electronic               0.000              0.000              0.000
 Translational            0.889              2.981             42.724
 Rotational               0.889              2.981             33.591
 Vibrational            203.665             68.399             75.863
 Vibration     1          0.594              1.983              5.578
 Vibration     2          0.594              1.982              5.416
 Vibration     3          0.595              1.978              4.859
 Vibration     4          0.597              1.974              4.471
 Vibration     5          0.598              1.969              4.205
 Vibration     6          0.600              1.963              3.891
 Vibration     7          0.602              1.957              3.673
 Vibration     8          0.603              1.952              3.534
 Vibration     9          0.605              1.946              3.381
 Vibration    10          0.610              1.928              3.025
 Vibration    11          0.613              1.920              2.897
 Vibration    12          0.614              1.916              2.847
 Vibration    13          0.620              1.896              2.593
 Vibration    14          0.625              1.882              2.456
 Vibration    15          0.636              1.845              2.166
 Vibration    16          0.652              1.796              1.881
 Vibration    17          0.659              1.773              1.776
 Vibration    18          0.677              1.719              1.562
 Vibration    19          0.686              1.693              1.476
 Vibration    20          0.703              1.642              1.329
 Vibration    21          0.739              1.542              1.096
 Vibration    22          0.764              1.475              0.971
 Vibration    23          0.785              1.422              0.884
 Vibration    24          0.807              1.367              0.804
 Vibration    25          0.823              1.326              0.749
 Vibration    26          0.848              1.266              0.677
 Vibration    27          0.866              1.226              0.632
 Vibration    28          0.873              1.210              0.614
 Vibration    29          0.907              1.136              0.541
 Vibration    30          0.916              1.118              0.524
 Vibration    31          0.937              1.073              0.484
 Vibration    32          0.957              1.034              0.452

                           ! Non-Optimized Parameters !
 Normal termination of Gaussian 16 at Sat Dec 12 10:14:37 2020.

 ----------------------------------------------------------------------
 # B3LYP/6-311++G(d,p) empiricaldispersion=gd3bj scf=xqc pop=npa geom=c
 heck
 ----------------------------------------------------------------------

 --------------------------------------
 CID_61449426_JID_9124_Energie_neutraal
 --------------------------------------
 Structure from the checkpoint file:  "JID_9124.chk"
 Charge =  0 Multiplicity = 1

 SCF Done:  E(RB3LYP) =  -987.461443768     A.U. after   15 cycles
 Normal termination of Gaussian 16 at Sat Dec 12 10:21:28 2020.

 ----------------------------------------------------------------------
 # B3LYP/6-311++G(d,p) empiricaldispersion=gd3bj scf=xqc pop=npa geom=c
 heck
 ----------------------------------------------------------------------

 ------------------------------------
 CID_61449426_JID_9124_Energie_kation
 ------------------------------------
 Structure from the checkpoint file:  "JID_9124.chk"
 Charge =  1 Multiplicity = 2

 SCF Done:  E(UB3LYP) =  -987.139128407     A.U. after   33 cycles
 SCF Done:  E(UB3LYP) =  -987.139128408     a.u. after    2 cycles
 Normal termination of Gaussian 16 at Sat Dec 12 11:01:16 2020.
 Gaussian 16:  ES64L-G16RevA.03 25-Dec-2016

 ----------------------------------------------------------------------
 # B3LYP/6-311++G(d,p) empiricaldispersion=gd3bj scf=xqc pop=npa geom=c
 heck
 ----------------------------------------------------------------------

 -----------------------------------
 CID_61449426_JID_9124_Energie_anion
 -----------------------------------
 Structure from the checkpoint file:  "JID_9124.chk"
 Charge = -1 Multiplicity = 2

                         Standard orientation:
 ---------------------------------------------------------------------
 Center     Atomic      Atomic             Coordinates (Angstroms)
 Number     Number       Type             X           Y           Z
 ---------------------------------------------------------------------
      1          6           0       -3.351287   -2.507051   -0.808635
      2          6           0       -2.715867   -1.623897    0.264416
      3          7           0       -1.668603   -0.739628   -0.264773
      4          6           0       -2.103569    0.495348   -0.899108
      5          6           0       -2.362228    1.763378   -0.071871
      6          8           0       -2.809854    2.726770   -0.680028
      7          7           0       -2.024540    1.872722    1.253745
      8          6           0       -1.850194    0.858580    2.287052
      9          6           0       -0.440660   -1.295109   -0.502762
     10          8           0       -0.207154   -2.489686   -0.282932
     11          7           0        0.543341   -0.425889   -1.011976
     12          6           0        1.067301    0.595246   -0.090577
     13          6           0        1.706933   -0.015080    1.189299
     14          6           0        2.924457   -0.886132    0.874319
     15          8           0        4.060320   -0.431185    0.904789
     16          7           0        2.638379   -2.174508    0.534429
     17          6           0        2.095735    1.483811   -0.775458
     18          8           0        2.352692    2.607468   -0.416029
     19          8           0        2.728291    0.852344   -1.787452
     20          1           0       -3.792601   -1.907043   -1.612231
     21          1           0       -4.147404   -3.118750   -0.370750
     22          1           0       -2.597533   -3.171239   -1.238088
     23          1           0       -3.468561   -0.983260    0.735061
     24          1           0       -2.265548   -2.243033    1.043080
     25          1           0       -1.359459    0.779456   -1.646063
     26          1           0       -3.036107    0.311818   -1.443767
     27          1           0       -2.272065    2.797247    1.590211
     28          1           0       -1.195749    0.061143    1.944989
     29          1           0       -1.384400    1.335876    3.152719
     30          1           0       -2.801986    0.415827    2.609213
     31          1           0        1.309298   -0.992894   -1.365275
     32          1           0        0.256628    1.254904    0.221486
     33          1           0        2.041405    0.797726    1.837266
     34          1           0        0.939196   -0.593218    1.714648
     35          1           0        1.686926   -2.506010    0.380345
     36          1           0        3.412281   -2.758661    0.248585
     37          1           0        3.437554    1.450970   -2.088258
 ---------------------------------------------------------------------

 SCF Done:  E(UB3LYP) =  -987.457097284     A.U. after   33 cycles
 SCF Done:  E(UB3LYP) =  -987.457097284     a.u. after    1 cycles

 The electronic state is 2-A.
 Alpha  occ. eigenvalues --  -19.10179 -19.04273 -19.02200 -19.00880 -19.00389
 Alpha  occ. eigenvalues --  -14.27316 -14.25480 -14.25465 -14.24945 -10.23536
 Alpha  occ. eigenvalues --  -10.22616 -10.19631 -10.19350 -10.16081 -10.13855
 Alpha  occ. eigenvalues --  -10.12307 -10.11358 -10.10897 -10.07977  -1.04170
 Alpha  occ. eigenvalues --   -0.98466  -0.95821  -0.95794  -0.95230  -0.87498
 Alpha  occ. eigenvalues --   -0.85136  -0.83385  -0.82321  -0.71114  -0.68461
 Alpha  occ. eigenvalues --   -0.65439  -0.62419  -0.62047  -0.57055  -0.54999
 Alpha  occ. eigenvalues --   -0.51461  -0.50639  -0.48187  -0.46049  -0.45976
 Alpha  occ. eigenvalues --   -0.45056  -0.42033  -0.41198  -0.40888  -0.40865
 Alpha  occ. eigenvalues --   -0.39673  -0.38545  -0.37754  -0.37095  -0.35821
 Alpha  occ. eigenvalues --   -0.35667  -0.34901  -0.34701  -0.33928  -0.33266
 Alpha  occ. eigenvalues --   -0.32508  -0.31948  -0.31497  -0.30429  -0.30057
 Alpha  occ. eigenvalues --   -0.29815  -0.29280  -0.27864  -0.26898  -0.25500
 Alpha  occ. eigenvalues --   -0.22627  -0.21898  -0.19828  -0.19383  -0.18339
 Alpha  occ. eigenvalues --   -0.17566  -0.17074  -0.16505   0.03633
 Alpha virt. eigenvalues --    0.05390   0.06154   0.06541   0.06884   0.07673
 Alpha virt. eigenvalues --    0.08041   0.08376   0.08697   0.08767   0.09300
 Alpha virt. eigenvalues --    0.09892   0.10617   0.11162   0.11523   0.12141

  Beta  occ. eigenvalues --  -19.10154 -19.04262 -19.02187 -19.00870 -19.00375
  Beta  occ. eigenvalues --  -14.27316 -14.25475 -14.25450 -14.24934 -10.23524
  Beta  occ. eigenvalues --  -10.22610 -10.19628 -10.19343 -10.16073 -10.13840
  Beta  occ. eigenvalues --  -10.12273 -10.11284 -10.10874 -10.07952  -1.04130
  Beta  occ. eigenvalues --   -0.98449  -0.95799  -0.95772  -0.95200  -0.87484
  Beta  occ. eigenvalues --   -0.85121  -0.83345  -0.82302  -0.71081  -0.68420
  Beta  occ. eigenvalues --   -0.65401  -0.62370  -0.61939  -0.56999  -0.54950
  Beta  occ. eigenvalues --   -0.51420  -0.50612  -0.48138  -0.46026  -0.45953
  Beta  occ. eigenvalues --   -0.45028  -0.41997  -0.41162  -0.40835  -0.40781
  Beta  occ. eigenvalues --   -0.39646  -0.38508  -0.37710  -0.37062  -0.35786
  Beta  occ. eigenvalues --   -0.35632  -0.34864  -0.34670  -0.33884  -0.33240
  Beta  occ. eigenvalues --   -0.32463  -0.31917  -0.31466  -0.30389  -0.30018
  Beta  occ. eigenvalues --   -0.29779  -0.29222  -0.27814  -0.26865  -0.25460
  Beta  occ. eigenvalues --   -0.22606  -0.21877  -0.19805  -0.19355  -0.18325
  Beta  occ. eigenvalues --   -0.17538  -0.17044  -0.16484
  Beta virt. eigenvalues --    0.05655   0.06344   0.06641   0.07002   0.07131
  Beta virt. eigenvalues --    0.08034   0.08328   0.08731   0.08953   0.09230
  Beta virt. eigenvalues --    0.09668   0.10148   0.10881   0.11364   0.11726

 Mulliken charges and spin densities:
               1          2
     1  C    0.494444  -1.001133
     2  C    0.031686  -0.052697
     3  N    0.032909   0.027541
     4  C   -0.008265  -0.488860
     5  C   -0.181786   0.193154
     6  O   -0.314223   0.013244
     7  N   -0.512738   0.255317
     8  C    1.152953  -1.578516
     9  C   -0.033287  -0.137865
    10  O   -0.277590   0.018823
    11  N   -0.113077  -0.049284
    12  C   -0.412399   0.175662
    13  C    0.797260  -0.864879
    14  C   -0.245833   0.088529
    15  O   -0.332290   0.014719
    16  N   -0.434958   0.044407
    17  C   -0.324485   0.217003
    18  O   -0.192183  -0.007948
    19  O   -0.126937   0.003543
    20  H    0.021762   0.100267
    21  H   -0.308164   0.468082
    22  H    0.000564   0.178451
    23  H   -0.134462   0.294607
    24  H   -0.098485   0.299374
    25  H    0.200471   0.106459
    26  H    0.052710   0.140691
    27  H    0.055400   0.286923
    28  H    0.191974   0.013879
    29  H   -0.662247   0.835411
    30  H   -0.654713   0.860211
    31  H    0.259785   0.095850
    32  H    0.484348  -0.273814
    33  H    0.148580   0.136155
    34  H   -0.004941   0.140024
    35  H    0.257033   0.046643
    36  H    0.167991   0.120669
    37  H    0.023190   0.279356
 Sum of Mulliken charges =  -1.00000   1.00000

 Dipole moment (field-independent basis, Debye):
    X=              3.6568    Y=             -2.5040    Z=             -4.9561  Tot=              6.6487
 Quadrupole moment (field-independent basis, Debye-Ang):
   XX=           -194.9098   YY=           -167.1863   ZZ=           -158.3375
   XY=             -4.5693   XZ=              6.1176   YZ=              0.9332

 Summary of Natural Population Analysis:

                                       Natural Population
                Natural  -----------------------------------------------
    Atom  No    Charge         Core      Valence    Rydberg      Total
 -----------------------------------------------------------------------
      C    1   -0.29284      0.99965     2.28788    0.00530     3.29284
      C    2   -0.08622      0.99962     2.07501    0.01159     3.08622
      N    3   -0.26089      0.99963     2.74930    0.01196     3.76089
      C    4   -0.13255      0.99954     2.12193    0.01108     3.13255
      C    5    0.33734      0.99966     1.64027    0.02273     2.66266
      O    6   -0.32116      0.99988     3.31554    0.00574     4.32116
      N    7   -0.31875      0.99968     2.80845    0.01062     3.81875
      C    8   -0.18019      0.99963     2.17160    0.00896     3.18019
      C    9    0.41782      0.99964     1.55944    0.02310     2.58218
      O   10   -0.34308      0.99987     3.33794    0.00527     4.34308
      N   11   -0.34836      0.99969     2.83821    0.01046     3.84836
      C   12   -0.05543      0.99952     2.04367    0.01224     3.05543
      C   13   -0.23644      0.99957     2.22743    0.00944     3.23644
      C   14    0.33254      0.99970     1.64416    0.02360     2.66746
      O   15   -0.32020      0.99988     3.31414    0.00618     4.32020
      N   16   -0.40982      0.99969     2.90316    0.00696     3.90982
      C   17    0.40954      0.99969     1.56490    0.02587     2.59046
      O   18   -0.29492      0.99987     3.28915    0.00591     4.29492
      O   19   -0.34394      0.99987     3.33772    0.00635     4.34394
      H   20    0.09526      0.00000     0.40390    0.00085     0.40474
      H   21    0.10463      0.00000     0.39434    0.00103     0.39537
      H   22    0.10645      0.00000     0.39261    0.00094     0.39355
      H   23    0.09996      0.00000     0.39799    0.00204     0.40004
      H   24    0.10905      0.00000     0.38942    0.00153     0.39095
      H   25    0.12472      0.00000     0.37402    0.00126     0.37528
      H   26    0.11172      0.00000     0.38717    0.00111     0.38828
      H   27    0.19704      0.00000     0.30069    0.00227     0.30296
      H   28    0.09704      0.00000     0.40026    0.00270     0.40296
      H   29    0.10403      0.00000     0.39347    0.00250     0.39597
      H   30    0.09871      0.00000     0.39701    0.00428     0.40129
      H   31    0.19693      0.00000     0.30016    0.00291     0.30307
      H   32    0.12052      0.00000     0.37642    0.00306     0.37948
      H   33    0.12263      0.00000     0.37633    0.00103     0.37737
      H   34    0.10974      0.00000     0.38847    0.00179     0.39026
      H   35    0.21143      0.00000     0.28618    0.00239     0.28857
      H   36    0.19306      0.00000     0.30517    0.00177     0.30694
      H   37    0.24461      0.00000     0.25112    0.00426     0.25539
 =======================================================================
   * Total *   -0.00000     18.99426    53.74464    0.26110    73.00000

 Normal termination of Gaussian 16 at Sat Dec 12 11:20:59 2020.
