 Gaussian 16, Revision A.03,

 -----------------------------------------------------------
 # opt freq B3LYP/6-31G(d) empiricaldispersion=gd3bj scf=xqc
 -----------------------------------------------------------

 -------------------------------
 CID_142714926_JID_4133_neutraal
 -------------------------------
 Symbolic Z-matrix:
 Charge =  0 Multiplicity = 1

 SCF Done:  E(RB3LYP) =  -607.304614846     A.U. after   15 cycles
 SCF Done:  E(RB3LYP) =  -607.307817038     A.U. after   12 cycles
 SCF Done:  E(RB3LYP) =  -607.308946696     A.U. after   12 cycles
 SCF Done:  E(RB3LYP) =  -607.309152288     A.U. after   11 cycles
 SCF Done:  E(RB3LYP) =  -607.309239416     A.U. after   12 cycles
 SCF Done:  E(RB3LYP) =  -607.309282725     A.U. after   11 cycles
 SCF Done:  E(RB3LYP) =  -607.309294047     A.U. after   10 cycles
 SCF Done:  E(RB3LYP) =  -607.309300062     A.U. after    9 cycles
 SCF Done:  E(RB3LYP) =  -607.309307316     A.U. after   10 cycles
 SCF Done:  E(RB3LYP) =  -607.309310450     A.U. after   10 cycles
 SCF Done:  E(RB3LYP) =  -607.309311214     A.U. after    8 cycles
 SCF Done:  E(RB3LYP) =  -607.309311295     A.U. after    7 cycles
 Optimization completed.
    -- Stationary point found.
 Normal termination of Gaussian 16 at Thu Dec 10 09:15:45 2020.

 --------------------------------------------------------------------
 #N Geom=AllCheck Guess=TCheck SCRF=Check GenChk RB3LYP/6-31G(d) Freq
 --------------------------------------------------------------------

 Structure from the checkpoint file:  "JID_4133.chk"
 -------------------------------
 CID_142714926_JID_4133_neutraal
 -------------------------------
 Charge =  0 Multiplicity = 1

 SCF Done:  E(RB3LYP) =  -607.309311295     A.U. after    1 cycles

  Exact polarizability: 154.913  -2.834 135.818  20.809   5.120  68.362
 Approx polarizability: 220.466  -8.508 237.742  42.066  11.545 112.947

                      1                      2                      3
                      A                      A                      A
 Frequencies --     35.1562                42.5030                49.3635
 Red. masses --      5.4058                 4.4887                 5.1716
 Frc consts  --      0.0039                 0.0048                 0.0074
 IR Inten    --      0.2082                 0.1343                 0.5880

                      4                      5                      6
                      A                      A                      A
 Frequencies --     99.0660               104.0881               220.1997
 Red. masses --      4.3077                 4.8024                 3.6723
 Frc consts  --      0.0249                 0.0307                 0.1049
 IR Inten    --      0.5145                 0.0304                 2.9794

                      7                      8                      9
                      A                      A                      A
 Frequencies --    259.0425               341.7890               360.4172
 Red. masses --      4.0759                 3.2594                 2.7526
 Frc consts  --      0.1611                 0.2243                 0.2107
 IR Inten    --      0.6409                 0.8424                 0.9624

                     10                     11                     12
                      A                      A                      A
 Frequencies --    395.0276               417.1866               425.9282
 Red. masses --      1.5284                 2.8183                 2.6171
 Frc consts  --      0.1405                 0.2890                 0.2797
 IR Inten    --     58.2079                 3.9729                 6.9530

                     13                     14                     15
                      A                      A                      A
 Frequencies --    495.8131               505.9681               587.8306
 Red. masses --      3.1443                 4.0372                 2.8034
 Frc consts  --      0.4554                 0.6089                 0.5707
 IR Inten    --      8.2717                 1.8448                 2.6705

                     16                     17                     18
                      A                      A                      A
 Frequencies --    638.0130               646.0395               697.9679
 Red. masses --      6.2027                 3.6675                 3.1238
 Frc consts  --      1.4876                 0.9019                 0.8966
 IR Inten    --      0.2368                72.5189                50.5469

                     19                     20                     21
                      A                      A                      A
 Frequencies --    718.7092               733.6307               747.5663
 Red. masses --      1.8685                 2.7002                 1.9004
 Frc consts  --      0.5687                 0.8562                 0.6257
 IR Inten    --     44.5901                 4.1338                21.1104

                     22                     23                     24
                      A                      A                      A
 Frequencies --    770.9080               802.5665               816.4782
 Red. masses --      1.9862                 2.6116                 1.3858
 Frc consts  --      0.6955                 0.9911                 0.5443
 IR Inten    --     12.2760                32.5927                44.1592

                     25                     26                     27
                      A                      A                      A
 Frequencies --    866.8309               884.4055               930.5972
 Red. masses --      1.2531                 2.1352                 1.4177
 Frc consts  --      0.5548                 0.9840                 0.7234
 IR Inten    --      0.4491                 4.8586                 3.6486

                     28                     29                     30
                      A                      A                      A
 Frequencies --    963.3090               973.1463               992.9358
 Red. masses --      2.3815                 1.3793                 5.3542
 Frc consts  --      1.3021                 0.7696                 3.1102
 IR Inten    --     18.4979                 2.7741                19.2494

                     31                     32                     33
                      A                      A                      A
 Frequencies --    998.5267              1019.3362              1021.8393
 Red. masses --      1.3173                 3.1835                 5.9748
 Frc consts  --      0.7738                 1.9489                 3.6757
 IR Inten    --      0.7274                31.6505                 0.6900

                     34                     35                     36
                      A                      A                      A
 Frequencies --   1055.2526              1062.5361              1121.2005
 Red. masses --      1.8530                 2.1539                 1.7487
 Frc consts  --      1.2157                 1.4327                 1.2952
 IR Inten    --      1.2463                 2.7862                 5.4337

                     37                     38                     39
                      A                      A                      A
 Frequencies --   1125.6736              1177.8929              1194.0716
 Red. masses --      2.9332                 2.7163                 1.0998
 Frc consts  --      2.1898                 2.2205                 0.9239
 IR Inten    --     33.2367                 1.9906                 0.0864

                     40                     41                     42
                      A                      A                      A
 Frequencies --   1200.9640              1212.2187              1218.5283
 Red. masses --      3.4265                 1.4860                 1.1761
 Frc consts  --      2.9118                 1.2866                 1.0289
 IR Inten    --     16.9016                 4.7892                 0.1945

                     43                     44                     45
                      A                      A                      A
 Frequencies --   1237.8090              1254.7820              1289.7108
 Red. masses --      2.3264                 1.6839                 1.4847
 Frc consts  --      2.1001                 1.5620                 1.4551
 IR Inten    --      2.3544                24.9213                 6.9327

                     46                     47                     48
                      A                      A                      A
 Frequencies --   1361.5385              1362.3817              1373.3968
 Red. masses --      3.8111                 3.0786                 1.4102
 Frc consts  --      4.1625                 3.3666                 1.5672
 IR Inten    --      8.4500                12.5294                 1.7262

                     49                     50                     51
                      A                      A                      A
 Frequencies --   1380.2054              1405.2292              1421.4155
 Red. masses --      1.4022                 1.3560                 2.7705
 Frc consts  --      1.5738                 1.5777                 3.2980
 IR Inten    --      7.8561                24.9895                13.1527

                     52                     53                     54
                      A                      A                      A
 Frequencies --   1503.5383              1509.1999              1515.0437
 Red. masses --      2.1167                 1.5273                 1.1211
 Frc consts  --      2.8193                 2.0495                 1.5162
 IR Inten    --      3.0038                19.9181                 4.8936

                     55                     56                     57
                      A                      A                      A
 Frequencies --   1520.4307              1542.4351              1550.0830
 Red. masses --      1.1997                 2.0133                 2.2079
 Frc consts  --      1.6340                 2.8221                 3.1256
 IR Inten    --      2.4863                18.2261                10.6656

                     58                     59                     60
                      A                      A                      A
 Frequencies --   1615.1793              1645.6126              1668.2304
 Red. masses --      4.6501                 5.4304                 5.5358
 Frc consts  --      7.1475                 8.6643                 9.0771
 IR Inten    --    216.0871                 0.4379                 2.8000

                     61                     62                     63
                      A                      A                      A
 Frequencies --   3051.4733              3068.1551              3093.5276
 Red. masses --      1.0600                 1.0614                 1.1029
 Frc consts  --      5.8156                 5.8871                 6.2188
 IR Inten    --     19.7329                36.1641                23.6299

                     64                     65                     66
                      A                      A                      A
 Frequencies --   3114.8098              3172.9237              3183.4770
 Red. masses --      1.1060                 1.0868                 1.0863
 Frc consts  --      6.3224                 6.4466                 6.4861
 IR Inten    --     35.5784                 9.0886                 0.3138

                     67                     68                     69
                      A                      A                      A
 Frequencies --   3192.0759              3200.0567              3210.5924
 Red. masses --      1.0904                 1.0940                 1.0980
 Frc consts  --      6.5462                 6.6003                 6.6684
 IR Inten    --     13.1288                30.4783                21.5819

                     70                     71                     72
                      A                      A                      A
 Frequencies --   3290.5474              3550.8908              3681.0321
 Red. masses --      1.0971                 1.0742                 1.0822
 Frc consts  --      6.9992                 7.9805                 8.6400
 IR Inten    --      1.4196                12.4833               103.2312

 - Thermochemistry -
 -------------------
 Temperature   298.150 Kelvin.  Pressure   1.00000 Atm.
 Atom     1 has atomic number  6 and mass  12.00000

 Molecular mass:   188.10620 amu.
 Principal axes and moments of inertia in atomic units:
                           1         2         3
     Eigenvalues --  1133.613134667.968255366.51189
           X            0.99999   0.00364   0.00355
           Y           -0.00367   0.99996   0.00777
           Z           -0.00352  -0.00778   0.99996
 This molecule is an asymmetric top.
 Rotational symmetry number  1.
 Warning -- assumption of classical behavior for rotation
           may cause significant error
 Rotational temperatures (Kelvin)      0.07641     0.01855     0.01614
 Rotational constants (GHZ):           1.59203     0.38662     0.33630
 Zero-point vibrational energy     567606.0 (Joules/Mol)
                                  135.66108 (Kcal/Mol)
 Warning -- explicit consideration of  15 degrees of freedom as
           vibrations may cause significant error
 Vibrational temperatures:     50.58    61.15    71.02   142.53   149.76
          (Kelvin)            316.82   372.70   491.76   518.56   568.36
                              600.24   612.82   713.36   727.98   845.76
                              917.96   929.51  1004.22  1034.06  1055.53
                             1075.58  1109.16  1154.71  1174.73  1247.18
                             1272.46  1338.92  1385.99  1400.14  1428.61
                             1436.66  1466.60  1470.20  1518.27  1528.75
                             1613.16  1619.59  1694.73  1718.00  1727.92
                             1744.11  1753.19  1780.93  1805.35  1855.61
                             1958.95  1960.16  1976.01  1985.81  2021.81
                             2045.10  2163.26  2171.40  2179.81  2187.56
                             2219.22  2230.22  2323.88  2367.67  2400.21
                             4390.39  4414.39  4450.90  4481.52  4565.13
                             4580.31  4592.69  4604.17  4619.33  4734.36
                             5108.94  5296.18

 Zero-point correction=                           0.216190 (Hartree/Particle)
 Thermal correction to Energy=                    0.227900
 Thermal correction to Enthalpy=                  0.228844
 Thermal correction to Gibbs Free Energy=         0.176373
 Sum of electronic and zero-point Energies=           -607.093122
 Sum of electronic and thermal Energies=              -607.081411
 Sum of electronic and thermal Enthalpies=            -607.080467
 Sum of electronic and thermal Free Energies=         -607.132939

                     E (Thermal)             CV                S
                      KCal/Mol        Cal/Mol-Kelvin    Cal/Mol-Kelvin
 Total                  143.010             45.112            110.436
 Electronic               0.000              0.000              0.000
 Translational            0.889              2.981             41.601
 Rotational               0.889              2.981             31.718
 Vibrational            141.232             39.151             37.117
 Vibration     1          0.594              1.982              5.515
 Vibration     2          0.595              1.980              5.139
 Vibration     3          0.595              1.978              4.843
 Vibration     4          0.604              1.950              3.473
 Vibration     5          0.605              1.946              3.376
 Vibration     6          0.647              1.810              1.957
 Vibration     7          0.668              1.747              1.668
 Vibration     8          0.721              1.592              1.204
 Vibration     9          0.735              1.554              1.120
 Vibration    10          0.762              1.481              0.981
 Vibration    11          0.780              1.433              0.902
 Vibration    12          0.788              1.414              0.872
 Vibration    13          0.851              1.259              0.669
 Vibration    14          0.861              1.237              0.643
 Vibration    15          0.945              1.058              0.471

                           ! Non-Optimized Parameters !
 Normal termination of Gaussian 16 at Thu Dec 10 09:22:12 2020.

 ----------------------------------------------------------------------
 # B3LYP/6-311++G(d,p) empiricaldispersion=gd3bj scf=xqc pop=npa geom=c
 heck
 ----------------------------------------------------------------------

 ---------------------------------------
 CID_142714926_JID_4133_Energie_neutraal
 ---------------------------------------
 Structure from the checkpoint file:  "JID_4133.chk"
 Charge =  0 Multiplicity = 1

 SCF Done:  E(RB3LYP) =  -607.475248959     A.U. after   15 cycles
 Normal termination of Gaussian 16 at Thu Dec 10 09:24:33 2020.

 ----------------------------------------------------------------------
 # B3LYP/6-311++G(d,p) empiricaldispersion=gd3bj scf=xqc pop=npa geom=c
 heck
 ----------------------------------------------------------------------

 -------------------------------------
 CID_142714926_JID_4133_Energie_kation
 -------------------------------------
 Structure from the checkpoint file:  "JID_4133.chk"
 Charge =  1 Multiplicity = 2

 SCF Done:  E(UB3LYP) =  -607.184694454     A.U. after   26 cycles
 Normal termination of Gaussian 16 at Thu Dec 10 09:30:00 2020.
 Gaussian 16:  ES64L-G16RevA.03 25-Dec-2016

 ----------------------------------------------------------------------
 # B3LYP/6-311++G(d,p) empiricaldispersion=gd3bj scf=xqc pop=npa geom=c
 heck
 ----------------------------------------------------------------------

 ------------------------------------
 CID_142714926_JID_4133_Energie_anion
 ------------------------------------
 Structure from the checkpoint file:  "JID_4133.chk"
 Charge = -1 Multiplicity = 2

                         Standard orientation:
 ---------------------------------------------------------------------
 Center     Atomic      Atomic             Coordinates (Angstroms)
 Number     Number       Type             X           Y           Z
 ---------------------------------------------------------------------
      1          6           0        3.635403    1.295869    0.178714
      2          6           0        2.347433    1.762488   -0.086141
      3          6           0        1.329035    0.866728   -0.415080
      4          6           0        1.581686   -0.511038   -0.481678
      5          6           0        2.878423   -0.966432   -0.211696
      6          6           0        3.898835   -0.073314    0.113510
      7          6           0        0.465857   -1.487824   -0.762578
      8          6           0       -0.307723   -1.867006    0.521507
      9          7           0       -0.974126   -0.748148    1.183478
     10          6           0       -2.007163   -0.119661    0.504474
     11          7           0       -2.202399    1.204290    0.576768
     12          7           0       -3.313712    1.381972   -0.154434
     13          7           0       -3.843148    0.301387   -0.705499
     14          6           0       -3.028251   -0.679210   -0.303972
     15          1           0        4.428871    1.993544    0.431325
     16          1           0        2.132802    2.826611   -0.039828
     17          1           0        0.329422    1.240325   -0.621044
     18          1           0        3.089317   -2.032474   -0.261512
     19          1           0        4.899755   -0.446036    0.313510
     20          1           0       -0.242342   -1.061454   -1.482836
     21          1           0        0.867571   -2.405845   -1.208664
     22          1           0       -1.062347   -2.625881    0.287913
     23          1           0        0.378757   -2.313155    1.248239
     24          1           0       -0.317685   -0.067195    1.552837
     25          1           0       -3.727030    2.294497   -0.268566
     26          1           0       -3.204609   -1.703045   -0.595925
 ---------------------------------------------------------------------

 SCF Done:  E(UB3LYP) =  -607.461946362     A.U. after   33 cycles
 SCF Done:  E(UB3LYP) =  -607.461946362     a.u. after    1 cycles

 The electronic state is 2-A.
 Alpha  occ. eigenvalues --  -14.31895 -14.25907 -14.24647 -14.23029 -10.14124
 Alpha  occ. eigenvalues --  -10.11081 -10.10268 -10.08438 -10.07996 -10.07886
 Alpha  occ. eigenvalues --  -10.07760 -10.07611 -10.07594 -10.07452  -1.00939
 Alpha  occ. eigenvalues --   -0.85074  -0.79225  -0.76312  -0.72223  -0.68427
 Alpha  occ. eigenvalues --   -0.65066  -0.62512  -0.55395  -0.54797  -0.51256
 Alpha  occ. eigenvalues --   -0.50901  -0.48420  -0.44969  -0.42130  -0.41016
 Alpha  occ. eigenvalues --   -0.38691  -0.37237  -0.36470  -0.35922  -0.34683
 Alpha  occ. eigenvalues --   -0.33707  -0.32759  -0.32273  -0.29057  -0.27324
 Alpha  occ. eigenvalues --   -0.26752  -0.24628  -0.24466  -0.23954  -0.22631
 Alpha  occ. eigenvalues --   -0.20831  -0.19309  -0.16096  -0.15484  -0.12402
 Alpha  occ. eigenvalues --    0.04260
 Alpha virt. eigenvalues --    0.05857   0.06469   0.07594   0.07697   0.08024
 Alpha virt. eigenvalues --    0.08358   0.08737   0.09075   0.10050   0.10844
 Alpha virt. eigenvalues --    0.11527   0.12023   0.13110   0.13976   0.14407

  Beta  occ. eigenvalues --  -14.31849 -14.25905 -14.24644 -14.23029 -10.14125
  Beta  occ. eigenvalues --  -10.11055 -10.10253 -10.08412 -10.07996 -10.07867
  Beta  occ. eigenvalues --  -10.07727 -10.07594 -10.07575 -10.07433  -1.00910
  Beta  occ. eigenvalues --   -0.85064  -0.79209  -0.76262  -0.72157  -0.68366
  Beta  occ. eigenvalues --   -0.65019  -0.62455  -0.55347  -0.54730  -0.51218
  Beta  occ. eigenvalues --   -0.50859  -0.48366  -0.44912  -0.42084  -0.40981
  Beta  occ. eigenvalues --   -0.38664  -0.37201  -0.36416  -0.35871  -0.34648
  Beta  occ. eigenvalues --   -0.33643  -0.32727  -0.32239  -0.29012  -0.27285
  Beta  occ. eigenvalues --   -0.26679  -0.24595  -0.24424  -0.23930  -0.22609
  Beta  occ. eigenvalues --   -0.20814  -0.19294  -0.16026  -0.15337  -0.12382
  Beta virt. eigenvalues --    0.06528   0.07200   0.07476   0.07716   0.08085
  Beta virt. eigenvalues --    0.08328   0.08721   0.09253   0.09400   0.10548
  Beta virt. eigenvalues --    0.10978   0.11896   0.12310   0.13130   0.14274

 Mulliken charges and spin densities:
               1          2
     1  C    1.032807  -1.296767
     2  C   -0.098923  -0.134818
     3  C   -1.656338   1.450950
     4  C   -0.986216   1.783181
     5  C    0.590980  -0.964475
     6  C    0.552889  -0.898218
     7  C    1.208262  -1.502778
     8  C    0.877851  -1.437091
     9  N   -0.103389   0.077929
    10  C    0.128223  -0.607908
    11  N   -0.176982   0.055685
    12  N    0.131447  -0.123235
    13  N   -0.025338  -0.106090
    14  C   -0.139563   0.061091
    15  H   -0.061172   0.200923
    16  H   -0.163171   0.339011
    17  H    0.106327   0.083427
    18  H   -0.451753   0.608966
    19  H   -0.520267   0.693036
    20  H    0.047918   0.109988
    21  H   -0.792272   1.001531
    22  H   -0.055402   0.196710
    23  H   -0.088350   0.264296
    24  H    0.253691   0.003842
    25  H   -0.363671   0.716021
    26  H   -0.247587   0.424792
 Sum of Mulliken charges =  -1.00000   1.00000

 Dipole moment (field-independent basis, Debye):
    X=             -0.1843    Y=              1.3660    Z=              1.4723  Tot=              2.0168
 Quadrupole moment (field-independent basis, Debye-Ang):
   XX=           -163.7551   YY=           -134.1452   ZZ=           -110.2770
   XY=             13.2323   XZ=             -2.1140   YZ=             -2.9182

 Summary of Natural Population Analysis:

                                       Natural Population
                Natural  -----------------------------------------------
    Atom  No    Charge         Core      Valence    Rydberg      Total
 -----------------------------------------------------------------------
      C    1   -0.10289      0.99956     2.09378    0.00955     3.10289
      C    2   -0.10076      0.99956     2.09151    0.00969     3.10076
      C    3   -0.10655      0.99951     2.09786    0.00919     3.10655
      C    4   -0.01586      0.99950     2.00494    0.01142     3.01586
      C    5   -0.10029      0.99951     2.09023    0.01055     3.10029
      C    6   -0.09902      0.99956     2.08886    0.01059     3.09902
      C    7   -0.20878      0.99959     2.19909    0.01010     3.20878
      C    8   -0.08038      0.99961     2.06911    0.01166     3.08038
      N    9   -0.32139      0.99969     2.81177    0.00994     3.82139
      C   10    0.14917      0.99957     1.83563    0.01564     2.85083
      N   11   -0.16710      0.99970     2.65464    0.01277     3.66710
      N   12   -0.07543      0.99975     2.55834    0.01734     3.57543
      N   13   -0.13150      0.99974     2.61808    0.01368     3.63150
      C   14   -0.05423      0.99957     2.04218    0.01248     3.05423
      H   15    0.09909      0.00000     0.39998    0.00093     0.40091
      H   16    0.10030      0.00000     0.39876    0.00094     0.39970
      H   17    0.10716      0.00000     0.39109    0.00175     0.39284
      H   18    0.10271      0.00000     0.39547    0.00183     0.39729
      H   19    0.10091      0.00000     0.39780    0.00128     0.39909
      H   20    0.10375      0.00000     0.39451    0.00173     0.39625
      H   21    0.10804      0.00000     0.38969    0.00227     0.39196
      H   22    0.09747      0.00000     0.40077    0.00177     0.40253
      H   23    0.09782      0.00000     0.40103    0.00115     0.40218
      H   24    0.18989      0.00000     0.30699    0.00313     0.31011
      H   25    0.20272      0.00000     0.28686    0.01042     0.29728
      H   26    0.10517      0.00000     0.39344    0.00140     0.39483
 =======================================================================
   * Total *   -0.00000     13.99443    35.81241    0.19315    50.00000

 Normal termination of Gaussian 16 at Thu Dec 10 09:37:06 2020.
