 Gaussian 16, Revision A.03,

 -----------------------------------------------------------
 # opt freq B3LYP/6-31G(d) empiricaldispersion=gd3bj scf=xqc
 -----------------------------------------------------------

 ------------------------------
 CID_139426215_JID_351_neutraal
 ------------------------------
 Symbolic Z-matrix:
 Charge =  0 Multiplicity = 1

 SCF Done:  E(RB3LYP) =  -409.179113626     A.U. after   13 cycles
 SCF Done:  E(RB3LYP) =  -409.181434576     A.U. after   11 cycles
 SCF Done:  E(RB3LYP) =  -409.181692884     A.U. after   10 cycles
 SCF Done:  E(RB3LYP) =  -409.181859458     A.U. after   10 cycles
 SCF Done:  E(RB3LYP) =  -409.181995356     A.U. after   10 cycles
 SCF Done:  E(RB3LYP) =  -409.181988022     A.U. after   11 cycles
 SCF Done:  E(RB3LYP) =  -409.182230980     A.U. after   11 cycles
 SCF Done:  E(RB3LYP) =  -409.182381165     A.U. after   11 cycles
 SCF Done:  E(RB3LYP) =  -409.182656716     A.U. after   12 cycles
 SCF Done:  E(RB3LYP) =  -409.182742552     A.U. after   10 cycles
 SCF Done:  E(RB3LYP) =  -409.183951300     A.U. after   11 cycles
 SCF Done:  E(RB3LYP) =  -409.183966619     A.U. after    9 cycles
 SCF Done:  E(RB3LYP) =  -409.183965728     A.U. after    8 cycles
 SCF Done:  E(RB3LYP) =  -409.183967933     A.U. after    9 cycles
 SCF Done:  E(RB3LYP) =  -409.183968003     A.U. after    7 cycles
 SCF Done:  E(RB3LYP) =  -409.183968053     A.U. after    6 cycles
 Optimization completed.
    -- Stationary point found.

 1\1\GINC-NODE320\FOpt\RB3LYP\6-31G(d)\C9H19N1\VSC10255\08-Dec-2020\0\\
 # opt freq B3LYP/6-31G(d) empiricaldispersion=gd3bj scf=xqc\\CID_13942
 6215_JID_351_neutraal\\0,1\C,1.095827905,0.2720481893,0.2950930155\C,0
 .6455109013,1.7028396285,0.6006349567\C,1.0448470929,2.7472163696,-0.4
 608182306\C,0.4998791987,2.463571369,-1.8790796468\C,-1.0328996494,2.5
 102446866,-1.9525778517\C,1.1224979751,3.4212083387,-2.9016400202\N,0.
 6841200106,4.1055681898,-0.0377563633\C,1.4567514285,4.7176742017,0.94
 79864241\C,1.027025107,5.5210039581,1.9351452096\C,-0.4101206435,5.854

 Normal termination of Gaussian 16 at Tue Dec  8 10:35:33 2020.

 --------------------------------------------------------------------
 #N Geom=AllCheck Guess=TCheck SCRF=Check GenChk RB3LYP/6-31G(d) Freq
 --------------------------------------------------------------------

 Structure from the checkpoint file:  "JID_351.chk"
 ------------------------------
 CID_139426215_JID_351_neutraal
 ------------------------------
 Charge =  0 Multiplicity = 1

 SCF Done:  E(RB3LYP) =  -409.183968053     A.U. after    1 cycles

  Exact polarizability: 131.069  -1.930  91.332   3.345   2.145  92.970
 Approx polarizability: 171.347  -4.884 119.539   6.756   4.344 134.751

                      1                      2                      3
                      A                      A                      A
 Frequencies --     42.0567                55.0263                60.8757
 Red. masses --      2.7883                 2.5368                 2.8714
 Frc consts  --      0.0029                 0.0045                 0.0063
 IR Inten    --      0.6439                 0.1457                 0.2342

                      4                      5                      6
                      A                      A                      A
 Frequencies --     87.6601               105.6530               152.9185
 Red. masses --      1.6245                 1.6140                 1.8715
 Frc consts  --      0.0074                 0.0106                 0.0258
 IR Inten    --      0.3441                 0.1107                 0.1238

                      7                      8                      9
                      A                      A                      A
 Frequencies --    214.7698               215.3537               234.0597
 Red. masses --      1.5260                 1.3550                 1.5526
 Frc consts  --      0.0415                 0.0370                 0.0501
 IR Inten    --      0.2894                 0.4212                 0.4946

                     10                     11                     12
                      A                      A                      A
 Frequencies --    251.0710               278.3358               301.0491
 Red. masses --      1.0795                 2.0897                 2.3494
 Frc consts  --      0.0401                 0.0954                 0.1255
 IR Inten    --      0.2113                 1.5593                 0.3216

                     13                     14                     15
                      A                      A                      A
 Frequencies --    325.2026               390.1667               418.8810
 Red. masses --      2.6192                 2.1993                 3.1110
 Frc consts  --      0.1632                 0.1973                 0.3216
 IR Inten    --      1.8965                 1.3220                 5.3607

                     16                     17                     18
                      A                      A                      A
 Frequencies --    465.8363               496.5967               569.8353
 Red. masses --      2.2402                 2.4948                 2.4494
 Frc consts  --      0.2864                 0.3625                 0.4686
 IR Inten    --      0.7943                 3.2947                 0.2584

                     19                     20                     21
                      A                      A                      A
 Frequencies --    640.7019               678.2105               744.6469
 Red. masses --      2.0653                 1.5601                 1.5490
 Frc consts  --      0.4995                 0.4228                 0.5061
 IR Inten    --     63.2028                70.8632                13.7439

                     22                     23                     24
                      A                      A                      A
 Frequencies --    767.9547               847.4925               902.5705
 Red. masses --      1.5255                 1.6595                 1.9454
 Frc consts  --      0.5301                 0.7023                 0.9337
 IR Inten    --     20.1291                 1.0664                 7.0855

                     25                     26                     27
                      A                      A                      A
 Frequencies --    940.7334               947.6283               960.7541
 Red. masses --      1.1808                 1.9536                 1.4273
 Frc consts  --      0.6157                 1.0336                 0.7762
 IR Inten    --      4.6350                10.6969                 9.1017

                     28                     29                     30
                      A                      A                      A
 Frequencies --    978.5010               982.1915              1016.1171
 Red. masses --      1.5430                 1.6406                 1.7829
 Frc consts  --      0.8705                 0.9325                 1.0846
 IR Inten    --      0.2261                 2.4132                 1.0355

                     31                     32                     33
                      A                      A                      A
 Frequencies --   1061.6022              1062.1010              1071.9323
 Red. masses --      2.1288                 1.4053                 1.8316
 Frc consts  --      1.4136                 0.9340                 1.2400
 IR Inten    --      0.7706                11.3531                 0.9858

                     34                     35                     36
                      A                      A                      A
 Frequencies --   1099.2110              1133.1041              1166.1218
 Red. masses --      1.5997                 1.9486                 2.4391
 Frc consts  --      1.1388                 1.4740                 1.9542
 IR Inten    --     11.7787                15.5469                75.9324

                     37                     38                     39
                      A                      A                      A
 Frequencies --   1193.7803              1204.5871              1224.2418
 Red. masses --      2.1400                 2.1590                 1.8895
 Frc consts  --      1.7969                 1.8458                 1.6685
 IR Inten    --     18.0945                 1.9656                11.3690

                     40                     41                     42
                      A                      A                      A
 Frequencies --   1293.2119              1302.7472              1349.8376
 Red. masses --      1.2427                 1.2504                 1.3681
 Frc consts  --      1.2245                 1.2503                 1.4686
 IR Inten    --      8.2482                19.7412                34.2764

                     43                     44                     45
                      A                      A                      A
 Frequencies --   1358.7518              1382.1063              1387.6942
 Red. masses --      1.2009                 1.5042                 1.3397
 Frc consts  --      1.3063                 1.6930                 1.5201
 IR Inten    --      4.9498                 1.7616                 7.9045

                     46                     47                     48
                      A                      A                      A
 Frequencies --   1402.8408              1426.4522              1428.6677
 Red. masses --      1.4465                 1.2622                 1.2611
 Frc consts  --      1.6773                 1.5132                 1.5166
 IR Inten    --      2.4581                 3.7832                 5.4170

                     49                     50                     51
                      A                      A                      A
 Frequencies --   1441.4361              1448.3200              1460.9169
 Red. masses --      1.2344                 1.2462                 1.3482
 Frc consts  --      1.5111                 1.5402                 1.6953
 IR Inten    --      0.6051                 9.1585                 3.7477

                     52                     53                     54
                      A                      A                      A
 Frequencies --   1503.8728              1516.0250              1520.9027
 Red. masses --      1.2938                 1.0547                 1.0626
 Frc consts  --      1.7240                 1.4281                 1.4482
 IR Inten    --     50.6307                 1.1091                 4.8774

                     55                     56                     57
                      A                      A                      A
 Frequencies --   1522.9128              1525.8573              1528.4888
 Red. masses --      1.0713                 1.0619                 1.0849
 Frc consts  --      1.4638                 1.4567                 1.4934
 IR Inten    --      8.1874                 3.0094                 5.9130

                     58                     59                     60
                      A                      A                      A
 Frequencies --   1530.8776              1536.9789              1544.6183
 Red. masses --      1.0484                 1.0551                 1.0622
 Frc consts  --      1.4476                 1.4685                 1.4931
 IR Inten    --      4.3218                 7.3224                 9.6225

                     61                     62                     63
                      A                      A                      A
 Frequencies --   1545.3048              1744.8184              3016.1584
 Red. masses --      1.0598                 5.2140                 1.0403
 Frc consts  --      1.4911                 9.3524                 5.5758
 IR Inten    --      3.9884               141.0355                44.7053

                     64                     65                     66
                      A                      A                      A
 Frequencies --   3023.3155              3038.0248              3040.5901
 Red. masses --      1.0813                 1.0614                 1.0660
 Frc consts  --      5.8232                 5.7719                 5.8068
 IR Inten    --     10.2708                12.3441                 8.9508

                     67                     68                     69
                      A                      A                      A
 Frequencies --   3044.8407              3048.2838              3049.6067
 Red. masses --      1.0374                 1.0449                 1.0467
 Frc consts  --      5.6666                 5.7205                 5.7351
 IR Inten    --     22.4650                60.2277                31.5849

                     70                     71                     72
                      A                      A                      A
 Frequencies --   3061.3944              3072.6923              3093.8162
 Red. masses --      1.0975                 1.1005                 1.0986
 Frc consts  --      6.0604                 6.1218                 6.1957
 IR Inten    --     36.8975                18.8446                34.8265

                     73                     74                     75
                      A                      A                      A
 Frequencies --   3106.9484              3108.2478              3109.9143
 Red. masses --      1.1019                 1.1010                 1.1009
 Frc consts  --      6.2670                 6.2669                 6.2730
 IR Inten    --     22.9816                14.4214                66.3897

                     76                     77                     78
                      A                      A                      A
 Frequencies --   3117.2194              3119.6519              3131.9785
 Red. masses --      1.1017                 1.1020                 1.1009
 Frc consts  --      6.3074                 6.3188                 6.3624
 IR Inten    --     64.0909                24.9272                38.9631

                     79                     80                     81
                      A                      A                      A
 Frequencies --   3163.9682              3192.1800              3549.1796
 Red. masses --      1.0854                 1.0934                 1.0733
 Frc consts  --      6.4021                 6.5647                 7.9655
 IR Inten    --      6.7270                29.4485                 0.5981

 - Thermochemistry -
 -------------------
 Temperature   298.150 Kelvin.  Pressure   1.00000 Atm.
 Atom     1 has atomic number  6 and mass  12.00000

 Molecular mass:   141.15175 amu.
 Principal axes and moments of inertia in atomic units:
                           1         2         3
     Eigenvalues --  1144.956612395.753532868.52283
           X            0.99996   0.00058   0.00926
           Y           -0.00066   0.99996   0.00844
           Z           -0.00925  -0.00844   0.99992
 This molecule is an asymmetric top.
 Rotational symmetry number  1.
 Warning -- assumption of classical behavior for rotation
           may cause significant error
 Rotational temperatures (Kelvin)      0.07565     0.03615     0.03019
 Rotational constants (GHZ):           1.57625     0.75331     0.62915
 Zero-point vibrational energy     706282.3 (Joules/Mol)
                                  168.80553 (Kcal/Mol)
 Warning -- explicit consideration of  18 degrees of freedom as
           vibrations may cause significant error
 Vibrational temperatures:     60.51    79.17    87.59   126.12   152.01
          (Kelvin)            220.02   309.01   309.85   336.76   361.24
                              400.46   433.14   467.89   561.36   602.68
                              670.23   714.49   819.87   921.83   975.79
                             1071.38  1104.92  1219.35  1298.60  1353.51
                             1363.43  1382.31  1407.84  1413.15  1461.97
                             1527.41  1528.13  1542.27  1581.52  1630.28
                             1677.79  1717.58  1733.13  1761.41  1860.64
                             1874.36  1942.12  1954.94  1988.54  1996.58
                             2018.37  2052.35  2055.53  2073.91  2083.81
                             2101.93  2163.74  2181.22  2188.24  2191.13
                             2195.37  2199.15  2202.59  2211.37  2222.36
                             2223.35  2510.40  4339.58  4349.88  4371.04
                             4374.73  4380.85  4385.80  4387.70  4404.66
                             4420.92  4451.31  4470.21  4472.08  4474.47
                             4484.98  4488.48  4506.22  4552.24  4592.84
                             5106.48

 Zero-point correction=                           0.269009 (Hartree/Particle)
 Thermal correction to Energy=                    0.282195
 Thermal correction to Enthalpy=                  0.283139
 Thermal correction to Gibbs Free Energy=         0.229107
 Sum of electronic and zero-point Energies=           -408.914959
 Sum of electronic and thermal Energies=              -408.901773
 Sum of electronic and thermal Enthalpies=            -408.900829
 Sum of electronic and thermal Free Energies=         -408.954861

                     E (Thermal)             CV                S
                      KCal/Mol        Cal/Mol-Kelvin    Cal/Mol-Kelvin
 Total                  177.080             47.639            113.719
 Electronic               0.000              0.000              0.000
 Translational            0.889              2.981             40.745
 Rotational               0.889              2.981             30.443
 Vibrational            175.302             41.677             42.531
 Vibration     1          0.595              1.980              5.160
 Vibration     2          0.596              1.976              4.628
 Vibration     3          0.597              1.973              4.429
 Vibration     4          0.601              1.958              3.712
 Vibration     5          0.605              1.945              3.347
 Vibration     6          0.619              1.899              2.636
 Vibration     7          0.645              1.818              2.003
 Vibration     8          0.645              1.818              1.998
 Vibration     9          0.654              1.789              1.848
 Vibration    10          0.663              1.761              1.723
 Vibration    11          0.679              1.714              1.544
 Vibration    12          0.693              1.672              1.411
 Vibration    13          0.709              1.625              1.284
 Vibration    14          0.758              1.491              1.000
 Vibration    15          0.782              1.429              0.896
 Vibration    16          0.823              1.326              0.749
 Vibration    17          0.852              1.258              0.667
 Vibration    18          0.926              1.096              0.505

                           ! Non-Optimized Parameters !

 1\1\GINC-NODE320\Freq\RB3LYP\6-31G(d)\C9H19N1\VSC10255\08-Dec-2020\0\\
 #N Geom=AllCheck Guess=TCheck SCRF=Check GenChk RB3LYP/6-31G(d) Freq\\
 CID_139426215_JID_351_neutraal\\0,1\C,1.095827905,0.2720481893,0.29509
 30155\C,0.6455109013,1.7028396285,0.6006349567\C,1.0448470929,2.747216
 3696,-0.4608182306\C,0.4998791987,2.463571369,-1.8790796468\C,-1.03289
 96494,2.5102446866,-1.9525778517\C,1.1224979751,3.4212083387,-2.901640
 0202\N,0.6841200106,4.1055681898,-0.0377563633\C,1.4567514285,4.717674
 2017,0.9479864241\C,1.027025107,5.5210039581,1.9351452096\C,-0.4101206

 Normal termination of Gaussian 16 at Tue Dec  8 10:42:34 2020.

 ----------------------------------------------------------------------
 # B3LYP/6-311++G(d,p) empiricaldispersion=gd3bj scf=xqc pop=npa geom=c
 heck
 ----------------------------------------------------------------------

 --------------------------------------
 CID_139426215_JID_351_Energie_neutraal
 --------------------------------------
 Structure from the checkpoint file:  "JID_351.chk"
 Charge =  0 Multiplicity = 1

 SCF Done:  E(RB3LYP) =  -409.304289496     A.U. after   13 cycles
 Normal termination of Gaussian 16 at Tue Dec  8 10:48:01 2020.

 ----------------------------------------------------------------------
 # B3LYP/6-311++G(d,p) empiricaldispersion=gd3bj scf=xqc pop=npa geom=c
 heck
 ----------------------------------------------------------------------

 ------------------------------------
 CID_139426215_JID_351_Energie_kation
 ------------------------------------
 Structure from the checkpoint file:  "JID_351.chk"
 Charge =  1 Multiplicity = 2

 SCF Done:  E(UB3LYP) =  -409.033535122     A.U. after   17 cycles
 Normal termination of Gaussian 16 at Tue Dec  8 10:53:35 2020.
 Gaussian 16:  ES64L-G16RevA.03 25-Dec-2016

 -----------------------------------
 CID_139426215_JID_351_Energie_anion
 -----------------------------------
 Structure from the checkpoint file:  "JID_351.chk"
 Charge = -1 Multiplicity = 2

                         Standard orientation:
 ---------------------------------------------------------------------
 Center     Atomic      Atomic             Coordinates (Angstroms)
 Number     Number       Type             X           Y           Z
 ---------------------------------------------------------------------
      1          6           0       -1.896389   -2.438390   -0.080383
      2          6           0       -0.638909   -1.617889    0.217657
      3          6           0       -0.609340   -0.220290   -0.432510
      4          6           0       -1.780322    0.703032   -0.026079
      5          6           0       -1.777801    1.051298    1.469145
      6          6           0       -1.790084    1.975830   -0.880621
      7          7           0        0.674700    0.451491   -0.199753
      8          6           0        1.786167    0.021138   -0.922774
      9          6           0        3.052734   -0.074485   -0.485565
     10          6           0        3.512108    0.188481    0.921787
     11          1           0       -2.789315   -2.002459    0.380226
     12          1           0       -1.795560   -3.460503    0.300666
     13          1           0       -2.078241   -2.503400   -1.160466
     14          1           0       -0.510399   -1.515558    1.303898
     15          1           0        0.246546   -2.158323   -0.139952
     16          1           0       -0.679356   -0.362095   -1.520546
     17          1           0       -2.704363    0.149152   -0.237676
     18          1           0       -0.892148    1.640053    1.738305
     19          1           0       -2.654278    1.658261    1.721012
     20          1           0       -1.800991    0.158753    2.103870
     21          1           0       -1.865185    1.734311   -1.947674
     22          1           0       -2.639760    2.617140   -0.619699
     23          1           0       -0.866553    2.543809   -0.732141
     24          1           0        0.869215    0.574501    0.788685
     25          1           0        1.553906   -0.201626   -1.962984
     26          1           0        3.813430   -0.329806   -1.218164
     27          1           0        4.337823   -0.478107    1.197445
     28          1           0        3.872342    1.218050    1.064134
     29          1           0        2.710997    0.025056    1.655385
 ---------------------------------------------------------------------

 SCF Done:  E(UB3LYP) =  -409.287573491     A.U. after   30 cycles

 The electronic state is 2-A.
 Alpha  occ. eigenvalues --  -14.21109 -10.09905 -10.09194 -10.06928 -10.06431
 Alpha  occ. eigenvalues --  -10.06093 -10.05642 -10.05318 -10.05157 -10.05067
 Alpha  occ. eigenvalues --   -0.82570  -0.70823  -0.66373  -0.65655  -0.58676
 Alpha  occ. eigenvalues --   -0.58076  -0.55662  -0.50435  -0.47017  -0.45372
 Alpha  occ. eigenvalues --   -0.38421  -0.37290  -0.35405  -0.34442  -0.33328
 Alpha  occ. eigenvalues --   -0.32620  -0.31016  -0.30540  -0.28493  -0.28050
 Alpha  occ. eigenvalues --   -0.27598  -0.26706  -0.25745  -0.25122  -0.24866
 Alpha  occ. eigenvalues --   -0.23051  -0.22647  -0.21475  -0.19603  -0.09773
 Alpha  occ. eigenvalues --    0.04637
 Alpha virt. eigenvalues --    0.06680   0.07254   0.07586   0.09088   0.09257
 Alpha virt. eigenvalues --    0.09803   0.09908   0.10541   0.11632   0.11740
 Alpha virt. eigenvalues --    0.12359   0.12642   0.12762   0.13100   0.14054

  Beta  occ. eigenvalues --  -14.21097 -10.09896 -10.09188 -10.06917 -10.06399
  Beta  occ. eigenvalues --  -10.06074 -10.05607 -10.05278 -10.05151 -10.05046
  Beta  occ. eigenvalues --   -0.82551  -0.70792  -0.66338  -0.65615  -0.58625
  Beta  occ. eigenvalues --   -0.58014  -0.55605  -0.50357  -0.46977  -0.45326
  Beta  occ. eigenvalues --   -0.38375  -0.37259  -0.35367  -0.34407  -0.33287
  Beta  occ. eigenvalues --   -0.32579  -0.30982  -0.30500  -0.28454  -0.28011
  Beta  occ. eigenvalues --   -0.27562  -0.26670  -0.25708  -0.25088  -0.24816
  Beta  occ. eigenvalues --   -0.23010  -0.22603  -0.21446  -0.19582  -0.09757
  Beta virt. eigenvalues --    0.06761   0.07476   0.07949   0.08199   0.09602
  Beta virt. eigenvalues --    0.09804   0.10192   0.10344   0.11149   0.11968
  Beta virt. eigenvalues --    0.12150   0.12700   0.12883   0.13061   0.13543

 Mulliken charges and spin densities:
               1          2
     1  C    0.985249  -1.675377
     2  C   -0.609879   0.492842
     3  C   -0.153059  -0.182443
     4  C   -1.192124   1.410609
     5  C    0.839678  -1.507429
     6  C    0.684045  -1.334655
     7  N    0.298999  -0.091885
     8  C    0.278807  -0.320480
     9  C   -0.282601   0.264190
    10  C    0.567328  -1.269130
    11  H   -0.198075   0.351022
    12  H   -0.385039   0.527513
    13  H   -0.302597   0.440723
    14  H   -0.047828   0.198276
    15  H    0.176366  -0.020646
    16  H    0.020787   0.162882
    17  H   -0.123469   0.296766
    18  H   -0.417084   0.546568
    19  H   -0.370859   0.529196
    20  H   -0.124952   0.261609
    21  H   -0.188312   0.307603
    22  H   -0.153082   0.297203
    23  H    0.082006   0.085854
    24  H    0.671647  -0.477775
    25  H   -0.157026   0.255482
    26  H   -0.117580   0.278160
    27  H   -0.206066   0.331710
    28  H   -0.072238   0.211056
    29  H   -0.503041   0.630555
 Sum of Mulliken charges =  -1.00000   1.00000

 Dipole moment (field-independent basis, Debye):
    X=              1.7392    Y=              0.6960    Z=             -2.1043  Tot=              2.8173
 Quadrupole moment (field-independent basis, Debye-Ang):
   XX=           -131.5823   YY=           -111.4329   ZZ=           -105.8588
   XY=             -0.6844   XZ=             -1.0077   YZ=             -0.9069

 Summary of Natural Population Analysis:

                                       Natural Population
                Natural  -----------------------------------------------
    Atom  No    Charge         Core      Valence    Rydberg      Total
 -----------------------------------------------------------------------
      C    1   -0.28696      0.99966     2.28216    0.00514     3.28696
      C    2   -0.19749      0.99962     2.18822    0.00965     3.19749
      C    3    0.00035      0.99956     1.98715    0.01294     2.99965
      C    4   -0.11759      0.99959     2.10657    0.01143     3.11759
      C    5   -0.28944      0.99965     2.28301    0.00679     3.28944
      C    6   -0.28222      0.99965     2.27747    0.00510     3.28222
      N    7   -0.32741      0.99970     2.81592    0.01180     3.82741
      C    8    0.01165      0.99951     1.97662    0.01222     2.98835
      C    9   -0.14831      0.99956     2.13876    0.00999     3.14831
      C   10   -0.30108      0.99966     2.29600    0.00542     3.30108
      H   11    0.09828      0.00000     0.40026    0.00145     0.40172
      H   12    0.10010      0.00000     0.39887    0.00103     0.39990
      H   13    0.09612      0.00000     0.40260    0.00128     0.40388
      H   14    0.09562      0.00000     0.40281    0.00157     0.40438
      H   15    0.09978      0.00000     0.39894    0.00127     0.40022
      H   16    0.09252      0.00000     0.40539    0.00209     0.40748
      H   17    0.09795      0.00000     0.39995    0.00210     0.40205
      H   18    0.09520      0.00000     0.40335    0.00145     0.40480
      H   19    0.10240      0.00000     0.39638    0.00122     0.39760
      H   20    0.10139      0.00000     0.39720    0.00141     0.39861
      H   21    0.09693      0.00000     0.40190    0.00118     0.40307
      H   22    0.09733      0.00000     0.40169    0.00098     0.40267
      H   23    0.10255      0.00000     0.39619    0.00126     0.39745
      H   24    0.18149      0.00000     0.31471    0.00381     0.31851
      H   25    0.09090      0.00000     0.40790    0.00119     0.40910
      H   26    0.09411      0.00000     0.40499    0.00090     0.40589
      H   27    0.10108      0.00000     0.39746    0.00146     0.39892
      H   28    0.09843      0.00000     0.39973    0.00183     0.40157
      H   29    0.09632      0.00000     0.40192    0.00176     0.40368
 =======================================================================
   * Total *   -0.00000      9.99614    29.88411    0.11975    40.00000

 Normal termination of Gaussian 16 at Tue Dec  8 11:03:33 2020.
