 Gaussian 16, Revision A.03,

 -----------------------------------------------------------
 # opt freq B3LYP/6-31G(d) empiricaldispersion=gd3bj scf=xqc
 -----------------------------------------------------------

 -------------------------------
 CID_118540617_JID_2109_neutraal
 -------------------------------
 Symbolic Z-matrix:
 Charge =  0 Multiplicity = 1

 SCF Done:  E(RB3LYP) =  -596.710706287     A.U. after   13 cycles
 SCF Done:  E(RB3LYP) =  -596.713590971     A.U. after   11 cycles
 SCF Done:  E(RB3LYP) =  -596.594593295     A.U. after   13 cycles
 SCF Done:  E(RB3LYP) =  -596.703889579     A.U. after   12 cycles
 SCF Done:  E(RB3LYP) =  -596.714008006     A.U. after   10 cycles
 SCF Done:  E(RB3LYP) =  -596.714524409     A.U. after   10 cycles
 SCF Done:  E(RB3LYP) =  -596.714714712     A.U. after   10 cycles
 SCF Done:  E(RB3LYP) =  -596.715297132     A.U. after   10 cycles
 SCF Done:  E(RB3LYP) =  -596.715451866     A.U. after   10 cycles
 SCF Done:  E(RB3LYP) =  -596.715493233     A.U. after   10 cycles
 SCF Done:  E(RB3LYP) =  -596.715596101     A.U. after    9 cycles
 SCF Done:  E(RB3LYP) =  -596.715602484     A.U. after    9 cycles
 SCF Done:  E(RB3LYP) =  -596.715603746     A.U. after    7 cycles
 SCF Done:  E(RB3LYP) =  -596.715604335     A.U. after    7 cycles
 SCF Done:  E(RB3LYP) =  -596.715604603     A.U. after    7 cycles
 SCF Done:  E(RB3LYP) =  -596.715604698     A.U. after    7 cycles
 Optimization completed.
    -- Stationary point found.
 Normal termination of Gaussian 16 at Wed Dec  9 16:53:39 2020.

 --------------------------------------------------------------------
 #N Geom=AllCheck Guess=TCheck SCRF=Check GenChk RB3LYP/6-31G(d) Freq
 --------------------------------------------------------------------

 Structure from the checkpoint file:  "JID_2109.chk"
 -------------------------------
 CID_118540617_JID_2109_neutraal
 -------------------------------
 Charge =  0 Multiplicity = 1

 SCF Done:  E(RB3LYP) =  -596.715604698     A.U. after    1 cycles

  Exact polarizability: 111.106  -1.130 103.708   0.988   4.105  96.722
 Approx polarizability: 140.994  -2.267 139.183   2.274   5.285 135.619

                      1                      2                      3
                      A                      A                      A
 Frequencies --     33.4264                44.0852                84.0432
 Red. masses --      3.3884                 3.8595                 2.9905
 Frc consts  --      0.0022                 0.0044                 0.0124
 IR Inten    --      0.0976                 0.2136                 8.7311

                      4                      5                      6
                      A                      A                      A
 Frequencies --     94.4600               109.3047               125.3959
 Red. masses --      3.9978                 2.5619                 3.4098
 Frc consts  --      0.0210                 0.0180                 0.0316
 IR Inten    --      0.7493                 3.8089                 5.3847

                      7                      8                      9
                      A                      A                      A
 Frequencies --    171.3419               213.3847               222.2233
 Red. masses --      3.6069                 1.7513                 1.1199
 Frc consts  --      0.0624                 0.0470                 0.0326
 IR Inten    --      3.1749                 4.7690                 0.5483

                     10                     11                     12
                      A                      A                      A
 Frequencies --    234.3950               251.5988               276.0077
 Red. masses --      1.2726                 1.7230                 2.5807
 Frc consts  --      0.0412                 0.0643                 0.1158
 IR Inten    --      0.7228                10.2449                 1.2026

                     13                     14                     15
                      A                      A                      A
 Frequencies --    305.5088               316.0594               340.6547
 Red. masses --      2.0737                 3.0172                 2.5621
 Frc consts  --      0.1140                 0.1776                 0.1752
 IR Inten    --      0.3465                 3.6206                 1.8980

                     16                     17                     18
                      A                      A                      A
 Frequencies --    362.4104               385.7752               444.5158
 Red. masses --      2.4578                 2.7568                 2.4790
 Frc consts  --      0.1902                 0.2417                 0.2886
 IR Inten    --      5.2390                 2.4876                 8.1278

                     19                     20                     21
                      A                      A                      A
 Frequencies --    515.8244               517.7399               544.6489
 Red. masses --      2.7111                 2.7342                 1.7953
 Frc consts  --      0.4250                 0.4318                 0.3138
 IR Inten    --     14.0601                 3.6635                16.0212

                     22                     23                     24
                      A                      A                      A
 Frequencies --    591.5097               615.8744               798.3870
 Red. masses --      1.7302                 1.5013                 2.9617
 Frc consts  --      0.3567                 0.3355                 1.1123
 IR Inten    --     15.8667                23.6075                15.1515

                     25                     26                     27
                      A                      A                      A
 Frequencies --    813.9233               838.7339               890.7660
 Red. masses --      2.6838                 2.5576                 2.6539
 Frc consts  --      1.0475                 1.0601                 1.2407
 IR Inten    --      6.4120                76.0036                17.9571

                     28                     29                     30
                      A                      A                      A
 Frequencies --    929.7997               966.4543               989.6265
 Red. masses --      2.0065                 2.6109                 2.2883
 Frc consts  --      1.0221                 1.4368                 1.3204
 IR Inten    --     10.5011               117.9395                65.8045

                     31                     32                     33
                      A                      A                      A
 Frequencies --   1035.5497              1078.5519              1084.5032
 Red. masses --      2.1846                 1.9187                 1.8424
 Frc consts  --      1.3802                 1.3150                 1.2767
 IR Inten    --      2.2956                38.3424                98.9488

                     34                     35                     36
                      A                      A                      A
 Frequencies --   1099.9558              1114.1434              1117.5793
 Red. masses --      2.9521                 2.0477                 1.9209
 Frc consts  --      2.1044                 1.4976                 1.4136
 IR Inten    --     34.0177                31.9904                14.1922

                     37                     38                     39
                      A                      A                      A
 Frequencies --   1119.3326              1137.5804              1146.3552
 Red. masses --      3.0720                 1.3515                 2.2300
 Frc consts  --      2.2677                 1.0305                 1.7266
 IR Inten    --     35.6736                 8.9335                34.6367

                     40                     41                     42
                      A                      A                      A
 Frequencies --   1162.3021              1181.3735              1206.2155
 Red. masses --      1.9100                 4.7180                 1.4932
 Frc consts  --      1.5203                 3.8795                 1.2800
 IR Inten    --     49.6208               126.9775                 1.1173

                     43                     44                     45
                      A                      A                      A
 Frequencies --   1262.9570              1267.5205              1282.0493
 Red. masses --      2.7269                 1.0996                 1.1246
 Frc consts  --      2.5627                 1.0408                 1.0891
 IR Inten    --     21.2835                 3.3536                 7.8381

                     46                     47                     48
                      A                      A                      A
 Frequencies --   1333.0734              1344.2625              1356.7698
 Red. masses --      1.1341                 1.9797                 1.2264
 Frc consts  --      1.1875                 2.1078                 1.3301
 IR Inten    --     20.8404                34.3923                23.2112

                     49                     50                     51
                      A                      A                      A
 Frequencies --   1379.6024              1394.7114              1413.6947
 Red. masses --      1.2744                 1.2258                 1.2414
 Frc consts  --      1.4291                 1.4048                 1.4617
 IR Inten    --     21.6154                 3.8449                 9.5855

                     52                     53                     54
                      A                      A                      A
 Frequencies --   1423.2951              1435.9502              1444.8969
 Red. masses --      1.2417                 1.3343                 1.3601
 Frc consts  --      1.4820                 1.6211                 1.6730
 IR Inten    --     18.3924                19.8697                19.2076

                     55                     56                     57
                      A                      A                      A
 Frequencies --   1453.5480              1472.3099              1485.7845
 Red. masses --      1.3733                 1.1529                 1.2291
 Frc consts  --      1.7095                 1.4724                 1.5987
 IR Inten    --      9.9195                 2.9894                69.8421

                     58                     59                     60
                      A                      A                      A
 Frequencies --   1501.2878              1512.7114              1519.4177
 Red. masses --      1.1402                 1.0490                 1.0776
 Frc consts  --      1.5141                 1.4143                 1.4657
 IR Inten    --      2.8926                 6.3900                 4.9297

                     61                     62                     63
                      A                      A                      A
 Frequencies --   1521.9561              1524.6812              1530.0446
 Red. masses --      1.0585                 1.0886                 1.0823
 Frc consts  --      1.4446                 1.4909                 1.4929
 IR Inten    --      9.8330                 1.4486                 1.0917

                     64                     65                     66
                      A                      A                      A
 Frequencies --   1535.9282              1539.3614              1540.9636
 Red. masses --      1.0938                 1.0652                 1.0631
 Frc consts  --      1.5204                 1.4872                 1.4874
 IR Inten    --      9.8798                 2.6852                 7.6337

                     67                     68                     69
                      A                      A                      A
 Frequencies --   1542.3285              1555.6233              2981.3985
 Red. masses --      1.0723                 1.0619                 1.0715
 Frc consts  --      1.5028                 1.5141                 5.6116
 IR Inten    --      9.3060                 7.4611                90.4081

                     70                     71                     72
                      A                      A                      A
 Frequencies --   2991.4872              3007.8558              3011.3736
 Red. masses --      1.0620                 1.0493                 1.0649
 Frc consts  --      5.5993                 5.5934                 5.6898
 IR Inten    --     32.2379                24.8375                75.8239

                     73                     74                     75
                      A                      A                      A
 Frequencies --   3017.3398              3033.3937              3042.7188
 Red. masses --      1.0687                 1.0665                 1.0917
 Frc consts  --      5.7324                 5.7821                 5.9548
 IR Inten    --     26.3152                32.1063                24.2371

                     76                     77                     78
                      A                      A                      A
 Frequencies --   3059.5916              3064.7308              3071.0715
 Red. masses --      1.0664                 1.0903                 1.0365
 Frc consts  --      5.8818                 6.0338                 5.7598
 IR Inten    --     45.6324                62.5319                13.5493

                     79                     80                     81
                      A                      A                      A
 Frequencies --   3086.8703              3096.4480              3097.9302
 Red. masses --      1.0877                 1.0860                 1.0991
 Frc consts  --      6.1065                 6.1351                 6.2151
 IR Inten    --     40.6925                48.4849                39.6142

                     82                     83                     84
                      A                      A                      A
 Frequencies --   3105.7327              3122.5726              3137.9373
 Red. masses --      1.1065                 1.1037                 1.1022
 Frc consts  --      6.2883                 6.3408                 6.3946
 IR Inten    --     31.0655                29.5862                33.4056

                     85                     86                     87
                      A                      A                      A
 Frequencies --   3145.1383              3155.0851              3629.2487
 Red. masses --      1.1016                 1.1009                 1.0674
 Frc consts  --      6.4203                 6.4571                 8.2831
 IR Inten    --     18.8497                22.5343               358.6923

 - Thermochemistry -
 -------------------
 Temperature   298.150 Kelvin.  Pressure   1.00000 Atm.
 Atom     1 has atomic number  6 and mass  12.00000

 Molecular mass:   177.13649 amu.
 Principal axes and moments of inertia in atomic units:
                           1         2         3
     Eigenvalues --  1429.786522974.859383492.64777
           X            1.00000   0.00254   0.00002
           Y           -0.00254   0.99995   0.01008
           Z            0.00000  -0.01008   0.99995
 This molecule is an asymmetric top.
 Rotational symmetry number  1.
 Warning -- assumption of classical behavior for rotation
           may cause significant error
 Rotational temperatures (Kelvin)      0.06058     0.02912     0.02480
 Rotational constants (GHZ):           1.26225     0.60666     0.51673
 Zero-point vibrational energy     735368.3 (Joules/Mol)
                                  175.75724 (Kcal/Mol)
 Warning -- explicit consideration of  23 degrees of freedom as
           vibrations may cause significant error
 Vibrational temperatures:     48.09    63.43   120.92   135.91   157.27
          (Kelvin)            180.42   246.52   307.01   319.73   337.24
                              361.99   397.11   439.56   454.74   490.13
                              521.43   555.04   639.56   742.16   744.91
                              783.63   851.05   886.11  1148.70  1171.05
                             1206.75  1281.61  1337.77  1390.51  1423.85
                             1489.93  1551.80  1560.36  1582.59  1603.00
                             1607.95  1610.47  1636.72  1649.35  1672.29
                             1699.73  1735.48  1817.11  1823.68  1844.58
                             1918.00  1934.09  1952.09  1984.94  2006.68
                             2033.99  2047.80  2066.01  2078.88  2091.33
                             2118.33  2137.71  2160.02  2176.45  2186.10
                             2189.76  2193.68  2201.39  2209.86  2214.80
                             2217.10  2219.07  2238.20  4289.57  4304.08
                             4327.63  4332.69  4341.28  4364.38  4377.79
                             4402.07  4409.46  4418.59  4441.32  4455.10
                             4457.23  4468.46  4492.69  4514.79  4525.15
                             4539.46  5221.68

 Zero-point correction=                           0.280087 (Hartree/Particle)
 Thermal correction to Energy=                    0.294583
 Thermal correction to Enthalpy=                  0.295527
 Thermal correction to Gibbs Free Energy=         0.238492
 Sum of electronic and zero-point Energies=           -596.435518
 Sum of electronic and thermal Energies=              -596.421022
 Sum of electronic and thermal Enthalpies=            -596.420077
 Sum of electronic and thermal Free Energies=         -596.477113

                     E (Thermal)             CV                S
                      KCal/Mol        Cal/Mol-Kelvin    Cal/Mol-Kelvin
 Total                  184.854             52.698            120.042
 Electronic               0.000              0.000              0.000
 Translational            0.889              2.981             41.422
 Rotational               0.889              2.981             31.075
 Vibrational            183.076             46.736             47.545
 Vibration     1          0.594              1.983              5.615
 Vibration     2          0.595              1.980              5.067
 Vibration     3          0.601              1.960              3.794
 Vibration     4          0.603              1.953              3.566
 Vibration     5          0.606              1.942              3.281
 Vibration     6          0.610              1.928              3.015
 Vibration     7          0.626              1.878              2.421
 Vibration     8          0.644              1.821              2.015
 Vibration     9          0.648              1.807              1.941
 Vibration    10          0.654              1.788              1.845
 Vibration    11          0.664              1.760              1.719
 Vibration    12          0.678              1.718              1.558
 Vibration    13          0.696              1.663              1.387
 Vibration    14          0.703              1.643              1.330
 Vibration    15          0.720              1.594              1.209
 Vibration    16          0.736              1.550              1.112
 Vibration    17          0.754              1.501              1.016
 Vibration    18          0.804              1.373              0.813
 Vibration    19          0.871              1.215              0.620
 Vibration    20          0.873              1.211              0.615
 Vibration    21          0.900              1.151              0.555
 Vibration    22          0.949              1.050              0.464
 Vibration    23          0.975              0.998              0.423

                           ! Non-Optimized Parameters !
 Normal termination of Gaussian 16 at Wed Dec  9 17:01:37 2020.

 ----------------------------------------------------------------------
 # B3LYP/6-311++G(d,p) empiricaldispersion=gd3bj scf=xqc pop=npa geom=c
 heck
 ----------------------------------------------------------------------

 ---------------------------------------
 CID_118540617_JID_2109_Energie_neutraal
 ---------------------------------------
 Structure from the checkpoint file:  "JID_2109.chk"
 Charge =  0 Multiplicity = 1

 SCF Done:  E(RB3LYP) =  -596.900669425     A.U. after   13 cycles
 Normal termination of Gaussian 16 at Wed Dec  9 17:04:34 2020.

 ----------------------------------------------------------------------
 # B3LYP/6-311++G(d,p) empiricaldispersion=gd3bj scf=xqc pop=npa geom=c
 heck
 ----------------------------------------------------------------------

 -------------------------------------
 CID_118540617_JID_2109_Energie_kation
 -------------------------------------
 Structure from the checkpoint file:  "JID_2109.chk"
 Charge =  1 Multiplicity = 2

 SCF Done:  E(UB3LYP) =  -596.600112333     A.U. after   22 cycles
 Normal termination of Gaussian 16 at Wed Dec  9 17:10:51 2020.
 Gaussian 16:  ES64L-G16RevA.03 25-Dec-2016

 ----------------------------------------------------------------------
 # B3LYP/6-311++G(d,p) empiricaldispersion=gd3bj scf=xqc pop=npa geom=c
 heck
 ----------------------------------------------------------------------

 ------------------------------------
 CID_118540617_JID_2109_Energie_anion
 ------------------------------------
 Structure from the checkpoint file:  "JID_2109.chk"
 Charge = -1 Multiplicity = 2

                         Standard orientation:
 ---------------------------------------------------------------------
 Center     Atomic      Atomic             Coordinates (Angstroms)
 Number     Number       Type             X           Y           Z
 ---------------------------------------------------------------------
      1          6           0       -1.937772   -1.653099    1.261282
      2          6           0       -1.679639   -0.870277   -0.021610
      3          7           0       -2.441458    0.335015   -0.130311
      4          6           0       -2.346514    0.954793   -1.449959
      5          6           0       -2.249904    1.318610    0.934289
      6          8           0       -0.259041   -0.572461   -0.134609
      7          6           0        0.576979   -1.620779   -0.611303
      8          6           0        1.934471   -1.054628   -1.014552
      9          8           0        2.808865   -0.772075    0.067389
     10          6           0        2.409406    0.232983    0.994662
     11          6           0        2.253250    1.640397    0.423520
     12          8           0        1.115965    1.830050   -0.408587
     13          1           0       -1.541359   -1.125929    2.133059
     14          1           0       -1.445190   -2.628799    1.210889
     15          1           0       -3.011402   -1.813015    1.395672
     16          1           0       -1.941070   -1.495046   -0.888542
     17          1           0       -3.112732    1.732415   -1.535317
     18          1           0       -1.365752    1.414570   -1.648780
     19          1           0       -2.538875    0.201435   -2.221251
     20          1           0       -3.004176    2.104089    0.820814
     21          1           0       -2.397395    0.857071    1.913015
     22          1           0       -1.257509    1.796369    0.910604
     23          1           0        0.713910   -2.395751    0.156496
     24          1           0        0.109202   -2.089978   -1.492582
     25          1           0        2.457764   -1.816050   -1.602953
     26          1           0        1.780826   -0.172280   -1.648103
     27          1           0        1.483444   -0.058908    1.510023
     28          1           0        3.213395    0.251867    1.738474
     29          1           0        2.214861    2.336090    1.279284
     30          1           0        3.147405    1.891435   -0.161453
     31          1           0        0.496887    1.093205   -0.248679
 ---------------------------------------------------------------------

 SCF Done:  E(UB3LYP) =  -596.885578957     A.U. after   27 cycles

 The electronic state is 2-A.
 Alpha  occ. eigenvalues --  -19.03104 -19.02675 -19.00787 -14.21096 -10.14940
 Alpha  occ. eigenvalues --  -10.11930 -10.11819 -10.11724 -10.11693 -10.08658
 Alpha  occ. eigenvalues --  -10.08606 -10.05912  -0.95086  -0.93330  -0.90966
 Alpha  occ. eigenvalues --   -0.82444  -0.67671  -0.65129  -0.61968  -0.60891
 Alpha  occ. eigenvalues --   -0.56416  -0.53930  -0.49890  -0.47779  -0.42133
 Alpha  occ. eigenvalues --   -0.41151  -0.39997  -0.38979  -0.37885  -0.36885
 Alpha  occ. eigenvalues --   -0.34986  -0.34570  -0.33424  -0.32286  -0.31426
 Alpha  occ. eigenvalues --   -0.29973  -0.29290  -0.28911  -0.28264  -0.27632
 Alpha  occ. eigenvalues --   -0.27111  -0.25958  -0.25173  -0.23312  -0.21164
 Alpha  occ. eigenvalues --   -0.17907  -0.17266  -0.15429  -0.12882   0.04578
 Alpha virt. eigenvalues --    0.06835   0.07139   0.07558   0.08913   0.09641
 Alpha virt. eigenvalues --    0.09655   0.10059   0.10444   0.11555   0.12212
 Alpha virt. eigenvalues --    0.12570   0.12782   0.13550   0.13616   0.14745

  Beta  occ. eigenvalues --  -19.03096 -19.02675 -19.00786 -14.21095 -10.14921
  Beta  occ. eigenvalues --  -10.11895 -10.11805 -10.11711 -10.11684 -10.08638
  Beta  occ. eigenvalues --  -10.08576 -10.05872  -0.95072  -0.93321  -0.90962
  Beta  occ. eigenvalues --   -0.82427  -0.67635  -0.65092  -0.61927  -0.60844
  Beta  occ. eigenvalues --   -0.56358  -0.53885  -0.49847  -0.47717  -0.42085
  Beta  occ. eigenvalues --   -0.41125  -0.39964  -0.38959  -0.37851  -0.36842
  Beta  occ. eigenvalues --   -0.34951  -0.34541  -0.33399  -0.32262  -0.31401
  Beta  occ. eigenvalues --   -0.29935  -0.29256  -0.28875  -0.28232  -0.27590
  Beta  occ. eigenvalues --   -0.27072  -0.25916  -0.25148  -0.23273  -0.21150
  Beta  occ. eigenvalues --   -0.17894  -0.17236  -0.15417  -0.12867
  Beta virt. eigenvalues --    0.06808   0.07586   0.08001   0.08267   0.09554
  Beta virt. eigenvalues --    0.09892   0.10179   0.10554   0.11028   0.11933
  Beta virt. eigenvalues --    0.12543   0.12978   0.13098   0.13868   0.14074

 Mulliken charges and spin densities:
               1          2
     1  C    2.287421  -2.841229
     2  C   -1.982690   1.529709
     3  N   -0.059099   0.165180
     4  C    0.070231  -0.327790
     5  C    0.614361  -0.920378
     6  O   -0.123160   0.020572
     7  C    0.769238  -0.790425
     8  C    0.073409  -0.641137
     9  O   -0.085132   0.011384
    10  C   -0.186198  -0.078878
    11  C    0.158563  -0.426364
    12  O   -0.333758   0.008530
    13  H   -0.124354   0.271067
    14  H   -0.520664   0.674298
    15  H   -0.265902   0.450408
    16  H   -0.207628   0.371261
    17  H   -0.114515   0.245019
    18  H    0.074726   0.079102
    19  H   -0.307490   0.448645
    20  H    0.017388   0.130819
    21  H   -0.291023   0.425088
    22  H   -0.115918   0.269799
    23  H   -0.153837   0.344807
    24  H   -0.391079   0.516553
    25  H   -0.422148   0.602943
    26  H    0.178564   0.002806
    27  H    0.187324  -0.014842
    28  H   -0.261904   0.430880
    29  H   -0.043861   0.170901
    30  H    0.097740   0.055160
    31  H    0.461397  -0.183888
 Sum of Mulliken charges =  -1.00000   1.00000

 Dipole moment (field-independent basis, Debye):
    X=              2.2774    Y=              3.9075    Z=             -0.1504  Tot=              4.5252
 Quadrupole moment (field-independent basis, Debye-Ang):
   XX=           -131.6214   YY=           -127.2836   ZZ=           -116.6938
   XY=             -1.7888   XZ=              1.7624   YZ=             -2.2975

 Summary of Natural Population Analysis:

                                       Natural Population
                Natural  -----------------------------------------------
    Atom  No    Charge         Core      Valence    Rydberg      Total
 -----------------------------------------------------------------------
      C    1   -0.29887      0.99963     2.29331    0.00592     3.29887
      C    2    0.16489      0.99955     1.81835    0.01721     2.83511
      N    3   -0.28004      0.99971     2.76616    0.01416     3.78004
      C    4   -0.17764      0.99964     2.16954    0.00847     3.17764
      C    5   -0.18119      0.99963     2.17294    0.00863     3.18119
      O    6   -0.33661      0.99987     3.32493    0.01181     4.33661
      C    7   -0.02371      0.99957     2.01202    0.01212     3.02371
      C    8   -0.02290      0.99956     2.00931    0.01403     3.02290
      O    9   -0.30252      0.99989     3.29268    0.00995     4.30252
      C   10   -0.02801      0.99957     2.01559    0.01285     3.02801
      C   11   -0.02423      0.99960     2.01259    0.01204     3.02423
      O   12   -0.38998      0.99989     3.38309    0.00699     4.38998
      H   13    0.10177      0.00000     0.39677    0.00146     0.39823
      H   14    0.10516      0.00000     0.39333    0.00151     0.39484
      H   15    0.10703      0.00000     0.39131    0.00166     0.39297
      H   16    0.08606      0.00000     0.41127    0.00267     0.41394
      H   17    0.09255      0.00000     0.40649    0.00096     0.40745
      H   18    0.08894      0.00000     0.40946    0.00160     0.41106
      H   19    0.09724      0.00000     0.40155    0.00120     0.40276
      H   20    0.09405      0.00000     0.40492    0.00104     0.40595
      H   21    0.09852      0.00000     0.40038    0.00110     0.40148
      H   22    0.08785      0.00000     0.41042    0.00174     0.41215
      H   23    0.08674      0.00000     0.41138    0.00187     0.41326
      H   24    0.08889      0.00000     0.40826    0.00286     0.41111
      H   25    0.09376      0.00000     0.40479    0.00145     0.40624
      H   26    0.08910      0.00000     0.40911    0.00180     0.41090
      H   27    0.08713      0.00000     0.41087    0.00200     0.41287
      H   28    0.09158      0.00000     0.40706    0.00135     0.40842
      H   29    0.07819      0.00000     0.42048    0.00133     0.42181
      H   30    0.08130      0.00000     0.41736    0.00134     0.41870
      H   31    0.24494      0.00000     0.25035    0.00471     0.25506
 =======================================================================
   * Total *   -0.00000     11.99611    36.83607    0.16783    49.00000

 Normal termination of Gaussian 16 at Wed Dec  9 17:18:39 2020.
