 Gaussian 16, Revision A.03,

 -----------------------------------------------------------
 # opt freq B3LYP/6-31G(d) empiricaldispersion=gd3bj scf=xqc
 -----------------------------------------------------------

 ------------------------------
 CID_43575703_JID_9328_neutraal
 ------------------------------
 Symbolic Z-matrix:
 Charge =  0 Multiplicity = 1

 SCF Done:  E(RB3LYP) =  -770.625763192     A.U. after   14 cycles
 SCF Done:  E(RB3LYP) =  -770.589021527     A.U. after   13 cycles
 SCF Done:  E(RB3LYP) =  -770.631439372     A.U. after   12 cycles
 SCF Done:  E(RB3LYP) =  -770.632378176     A.U. after   12 cycles
 SCF Done:  E(RB3LYP) =  -770.633346895     A.U. after   12 cycles
 SCF Done:  E(RB3LYP) =  -770.632140788     A.U. after   12 cycles
 SCF Done:  E(RB3LYP) =  -770.634248705     A.U. after   12 cycles
 SCF Done:  E(RB3LYP) =  -770.634720310     A.U. after   12 cycles
 SCF Done:  E(RB3LYP) =  -770.635007460     A.U. after   11 cycles
 SCF Done:  E(RB3LYP) =  -770.635107723     A.U. after   11 cycles
 SCF Done:  E(RB3LYP) =  -770.635161358     A.U. after    9 cycles
 SCF Done:  E(RB3LYP) =  -770.635162712     A.U. after    8 cycles
 SCF Done:  E(RB3LYP) =  -770.635162834     A.U. after    7 cycles
 SCF Done:  E(RB3LYP) =  -770.635162869     A.U. after    6 cycles
 SCF Done:  E(RB3LYP) =  -770.635162908     A.U. after    6 cycles
 Optimization completed.
    -- Stationary point found.
 Normal termination of Gaussian 16 at Sat Dec 12 09:41:34 2020.

 --------------------------------------------------------------------
 #N Geom=AllCheck Guess=TCheck SCRF=Check GenChk RB3LYP/6-31G(d) Freq
 --------------------------------------------------------------------

 Structure from the checkpoint file:  "JID_9328.chk"
 ------------------------------
 CID_43575703_JID_9328_neutraal
 ------------------------------
 Charge =  0 Multiplicity = 1

 SCF Done:  E(RB3LYP) =  -770.635162908     A.U. after    1 cycles

  Exact polarizability: 201.089 -16.518 129.807  -1.253   2.138 198.407
 Approx polarizability: 325.968 -34.822 182.458  -0.941   4.784 340.419

                      1                      2                      3
                      A                      A                      A
 Frequencies --     29.5315                50.9350                69.1421
 Red. masses --      4.5034                 4.3370                 3.5194
 Frc consts  --      0.0023                 0.0066                 0.0099
 IR Inten    --      0.0217                 0.0712                 0.3215

                      4                      5                      6
                      A                      A                      A
 Frequencies --     86.7064               112.2572               116.7813
 Red. masses --      3.6847                 3.5755                 2.9185
 Frc consts  --      0.0163                 0.0265                 0.0235
 IR Inten    --      0.3700                 0.9253                 0.4375

                      7                      8                      9
                      A                      A                      A
 Frequencies --    128.2933               165.3203               190.0518
 Red. masses --      2.8569                 1.2149                 2.9218
 Frc consts  --      0.0277                 0.0196                 0.0622
 IR Inten    --      1.6574                 0.8083                 0.4517

                     10                     11                     12
                      A                      A                      A
 Frequencies --    198.5007               218.6713               247.0916
 Red. masses --      2.6221                 2.7407                 2.0178
 Frc consts  --      0.0609                 0.0772                 0.0726
 IR Inten    --      4.6087                 0.8373                 0.7361

                     13                     14                     15
                      A                      A                      A
 Frequencies --    261.6542               263.6351               303.5408
 Red. masses --      2.0250                 1.9628                 1.9673
 Frc consts  --      0.0817                 0.0804                 0.1068
 IR Inten    --      2.7048                 1.8245                25.4666

                     16                     17                     18
                      A                      A                      A
 Frequencies --    318.2485               342.7770               355.2884
 Red. masses --      2.7879                 1.8538                 3.2108
 Frc consts  --      0.1664                 0.1283                 0.2388
 IR Inten    --      3.5911                20.7364                 2.2804

                     19                     20                     21
                      A                      A                      A
 Frequencies --    369.3910               414.0523               432.9370
 Red. masses --      2.2583                 2.1029                 3.1751
 Frc consts  --      0.1815                 0.2124                 0.3506
 IR Inten    --      8.1002                 1.1412                 1.1062

                     22                     23                     24
                      A                      A                      A
 Frequencies --    465.6662               471.6266               491.2913
 Red. masses --      2.8750                 3.1848                 3.7623
 Frc consts  --      0.3673                 0.4174                 0.5350
 IR Inten    --      2.9589                 2.6919                 2.1926

                     25                     26                     27
                      A                      A                      A
 Frequencies --    511.9721               530.2696               548.0246
 Red. masses --      3.6506                 3.6804                 4.1093
 Frc consts  --      0.5638                 0.6097                 0.7271
 IR Inten    --      1.8859                 2.6098                 0.5567

                     28                     29                     30
                      A                      A                      A
 Frequencies --    588.0695               620.9205               641.7491
 Red. masses --      4.2927                 5.6651                 5.2694
 Frc consts  --      0.8747                 1.2869                 1.2786
 IR Inten    --      4.6606                 1.1403                 0.4585

                     31                     32                     33
                      A                      A                      A
 Frequencies --    722.2486               743.4453               762.6237
 Red. masses --      3.8401                 3.0743                 1.4509
 Frc consts  --      1.1802                 1.0011                 0.4972
 IR Inten    --      0.3303                 3.5253                 0.9443

                     34                     35                     36
                      A                      A                      A
 Frequencies --    763.7522               784.1243               794.2408
 Red. masses --      1.5672                 2.0408                 3.5706
 Frc consts  --      0.5386                 0.7393                 1.3271
 IR Inten    --     66.1844                22.4697                 5.2916

                     37                     38                     39
                      A                      A                      A
 Frequencies --    843.8541               865.3943               877.9062
 Red. masses --      4.0522                 3.2755                 1.4598
 Frc consts  --      1.7001                 1.4453                 0.6629
 IR Inten    --      3.7204                 6.4688                14.7315

                     40                     41                     42
                      A                      A                      A
 Frequencies --    889.8106               897.5630               913.3757
 Red. masses --      1.8871                 1.6662                 1.5329
 Frc consts  --      0.8803                 0.7909                 0.7535
 IR Inten    --      4.8817                36.0783                51.6508

                     43                     44                     45
                      A                      A                      A
 Frequencies --    944.6030               955.6118               971.2264
 Red. masses --      1.3876                 1.3445                 1.8036
 Frc consts  --      0.7295                 0.7234                 1.0024
 IR Inten    --      3.7998                 9.9152                 5.2436

                     46                     47                     48
                      A                      A                      A
 Frequencies --    980.8607               993.5866              1012.1565
 Red. masses --      1.2458                 1.2652                 1.9022
 Frc consts  --      0.7062                 0.7359                 1.1481
 IR Inten    --      0.5820                 3.2460                17.8892

                     49                     50                     51
                      A                      A                      A
 Frequencies --   1022.0029              1032.8252              1051.7131
 Red. masses --      1.5826                 1.9218                 2.1592
 Frc consts  --      0.9739                 1.2078                 1.4071
 IR Inten    --      2.0649                18.3865                22.0467

                     52                     53                     54
                      A                      A                      A
 Frequencies --   1070.4854              1075.8360              1082.8876
 Red. masses --      2.6159                 1.5508                 2.1067
 Frc consts  --      1.7662                 1.0575                 1.4555
 IR Inten    --      1.5908                10.1248                 2.3120

                     55                     56                     57
                      A                      A                      A
 Frequencies --   1084.9746              1131.7959              1134.1239
 Red. masses --      2.0214                 2.0739                 2.0549
 Frc consts  --      1.4020                 1.5652                 1.5573
 IR Inten    --      5.9944                16.4097                 1.3254

                     58                     59                     60
                      A                      A                      A
 Frequencies --   1165.1349              1177.5567              1192.8855
 Red. masses --      1.4278                 2.1200                 1.2230
 Frc consts  --      1.1420                 1.7320                 1.0254
 IR Inten    --      6.6332                14.5133                 3.5007

                     61                     62                     63
                      A                      A                      A
 Frequencies --   1194.7734              1195.8142              1213.1991
 Red. masses --      1.0977                 1.1665                 2.1370
 Frc consts  --      0.9232                 0.9828                 1.8532
 IR Inten    --      0.7111                 1.2448                 2.3014

                     64                     65                     66
                      A                      A                      A
 Frequencies --   1216.2746              1236.9285              1250.3919
 Red. masses --      1.8453                 1.6328                 2.6896
 Frc consts  --      1.6083                 1.4719                 2.4776
 IR Inten    --      1.8545                 5.0202                 5.5289

                     67                     68                     69
                      A                      A                      A
 Frequencies --   1253.1849              1280.8835              1309.7921
 Red. masses --      2.5789                 1.7029                 1.5294
 Frc consts  --      2.3863                 1.6461                 1.5459
 IR Inten    --      4.7002                16.9619                 3.3930

                     70                     71                     72
                      A                      A                      A
 Frequencies --   1318.7118              1337.3576              1356.7740
 Red. masses --      1.6708                 1.9904                 2.1876
 Frc consts  --      1.7118                 2.0974                 2.3727
 IR Inten    --      7.0411                 4.0968                 5.1579

                     73                     74                     75
                      A                      A                      A
 Frequencies --   1367.6526              1378.7949              1406.7473
 Red. masses --      1.4139                 2.1721                 1.4347
 Frc consts  --      1.5582                 2.4330                 1.6727
 IR Inten    --      6.3833                 2.7793                11.7428

                     76                     77                     78
                      A                      A                      A
 Frequencies --   1429.6143              1441.8286              1445.9634
 Red. masses --      1.4517                 1.2426                 1.4593
 Frc consts  --      1.7481                 1.5220                 1.7976
 IR Inten    --     36.6340                 4.6669                13.4405

                     79                     80                     81
                      A                      A                      A
 Frequencies --   1484.2165              1492.9001              1502.2592
 Red. masses --      1.2049                 1.9017                 2.0342
 Frc consts  --      1.5639                 2.4972                 2.7047
 IR Inten    --      0.4830                 1.7483                 9.7164

                     82                     83                     84
                      A                      A                      A
 Frequencies --   1511.9808              1518.3765              1522.9277
 Red. masses --      1.1059                 1.0852                 1.1014
 Frc consts  --      1.4896                 1.4741                 1.5051
 IR Inten    --      3.5788                15.4166                 1.9018

                     85                     86                     87
                      A                      A                      A
 Frequencies --   1529.0815              1530.2158              1536.6095
 Red. masses --      1.2463                 1.2173                 1.2044
 Frc consts  --      1.7168                 1.6794                 1.6755
 IR Inten    --      7.8835                 5.5485                 8.3877

                     88                     89                     90
                      A                      A                      A
 Frequencies --   1542.2488              1544.6129              1545.7179
 Red. masses --      1.4211                 1.7626                 1.3470
 Frc consts  --      1.9915                 2.4777                 1.8962
 IR Inten    --      7.0499                 9.5711                 0.1534

                     91                     92                     93
                      A                      A                      A
 Frequencies --   1640.0579              1642.4625              1666.9347
 Red. masses --      5.9345                 5.9067                 5.4646
 Frc consts  --      9.4049                 9.3882                 8.9463
 IR Inten    --      0.3531                 0.2231                 0.7271

                     94                     95                     96
                      A                      A                      A
 Frequencies --   1667.5491              1696.5966              2930.3988
 Red. masses --      5.7007                 1.1042                 1.0714
 Frc consts  --      9.3397                 1.8727                 5.4204
 IR Inten    --      3.1083                22.2135                26.0583

                     97                     98                     99
                      A                      A                      A
 Frequencies --   2939.8107              3011.6762              3011.9409
 Red. masses --      1.0634                 1.0625                 1.0640
 Frc consts  --      5.4151                 5.6779                 5.6869
 IR Inten    --    162.5239                30.9924                39.9259

                    100                    101                    102
                      A                      A                      A
 Frequencies --   3044.7770              3048.5781              3051.8155
 Red. masses --      1.0963                 1.0425                 1.0888
 Frc consts  --      5.9881                 5.7086                 5.9749
 IR Inten    --     38.1074                35.6698                11.8625

                    103                    104                    105
                      A                      A                      A
 Frequencies --   3058.8842              3077.7130              3109.0618
 Red. masses --      1.0956                 1.0704                 1.0952
 Frc consts  --      6.0400                 5.9739                 6.2375
 IR Inten    --     23.7493                42.5671                12.8359

                    106                    107                    108
                      A                      A                      A
 Frequencies --   3122.9695              3132.7691              3168.7206
 Red. masses --      1.1036                 1.1013                 1.0867
 Frc consts  --      6.3418                 6.3684                 6.4290
 IR Inten    --     33.3103                13.8687                 7.6813

                    109                    110                    111
                      A                      A                      A
 Frequencies --   3173.9187              3181.4158              3184.3936
 Red. masses --      1.0851                 1.0896                 1.0885
 Frc consts  --      6.4402                 6.4978                 6.5032
 IR Inten    --      0.9457                21.7312                15.1973

                    112                    113                    114
                      A                      A                      A
 Frequencies --   3201.1984              3201.7591              3209.4941
 Red. masses --      1.0937                 1.0954                 1.0943
 Frc consts  --      6.6037                 6.6162                 6.6412
 IR Inten    --     25.3329                33.9327                11.5898

                    115                    116                    117
                      A                      A                      A
 Frequencies --   3225.1055              3462.0577              3550.4516
 Red. masses --      1.0920                 1.0497                 1.0921
 Frc consts  --      6.6922                 7.4130                 8.1111
 IR Inten    --      5.1026                10.0109                 2.8186

 - Thermochemistry -
 -------------------
 Temperature   298.150 Kelvin.  Pressure   1.00000 Atm.
 Atom     1 has atomic number  6 and mass  12.00000

 Molecular mass:   254.17830 amu.
 Principal axes and moments of inertia in atomic units:
                           1         2         3
     Eigenvalues --  4332.434714514.707954977.14760
           X            0.97737  -0.21085  -0.01695
           Y            0.20945   0.97585  -0.06208
           Z            0.02963   0.05713   0.99793
 This molecule is an asymmetric top.
 Rotational symmetry number  1.
 Warning -- assumption of classical behavior for rotation
           may cause significant error
 Rotational temperatures (Kelvin)      0.01999     0.01918     0.01740
 Rotational constants (GHZ):           0.41657     0.39975     0.36261
 Zero-point vibrational energy     943801.8 (Joules/Mol)
                                  225.57406 (Kcal/Mol)
 Warning -- explicit consideration of  28 degrees of freedom as
           vibrations may cause significant error
 Vibrational temperatures:     42.49    73.28    99.48   124.75   161.51
          (Kelvin)            168.02   184.59   237.86   273.44   285.60
                              314.62   355.51   376.46   379.31   436.73
                              457.89   493.18   511.18   531.47   595.73
                              622.90   669.99   678.57   706.86   736.61
                              762.94   788.49   846.10   893.37   923.33
                             1039.15  1069.65  1097.25  1098.87  1128.18
                             1142.74  1214.12  1245.11  1263.11  1280.24
                             1291.39  1314.14  1359.07  1374.91  1397.38
                             1411.24  1429.55  1456.27  1470.43  1486.01
                             1513.18  1540.19  1547.89  1558.03  1561.04
                             1628.40  1631.75  1676.37  1694.24  1716.30
                             1719.01  1720.51  1745.52  1749.95  1779.66
                             1799.03  1803.05  1842.91  1884.50  1897.33
                             1924.16  1952.10  1967.75  1983.78  2024.00
                             2056.90  2074.47  2080.42  2135.46  2147.95
                             2161.42  2175.40  2184.61  2191.15  2200.01
                             2201.64  2210.84  2218.95  2222.35  2223.94
                             2359.68  2363.14  2398.35  2399.23  2441.02
                             4216.19  4229.73  4333.13  4333.51  4380.75
                             4386.22  4390.88  4401.05  4428.14  4473.25
                             4493.26  4507.36  4559.08  4566.56  4577.35
                             4581.63  4605.81  4606.62  4617.75  4640.21
                             4981.13  5108.31

 Zero-point correction=                           0.359475 (Hartree/Particle)
 Thermal correction to Energy=                    0.377339
 Thermal correction to Enthalpy=                  0.378283
 Thermal correction to Gibbs Free Energy=         0.314280
 Sum of electronic and zero-point Energies=           -770.275688
 Sum of electronic and thermal Energies=              -770.257824
 Sum of electronic and thermal Enthalpies=            -770.256880
 Sum of electronic and thermal Free Energies=         -770.320883

                     E (Thermal)             CV                S
                      KCal/Mol        Cal/Mol-Kelvin    Cal/Mol-Kelvin
 Total                  236.784             70.533            134.706
 Electronic               0.000              0.000              0.000
 Translational            0.889              2.981             42.499
 Rotational               0.889              2.981             32.943
 Vibrational            235.006             64.571             59.265
 Vibration     1          0.593              1.984              5.861
 Vibration     2          0.595              1.977              4.781
 Vibration     3          0.598              1.969              4.178
 Vibration     4          0.601              1.958              3.733
 Vibration     5          0.607              1.939              3.230
 Vibration     6          0.608              1.935              3.153
 Vibration     7          0.611              1.925              2.971
 Vibration     8          0.624              1.885              2.488
 Vibration     9          0.633              1.854              2.227
 Vibration    10          0.637              1.842              2.147
 Vibration    11          0.646              1.813              1.970
 Vibration    12          0.661              1.768              1.751
 Vibration    13          0.669              1.743              1.651
 Vibration    14          0.670              1.740              1.638
 Vibration    15          0.695              1.667              1.397
 Vibration    16          0.705              1.639              1.319
 Vibration    17          0.722              1.590              1.199
 Vibration    18          0.731              1.564              1.143
 Vibration    19          0.742              1.535              1.082
 Vibration    20          0.778              1.440              0.912
 Vibration    21          0.794              1.398              0.849
 Vibration    22          0.823              1.326              0.750
 Vibration    23          0.829              1.313              0.733
 Vibration    24          0.847              1.269              0.680
 Vibration    25          0.867              1.223              0.629
 Vibration    26          0.885              1.183              0.587
 Vibration    27          0.903              1.144              0.548
 Vibration    28          0.945              1.057              0.471

                           ! Non-Optimized Parameters !
 Normal termination of Gaussian 16 at Sat Dec 12 10:08:07 2020.

 ----------------------------------------------------------------------
 # B3LYP/6-311++G(d,p) empiricaldispersion=gd3bj scf=xqc pop=npa geom=c
 heck
 ----------------------------------------------------------------------

 --------------------------------------
 CID_43575703_JID_9328_Energie_neutraal
 --------------------------------------
 Structure from the checkpoint file:  "JID_9328.chk"
 Charge =  0 Multiplicity = 1

 SCF Done:  E(RB3LYP) =  -770.841582375     A.U. after   15 cycles
 Normal termination of Gaussian 16 at Sat Dec 12 10:19:28 2020.

 ----------------------------------------------------------------------
 # B3LYP/6-311++G(d,p) empiricaldispersion=gd3bj scf=xqc pop=npa geom=c
 heck
 ----------------------------------------------------------------------

 ------------------------------------
 CID_43575703_JID_9328_Energie_kation
 ------------------------------------
 Structure from the checkpoint file:  "JID_9328.chk"
 Charge =  1 Multiplicity = 2

 SCF Done:  E(UB3LYP) =  -770.565064155     A.U. after   29 cycles
 Normal termination of Gaussian 16 at Sat Dec 12 10:50:03 2020.
 Gaussian 16:  ES64L-G16RevA.03 25-Dec-2016

 ----------------------------------------------------------------------
 # B3LYP/6-311++G(d,p) empiricaldispersion=gd3bj scf=xqc pop=npa geom=c
 heck
 ----------------------------------------------------------------------

 -----------------------------------
 CID_43575703_JID_9328_Energie_anion
 -----------------------------------
 Structure from the checkpoint file:  "JID_9328.chk"
 Charge = -1 Multiplicity = 2

                         Standard orientation:
 ---------------------------------------------------------------------
 Center     Atomic      Atomic             Coordinates (Angstroms)
 Number     Number       Type             X           Y           Z
 ---------------------------------------------------------------------
      1          6           0        1.077502    1.516054   -2.465485
      2          6           0        1.205864    1.528993   -0.961240
      3          6           0        2.480447    1.496040   -0.380270
      4          6           0        2.657904    1.554626    0.999480
      5          6           0        1.541792    1.663638    1.830124
      6          6           0        0.267942    1.675401    1.266968
      7          6           0        0.082221    1.587223   -0.116677
      8          6           0       -1.340987    1.609365   -0.648645
      9          7           0       -2.245530    0.739080    0.116158
     10          6           0       -3.593232    1.281866    0.209280
     11          6           0       -2.298576   -0.636788   -0.402278
     12          6           0       -0.951300   -1.305904   -0.568424
     13          6           0       -0.489605   -1.572034   -1.860387
     14          6           0        0.756459   -2.158942   -2.081739
     15          6           0        1.553716   -2.492178   -0.990555
     16          6           0        1.090123   -2.263024    0.305683
     17          6           0       -0.158151   -1.680968    0.534773
     18          6           0       -0.654743   -1.475301    1.952361
     19          7           0        0.447337   -1.495714    2.921586
     20          1           0        2.063450    1.448865   -2.934985
     21          1           0        0.487351    0.662073   -2.811598
     22          1           0        0.593292    2.426305   -2.840326
     23          1           0        3.348979    1.426330   -1.030459
     24          1           0        3.658799    1.529067    1.421217
     25          1           0        1.663010    1.746362    2.907483
     26          1           0       -0.611121    1.732952    1.900979
     27          1           0       -1.725391    2.633501   -0.562645
     28          1           0       -1.365393    1.366721   -1.721636
     29          1           0       -4.103746    1.364384   -0.770353
     30          1           0       -4.202806    0.634164    0.848901
     31          1           0       -3.562540    2.276841    0.664320
     32          1           0       -2.816278   -0.656386   -1.380952
     33          1           0       -2.925218   -1.212305    0.291222
     34          1           0       -1.117867   -1.304638   -2.707178
     35          1           0        1.098623   -2.346207   -3.095829
     36          1           0        2.531098   -2.942195   -1.143032
     37          1           0        1.691922   -2.536022    1.165372
     38          1           0       -1.254061   -0.555655    1.979793
     39          1           0       -1.333781   -2.302066    2.210836
     40          1           0        0.066988   -1.381701    3.859309
     41          1           0        1.037767   -0.682347    2.747535
 ---------------------------------------------------------------------

 SCF Done:  E(UB3LYP) =  -770.827454205     A.U. after   33 cycles
 SCF Done:  E(UB3LYP) =  -770.827454205     a.u. after    1 cycles

 The electronic state is 2-A.
 Alpha  occ. eigenvalues --  -14.21354 -14.19542 -10.10359 -10.10185 -10.09503
 Alpha  occ. eigenvalues --  -10.09011 -10.08793 -10.08556 -10.08433 -10.08274
 Alpha  occ. eigenvalues --  -10.07998 -10.07933 -10.07893 -10.07826 -10.07757
 Alpha  occ. eigenvalues --  -10.07664 -10.07253 -10.07143 -10.07127  -0.83445
 Alpha  occ. eigenvalues --   -0.79196  -0.76465  -0.75811  -0.68312  -0.67675
 Alpha  occ. eigenvalues --   -0.66662  -0.65797  -0.60752  -0.60039  -0.58496
 Alpha  occ. eigenvalues --   -0.56738  -0.52506  -0.50382  -0.49569  -0.48440
 Alpha  occ. eigenvalues --   -0.46960  -0.41874  -0.41370  -0.39459  -0.38862
 Alpha  occ. eigenvalues --   -0.38469  -0.37714  -0.36386  -0.35758  -0.34296
 Alpha  occ. eigenvalues --   -0.33910  -0.32994  -0.32808  -0.31863  -0.31740
 Alpha  occ. eigenvalues --   -0.30911  -0.30136  -0.29698  -0.29526  -0.28984
 Alpha  occ. eigenvalues --   -0.28157  -0.27811  -0.26303  -0.25259  -0.24591
 Alpha  occ. eigenvalues --   -0.24378  -0.24220  -0.23668  -0.16580  -0.16001
 Alpha  occ. eigenvalues --   -0.15309  -0.14634  -0.14141  -0.12370   0.04196
 Alpha virt. eigenvalues --    0.05944   0.06173   0.06853   0.07240   0.07777
 Alpha virt. eigenvalues --    0.08039   0.08069   0.08218   0.08458   0.08716
 Alpha virt. eigenvalues --    0.09061   0.09662   0.10189   0.10349   0.10916

  Beta  occ. eigenvalues --  -14.21345 -14.19523 -10.10344 -10.10169 -10.09493
  Beta  occ. eigenvalues --  -10.08971 -10.08792 -10.08555 -10.08432 -10.08268
  Beta  occ. eigenvalues --  -10.07994 -10.07928 -10.07885 -10.07814 -10.07746
  Beta  occ. eigenvalues --  -10.07655 -10.07243 -10.07138 -10.07110  -0.83426
  Beta  occ. eigenvalues --   -0.79167  -0.76449  -0.75794  -0.68291  -0.67658
  Beta  occ. eigenvalues --   -0.66640  -0.65776  -0.60717  -0.60001  -0.58460
  Beta  occ. eigenvalues --   -0.56705  -0.52459  -0.50356  -0.49539  -0.48417
  Beta  occ. eigenvalues --   -0.46924  -0.41848  -0.41336  -0.39435  -0.38839
  Beta  occ. eigenvalues --   -0.38434  -0.37673  -0.36362  -0.35731  -0.34266
  Beta  occ. eigenvalues --   -0.33883  -0.32971  -0.32788  -0.31838  -0.31713
  Beta  occ. eigenvalues --   -0.30878  -0.30113  -0.29669  -0.29502  -0.28961
  Beta  occ. eigenvalues --   -0.28127  -0.27779  -0.26284  -0.25238  -0.24571
  Beta  occ. eigenvalues --   -0.24357  -0.24199  -0.23644  -0.16562  -0.15982
  Beta  occ. eigenvalues --   -0.15283  -0.14613  -0.14122  -0.12320
  Beta virt. eigenvalues --    0.06131   0.06766   0.06845   0.07061   0.07426
  Beta virt. eigenvalues --    0.08135   0.08159   0.08272   0.08457   0.08794
  Beta virt. eigenvalues --    0.09018   0.09343   0.09947   0.10594   0.10760

 Mulliken charges and spin densities:
               1          2
     1  C    0.437565  -1.172029
     2  C   -0.788226   1.673272
     3  C    0.221002  -0.580601
     4  C    0.325913  -0.769623
     5  C   -0.302613  -0.172829
     6  C    0.459065  -0.835540
     7  C   -0.832549   1.626850
     8  C    0.512658  -1.443932
     9  N    0.007853   0.221305
    10  C    0.911756  -1.199788
    11  C    0.152304  -0.789317
    12  C   -0.645523   1.050234
    13  C   -0.110986  -0.237244
    14  C    0.369667  -0.778180
    15  C   -0.203784  -0.028105
    16  C   -0.194108  -0.166119
    17  C    0.026411   0.479151
    18  C    0.553510  -1.067679
    19  N   -0.561198   0.090500
    20  H   -0.182692   0.317547
    21  H    0.137314   0.038233
    22  H   -0.098621   0.266109
    23  H   -0.000009   0.150019
    24  H   -0.056780   0.210483
    25  H   -0.370860   0.552454
    26  H   -0.138937   0.307550
    27  H   -0.064342   0.273612
    28  H    0.220083  -0.085005
    29  H   -0.200859   0.317011
    30  H   -0.413332   0.559555
    31  H   -0.364320   0.507846
    32  H   -0.081581   0.222894
    33  H    0.106530   0.053592
    34  H   -0.302429   0.456564
    35  H   -0.159575   0.319427
    36  H    0.031308   0.126605
    37  H    0.151341   0.063245
    38  H    0.102188   0.096361
    39  H   -0.006804   0.199259
    40  H    0.002485   0.246986
    41  H    0.351173  -0.100675
 Sum of Mulliken charges =  -1.00000   1.00000

 Dipole moment (field-independent basis, Debye):
    X=              3.6507    Y=             -1.7443    Z=             -1.0653  Tot=              4.1839
 Quadrupole moment (field-independent basis, Debye-Ang):
   XX=           -174.9110   YY=           -164.8012   ZZ=           -173.7152
   XY=              5.3422   XZ=              1.1708   YZ=             -0.4472

 Summary of Natural Population Analysis:

                                       Natural Population
                Natural  -----------------------------------------------
    Atom  No    Charge         Core      Valence    Rydberg      Total
 -----------------------------------------------------------------------
      C    1   -0.29512      0.99963     2.28966    0.00583     3.29512
      C    2   -0.01131      0.99946     2.00189    0.00996     3.01131
      C    3   -0.09755      0.99951     2.08897    0.00907     3.09755
      C    4   -0.10311      0.99955     2.09358    0.00998     3.10311
      C    5   -0.11445      0.99955     2.10447    0.01043     3.11445
      C    6   -0.09432      0.99950     2.08416    0.01066     3.09432
      C    7   -0.01807      0.99945     2.00607    0.01255     3.01807
      C    8   -0.09274      0.99957     2.08156    0.01161     3.09274
      N    9   -0.28383      0.99972     2.77029    0.01382     3.78383
      C   10   -0.17315      0.99964     2.16478    0.00874     3.17315
      C   11   -0.08930      0.99957     2.07804    0.01169     3.08930
      C   12   -0.02518      0.99946     2.01424    0.01149     3.02518
      C   13   -0.10052      0.99951     2.09070    0.01032     3.10052
      C   14   -0.10678      0.99955     2.09730    0.00993     3.10678
      C   15   -0.09894      0.99956     2.08960    0.00978     3.09894
      C   16   -0.09967      0.99951     2.09186    0.00831     3.09967
      C   17   -0.00539      0.99945     1.99533    0.01061     3.00539
      C   18   -0.10384      0.99958     2.09317    0.01109     3.10384
      N   19   -0.42453      0.99977     2.91506    0.00970     3.92453
      H   20    0.10108      0.00000     0.39794    0.00098     0.39892
      H   21    0.10912      0.00000     0.38947    0.00141     0.39088
      H   22    0.10307      0.00000     0.39598    0.00094     0.39693
      H   23    0.09736      0.00000     0.40168    0.00095     0.40264
      H   24    0.09891      0.00000     0.40031    0.00078     0.40109
      H   25    0.10107      0.00000     0.39779    0.00115     0.39893
      H   26    0.10702      0.00000     0.39065    0.00234     0.39298
      H   27    0.10491      0.00000     0.39367    0.00142     0.39509
      H   28    0.09312      0.00000     0.40502    0.00185     0.40688
      H   29    0.08126      0.00000     0.41698    0.00176     0.41874
      H   30    0.09680      0.00000     0.40169    0.00151     0.40320
      H   31    0.09753      0.00000     0.40098    0.00149     0.40247
      H   32    0.08684      0.00000     0.41157    0.00159     0.41316
      H   33    0.10123      0.00000     0.39732    0.00145     0.39877
      H   34    0.10103      0.00000     0.39760    0.00136     0.39897
      H   35    0.09992      0.00000     0.39917    0.00091     0.40008
      H   36    0.09799      0.00000     0.40126    0.00075     0.40201
      H   37    0.11148      0.00000     0.38713    0.00139     0.38852
      H   38    0.09931      0.00000     0.39786    0.00283     0.40069
      H   39    0.09458      0.00000     0.40439    0.00103     0.40542
      H   40    0.17582      0.00000     0.32242    0.00176     0.32418
      H   41    0.17836      0.00000     0.31938    0.00225     0.32164
 =======================================================================
   * Total *   -0.00000     18.99155    49.78099    0.22746    69.00000

 Normal termination of Gaussian 16 at Sat Dec 12 11:25:36 2020.
