 Gaussian 16, Revision A.03,

 -----------------------------------------------------------
 # opt freq B3LYP/6-31G(d) empiricaldispersion=gd3bj scf=xqc
 -----------------------------------------------------------

 -----------------------------
 CID_84064097_JID_614_neutraal
 -----------------------------
 Symbolic Z-matrix:
 Charge =  0 Multiplicity = 1

 SCF Done:  E(RB3LYP) =  -443.814166155     A.U. after   13 cycles
 SCF Done:  E(RB3LYP) =  -443.821718601     A.U. after   11 cycles
 SCF Done:  E(RB3LYP) =  -443.821979233     A.U. after   11 cycles
 SCF Done:  E(RB3LYP) =  -443.822221572     A.U. after   10 cycles
 SCF Done:  E(RB3LYP) =  -443.822301321     A.U. after   10 cycles
 SCF Done:  E(RB3LYP) =  -443.822316626     A.U. after    9 cycles
 SCF Done:  E(RB3LYP) =  -443.822323593     A.U. after    9 cycles
 SCF Done:  E(RB3LYP) =  -443.822330263     A.U. after    9 cycles
 SCF Done:  E(RB3LYP) =  -443.822334175     A.U. after    8 cycles
 SCF Done:  E(RB3LYP) =  -443.822334828     A.U. after    8 cycles
 SCF Done:  E(RB3LYP) =  -443.822335002     A.U. after    7 cycles
 Optimization completed.
    -- Stationary point found.
 Normal termination of Gaussian 16 at Tue Dec  8 12:18:18 2020.

 --------------------------------------------------------------------
 #N Geom=AllCheck Guess=TCheck SCRF=Check GenChk RB3LYP/6-31G(d) Freq
 --------------------------------------------------------------------

 Structure from the checkpoint file:  "JID_614.chk"
 -----------------------------
 CID_84064097_JID_614_neutraal
 -----------------------------
 Charge =  0 Multiplicity = 1

 SCF Done:  E(RB3LYP) =  -443.822335002     A.U. after    1 cycles

  Exact polarizability:  97.160  -1.079  90.324   1.375   2.302  79.247
 Approx polarizability: 118.964  -1.173 125.077  -0.561   2.380 122.123

                      1                      2                      3
                      A                      A                      A
 Frequencies --     52.5664                84.7721               101.8806
 Red. masses --      2.7758                 2.4823                 3.3490
 Frc consts  --      0.0045                 0.0105                 0.0205
 IR Inten    --      0.2962                 0.5614                 1.8815

                      4                      5                      6
                      A                      A                      A
 Frequencies --    142.5449               181.1792               230.0124
 Red. masses --      2.1340                 3.1182                 3.7585
 Frc consts  --      0.0255                 0.0603                 0.1172
 IR Inten    --      0.3274                 0.4143                 5.9138

                      7                      8                      9
                      A                      A                      A
 Frequencies --    257.7247               297.3740               356.9049
 Red. masses --      2.6367                 1.1432                 2.9603
 Frc consts  --      0.1032                 0.0596                 0.2222
 IR Inten    --      1.6636                43.2626                 3.5624

                     10                     11                     12
                      A                      A                      A
 Frequencies --    387.9771               503.4690               568.7023
 Red. masses --      2.3833                 3.4509                 2.8789
 Frc consts  --      0.2114                 0.5154                 0.5486
 IR Inten    --      8.9633                 1.3789                 5.0066

                     13                     14                     15
                      A                      A                      A
 Frequencies --    674.7931               756.0631               791.2540
 Red. masses --      1.9505                 2.0466                 1.1937
 Frc consts  --      0.5233                 0.6893                 0.4403
 IR Inten    --      5.9815                 3.3455                 1.2514

                     16                     17                     18
                      A                      A                      A
 Frequencies --    800.8259               818.4625               875.2673
 Red. masses --      1.2618                 1.9645                 2.6148
 Frc consts  --      0.4768                 0.7754                 1.1803
 IR Inten    --      1.2676                 4.1121                24.0214

                     19                     20                     21
                      A                      A                      A
 Frequencies --    905.9620               937.3743               944.7311
 Red. masses --      2.0425                 2.0722                 2.1599
 Frc consts  --      0.9877                 1.0728                 1.1358
 IR Inten    --      8.9293               107.3090                 3.9202

                     22                     23                     24
                      A                      A                      A
 Frequencies --    966.5433               972.4445               979.0744
 Red. masses --      2.2746                 1.9036                 1.8238
 Frc consts  --      1.2520                 1.0606                 1.0301
 IR Inten    --     72.8796                13.7526                28.2522

                     25                     26                     27
                      A                      A                      A
 Frequencies --    992.0912              1027.2415              1059.8679
 Red. masses --      2.7226                 4.4012                 1.7471
 Frc consts  --      1.5788                 2.7363                 1.1563
 IR Inten    --      1.7291                62.0678                 4.6728

                     28                     29                     30
                      A                      A                      A
 Frequencies --   1063.1762              1077.2216              1102.3128
 Red. masses --      2.0514                 1.9690                 2.2206
 Frc consts  --      1.3662                 1.3462                 1.5897
 IR Inten    --     11.7584                 2.7734                 4.9428

                     31                     32                     33
                      A                      A                      A
 Frequencies --   1131.4762              1164.0816              1183.9164
 Red. masses --      2.3484                 1.5725                 1.3966
 Frc consts  --      1.7714                 1.2555                 1.1534
 IR Inten    --      4.4487                 0.1614                 0.7005

                     34                     35                     36
                      A                      A                      A
 Frequencies --   1212.7484              1229.4084              1232.2623
 Red. masses --      1.3786                 1.4267                 1.2840
 Frc consts  --      1.1946                 1.2705                 1.1487
 IR Inten    --      0.3671                 1.8611                 0.1012

                     37                     38                     39
                      A                      A                      A
 Frequencies --   1267.7344              1268.4957              1275.1776
 Red. masses --      1.4106                 1.2930                 1.4751
 Frc consts  --      1.3357                 1.2258                 1.4133
 IR Inten    --      1.2309                 0.6950                 4.5218

                     40                     41                     42
                      A                      A                      A
 Frequencies --   1280.7188              1283.7522              1301.0141
 Red. masses --      1.2987                 1.2896                 1.4275
 Frc consts  --      1.2551                 1.2522                 1.4236
 IR Inten    --      3.9095                 0.6854                 1.4089

                     43                     44                     45
                      A                      A                      A
 Frequencies --   1317.5432              1334.3392              1370.3945
 Red. masses --      1.3747                 1.4815                 1.3576
 Frc consts  --      1.4060                 1.5541                 1.5022
 IR Inten    --      0.9323                 3.4117                14.6284

                     46                     47                     48
                      A                      A                      A
 Frequencies --   1379.5984              1405.1725              1446.9596
 Red. masses --      1.3759                 1.4078                 1.5451
 Frc consts  --      1.5429                 1.6378                 1.9060
 IR Inten    --      6.2302                 2.3654                12.4955

                     49                     50                     51
                      A                      A                      A
 Frequencies --   1508.0474              1515.2577              1524.0620
 Red. masses --      1.0901                 1.0836                 1.1018
 Frc consts  --      1.4607                 1.4659                 1.5079
 IR Inten    --      0.6608                 2.7812                 7.5635

                     52                     53                     54
                      A                      A                      A
 Frequencies --   1541.3043              1560.2725              1697.6207
 Red. masses --      1.1379                 1.1149                 1.0891
 Frc consts  --      1.5927                 1.5991                 1.8492
 IR Inten    --      0.4536                 0.2688                24.7320

                     55                     56                     57
                      A                      A                      A
 Frequencies --   3005.8744              3020.4369              3039.3218
 Red. masses --      1.0844                 1.0843                 1.0572
 Frc consts  --      5.7727                 5.8282                 5.7539
 IR Inten    --     56.8575                63.5256                57.1327

                     58                     59                     60
                      A                      A                      A
 Frequencies --   3051.9393              3060.2918              3068.5273
 Red. masses --      1.0606                 1.0826                 1.0602
 Frc consts  --      5.8202                 5.9738                 5.8817
 IR Inten    --     41.0553                21.1790                48.1529

                     61                     62                     63
                      A                      A                      A
 Frequencies --   3077.6435              3081.0187              3102.2413
 Red. masses --      1.0633                 1.1101                 1.1052
 Frc consts  --      5.9337                 6.2086                 6.2666
 IR Inten    --     29.8428                41.9183                20.1754

                     64                     65                     66
                      A                      A                      A
 Frequencies --   3108.8077              3117.0199              3134.1184
 Red. masses --      1.0660                 1.1072                 1.1072
 Frc consts  --      6.0698                 6.3379                 6.4079
 IR Inten    --     38.6873                37.8264                59.9098

                     67                     68                     69
                      A                      A                      A
 Frequencies --   3174.0107              3442.7462              3528.0733
 Red. masses --      1.1028                 1.0493                 1.0917
 Frc consts  --      6.5458                 7.3274                 8.0062
 IR Inten    --     17.8195                 2.1504                 2.0215

 - Thermochemistry -
 -------------------
 Temperature   298.150 Kelvin.  Pressure   1.00000 Atm.
 Atom     1 has atomic number  6 and mass  12.00000

 Molecular mass:   141.11536 amu.
 Principal axes and moments of inertia in atomic units:
                           1         2         3
     Eigenvalues --   857.775281837.286582316.54226
           X            0.99996  -0.00309   0.00894
           Y            0.00304   0.99998   0.00566
           Z           -0.00896  -0.00564   0.99994
 This molecule is an asymmetric top.
 Rotational symmetry number  1.
 Warning -- assumption of classical behavior for rotation
           may cause significant error
 Rotational temperatures (Kelvin)      0.10098     0.04714     0.03739
 Rotational constants (GHZ):           2.10398     0.98229     0.77907
 Zero-point vibrational energy     594264.4 (Joules/Mol)
                                  142.03259 (Kcal/Mol)
 Warning -- explicit consideration of  12 degrees of freedom as
           vibrations may cause significant error
 Vibrational temperatures:     75.63   121.97   146.58   205.09   260.68
          (Kelvin)            330.94   370.81   427.85   513.51   558.21
                              724.38   818.24   970.88  1087.81  1138.44
                             1152.21  1177.59  1259.31  1303.48  1348.67
                             1359.26  1390.64  1399.13  1408.67  1427.40
                             1477.97  1524.91  1529.67  1549.88  1585.98
                             1627.94  1674.85  1703.39  1744.87  1768.84
                             1772.95  1823.99  1825.08  1834.70  1842.67
                             1847.03  1871.87  1895.65  1919.82  1971.69
                             1984.93  2021.73  2081.85  2169.74  2180.12
                             2192.79  2217.59  2244.88  2442.50  4324.78
                             4345.73  4372.91  4391.06  4403.08  4414.93
                             4428.04  4432.90  4463.43  4472.88  4484.70
                             4509.30  4566.69  4953.34  5076.11

 Zero-point correction=                           0.226343 (Hartree/Particle)
 Thermal correction to Energy=                    0.236445
 Thermal correction to Enthalpy=                  0.237389
 Thermal correction to Gibbs Free Energy=         0.190435
 Sum of electronic and zero-point Energies=           -443.595992
 Sum of electronic and thermal Energies=              -443.585890
 Sum of electronic and thermal Enthalpies=            -443.584946
 Sum of electronic and thermal Free Energies=         -443.631900

                     E (Thermal)             CV                S
                      KCal/Mol        Cal/Mol-Kelvin    Cal/Mol-Kelvin
 Total                  148.371             38.159             98.822
 Electronic               0.000              0.000              0.000
 Translational            0.889              2.981             40.745
 Rotational               0.889              2.981             29.680
 Vibrational            146.594             32.198             28.398
 Vibration     1          0.596              1.977              4.718
 Vibration     2          0.601              1.960              3.777
 Vibration     3          0.604              1.948              3.418
 Vibration     4          0.616              1.911              2.769
 Vibration     5          0.630              1.865              2.316
 Vibration     6          0.652              1.795              1.879
 Vibration     7          0.667              1.750              1.677
 Vibration     8          0.691              1.679              1.432
 Vibration     9          0.732              1.561              1.136
 Vibration    10          0.756              1.496              1.008
 Vibration    11          0.859              1.242              0.650
 Vibration    12          0.925              1.099              0.507

 Optimization completed.
    -- Stationary point found.
 Normal termination of Gaussian 16 at Tue Dec  8 12:25:38 2020.

 ----------------------------------------------------------------------
 # B3LYP/6-311++G(d,p) empiricaldispersion=gd3bj scf=xqc pop=npa geom=c
 heck
 ----------------------------------------------------------------------

 -------------------------------------
 CID_84064097_JID_614_Energie_neutraal
 -------------------------------------
 Structure from the checkpoint file:  "JID_614.chk"
 Charge =  0 Multiplicity = 1

 SCF Done:  E(RB3LYP) =  -443.953453363     A.U. after   14 cycles
 Normal termination of Gaussian 16 at Tue Dec  8 12:28:15 2020.

 ----------------------------------------------------------------------
 # B3LYP/6-311++G(d,p) empiricaldispersion=gd3bj scf=xqc pop=npa geom=c
 heck
 ----------------------------------------------------------------------

 -----------------------------------
 CID_84064097_JID_614_Energie_kation
 -----------------------------------
 Structure from the checkpoint file:  "JID_614.chk"
 Charge =  1 Multiplicity = 2

 SCF Done:  E(UB3LYP) =  -443.639015679     A.U. after   22 cycles
 Normal termination of Gaussian 16 at Tue Dec  8 12:40:13 2020.
 Gaussian 16:  ES64L-G16RevA.03 25-Dec-2016

 ----------------------------------------------------------------------
 # B3LYP/6-311++G(d,p) empiricaldispersion=gd3bj scf=xqc pop=npa geom=c
 heck
 ----------------------------------------------------------------------

 ----------------------------------
 CID_84064097_JID_614_Energie_anion
 ----------------------------------
 Structure from the checkpoint file:  "JID_614.chk"
 Charge = -1 Multiplicity = 2

                         Standard orientation:
 ---------------------------------------------------------------------
 Center     Atomic      Atomic             Coordinates (Angstroms)
 Number     Number       Type             X           Y           Z
 ---------------------------------------------------------------------
      1          6           0       -2.861705   -0.942000   -0.180037
      2          6           0       -2.398846    0.534019   -0.288942
      3          6           0       -0.929052    0.044149   -0.229005
      4          6           0       -1.452182   -1.300621    0.355870
      5          6           0        0.057833    0.908015    0.553431
      6          6           0        1.500538    0.392875    0.528021
      7          6           0        1.820702   -1.097164    0.787340
      8          6           0        2.242935   -1.119299   -0.692094
      9          8           0        1.995399    0.299453   -0.838995
     10          7           0       -0.015417    2.276411    0.014067
     11          1           0       -3.042915   -1.386290   -1.164492
     12          1           0       -3.719203   -1.162608    0.463154
     13          1           0       -2.705314    1.109697   -1.166136
     14          1           0       -2.651640    1.112224    0.605950
     15          1           0       -0.538274   -0.109221   -1.242336
     16          1           0       -1.423825   -1.296686    1.452155
     17          1           0       -0.995578   -2.229654   -0.000978
     18          1           0       -0.269445    0.948426    1.603547
     19          1           0        2.127376    1.086574    1.108323
     20          1           0        2.636740   -1.260753    1.494950
     21          1           0        0.977431   -1.732014    1.057683
     22          1           0        1.599225   -1.711896   -1.354761
     23          1           0        3.291613   -1.369315   -0.892604
     24          1           0        0.584913    2.891704    0.563742
     25          1           0        0.392284    2.259465   -0.922202
 ---------------------------------------------------------------------

 SCF Done:  E(UB3LYP) =  -443.935781641     A.U. after   32 cycles

 The electronic state is 2-A.
 Alpha  occ. eigenvalues --  -19.01076 -14.18813 -10.11216 -10.11080 -10.09079
 Alpha  occ. eigenvalues --  -10.06534 -10.06279 -10.06238 -10.06176 -10.05887
 Alpha  occ. eigenvalues --   -0.93520  -0.78671  -0.73568  -0.64340  -0.61242
 Alpha  occ. eigenvalues --   -0.56785  -0.55328  -0.50444  -0.45131  -0.43736
 Alpha  occ. eigenvalues --   -0.40234  -0.38493  -0.38233  -0.36866  -0.34604
 Alpha  occ. eigenvalues --   -0.33433  -0.31320  -0.29838  -0.28200  -0.26885
 Alpha  occ. eigenvalues --   -0.25598  -0.24461  -0.23135  -0.21115  -0.20634
 Alpha  occ. eigenvalues --   -0.20231  -0.19688  -0.15732  -0.13406   0.04886
 Alpha virt. eigenvalues --    0.07005   0.07448   0.07963   0.09291   0.09674
 Alpha virt. eigenvalues --    0.10018   0.10555   0.11284   0.12240   0.12502
 Alpha virt. eigenvalues --    0.13074   0.14197   0.14482   0.15316   0.15668

  Beta  occ. eigenvalues --  -19.01074 -14.18799 -10.11198 -10.11054 -10.09067
  Beta  occ. eigenvalues --  -10.06529 -10.06262 -10.06208 -10.06153 -10.05880
  Beta  occ. eigenvalues --   -0.93506  -0.78643  -0.73548  -0.64298  -0.61196
  Beta  occ. eigenvalues --   -0.56741  -0.55285  -0.50388  -0.45075  -0.43676
  Beta  occ. eigenvalues --   -0.40188  -0.38430  -0.38200  -0.36832  -0.34571
  Beta  occ. eigenvalues --   -0.33402  -0.31284  -0.29804  -0.28178  -0.26849
  Beta  occ. eigenvalues --   -0.25560  -0.24435  -0.23098  -0.21088  -0.20607
  Beta  occ. eigenvalues --   -0.20200  -0.19661  -0.15709  -0.13384
  Beta virt. eigenvalues --    0.07171   0.08035   0.08301   0.08507   0.09950
  Beta virt. eigenvalues --    0.10317   0.10457   0.11066   0.11610   0.12834
  Beta virt. eigenvalues --    0.13071   0.13409   0.14677   0.14745   0.15578

 Mulliken charges and spin densities:
               1          2
     1  C    0.530675  -0.887684
     2  C    0.530935  -0.931410
     3  C   -1.566336   1.830284
     4  C    0.217207  -0.718803
     5  C    1.910948  -2.396705
     6  C   -1.020023   0.964926
     7  C    1.046346  -1.238377
     8  C    1.082218  -1.480057
     9  O   -0.157700  -0.012974
    10  N   -0.385622   0.119060
    11  H    0.001346   0.119990
    12  H   -0.237772   0.377244
    13  H   -0.010834   0.142446
    14  H    0.078823   0.062551
    15  H    0.044118   0.177482
    16  H   -0.203243   0.362498
    17  H    0.003028   0.123709
    18  H   -0.236680   0.423816
    19  H   -0.940741   1.169974
    20  H   -0.867422   1.052739
    21  H   -0.529141   0.681514
    22  H   -0.252671   0.394127
    23  H   -0.288157   0.448075
    24  H    0.058078   0.175746
    25  H    0.192621   0.039829
 Sum of Mulliken charges =  -1.00000   1.00000

 Dipole moment (field-independent basis, Debye):
    X=             -3.8854    Y=              1.6409    Z=             -3.6407  Tot=              5.5717
 Quadrupole moment (field-independent basis, Debye-Ang):
   XX=           -123.8309   YY=           -104.1651   ZZ=            -99.3949
   XY=              2.8154   XZ=             -6.3468   YZ=             -0.2570

 Summary of Natural Population Analysis:

                                       Natural Population
                Natural  -----------------------------------------------
    Atom  No    Charge         Core      Valence    Rydberg      Total
 -----------------------------------------------------------------------
      C    1   -0.18892      0.99965     2.18227    0.00700     3.18892
      C    2   -0.17999      0.99963     2.17302    0.00734     3.17999
      C    3   -0.11395      0.99958     2.10166    0.01270     3.11395
      C    4   -0.18865      0.99963     2.18058    0.00844     3.18865
      C    5   -0.02383      0.99953     2.00980    0.01450     3.02383
      C    6    0.07014      0.99958     1.91222    0.01806     2.92986
      C    7   -0.21405      0.99962     2.20610    0.00833     3.21405
      C    8   -0.00133      0.99964     1.98962    0.01207     3.00133
      O    9   -0.31557      0.99991     3.30787    0.00780     4.31557
      N   10   -0.42125      0.99978     2.91157    0.00990     3.92125
      H   11    0.09283      0.00000     0.40572    0.00145     0.40717
      H   12    0.09370      0.00000     0.40498    0.00131     0.40630
      H   13    0.09534      0.00000     0.40369    0.00097     0.40466
      H   14    0.09772      0.00000     0.40095    0.00133     0.40228
      H   15    0.10043      0.00000     0.39771    0.00186     0.39957
      H   16    0.09701      0.00000     0.40129    0.00170     0.40299
      H   17    0.09797      0.00000     0.40073    0.00130     0.40203
      H   18    0.09363      0.00000     0.40428    0.00209     0.40637
      H   19    0.08671      0.00000     0.41010    0.00319     0.41329
      H   20    0.10575      0.00000     0.39056    0.00369     0.39425
      H   21    0.10356      0.00000     0.39440    0.00205     0.39644
      H   22    0.07998      0.00000     0.41847    0.00155     0.42002
      H   23    0.08373      0.00000     0.41445    0.00182     0.41627
      H   24    0.17420      0.00000     0.32410    0.00170     0.32580
      H   25    0.17484      0.00000     0.32291    0.00224     0.32516
 =======================================================================
   * Total *    0.00000      9.99654    28.86905    0.13440    39.00000

 Normal termination of Gaussian 16 at Tue Dec  8 12:50:17 2020.
