 Gaussian 16, Revision A.03,

 -----------------------------------------------------------
 # opt freq B3LYP/6-31G(d) empiricaldispersion=gd3bj scf=xqc
 -----------------------------------------------------------

 ------------------------------
 CID_79377956_JID_5909_neutraal
 ------------------------------
 Symbolic Z-matrix:
 Charge =  0 Multiplicity = 1

 SCF Done:  E(RB3LYP) =  -1046.20641913     A.U. after   17 cycles
 SCF Done:  E(RB3LYP) =  -1046.21220363     A.U. after   13 cycles
 SCF Done:  E(RB3LYP) =  -1046.20608555     A.U. after   14 cycles
 SCF Done:  E(RB3LYP) =  -1046.21433511     A.U. after   13 cycles
 SCF Done:  E(RB3LYP) =  -1046.21704184     A.U. after   13 cycles
 SCF Done:  E(RB3LYP) =  -1046.21857374     A.U. after   14 cycles
 SCF Done:  E(RB3LYP) =  -1046.21971820     A.U. after   13 cycles
 SCF Done:  E(RB3LYP) =  -1046.21945414     A.U. after   13 cycles
 SCF Done:  E(RB3LYP) =  -1046.21977695     A.U. after   13 cycles
 SCF Done:  E(RB3LYP) =  -1046.22148811     A.U. after   13 cycles
 SCF Done:  E(RB3LYP) =  -1046.23321245     A.U. after    8 cycles
 SCF Done:  E(RB3LYP) =  -1046.23321290     A.U. after    8 cycles
 SCF Done:  E(RB3LYP) =  -1046.23321311     A.U. after    8 cycles
 SCF Done:  E(RB3LYP) =  -1046.23321322     A.U. after    8 cycles
 SCF Done:  E(RB3LYP) =  -1046.23321330     A.U. after    8 cycles
 Optimization completed.
    -- Stationary point found.
 Normal termination of Gaussian 16 at Thu Dec 10 18:06:47 2020.

 --------------------------------------------------------------------
 #N Geom=AllCheck Guess=TCheck SCRF=Check GenChk RB3LYP/6-31G(d) Freq
 --------------------------------------------------------------------

 Structure from the checkpoint file:  "JID_5909.chk"
 ------------------------------
 CID_79377956_JID_5909_neutraal
 ------------------------------
 Charge =  0 Multiplicity = 1

 SCF Done:  E(RB3LYP) =  -1046.23321330     A.U. after    1 cycles

  Exact polarizability: 172.112  -1.294 151.205  -8.141  -5.042 101.080
 Approx polarizability: 246.858  -9.671 256.370 -19.938 -19.494 161.096

                      1                      2                      3
                      A                      A                      A
 Frequencies --     35.3914                38.8837                75.8958
 Red. masses --      4.8066                 3.9832                 3.5151
 Frc consts  --      0.0035                 0.0035                 0.0119
 IR Inten    --      1.6612                 0.3780                 1.2844

                      4                      5                      6
                      A                      A                      A
 Frequencies --     84.3084                95.7880               120.4259
 Red. masses --      3.1004                 3.6201                 3.9477
 Frc consts  --      0.0130                 0.0196                 0.0337
 IR Inten    --      0.3483                 0.4461                 7.1877

                      7                      8                      9
                      A                      A                      A
 Frequencies --    168.0808               208.1617               226.0942
 Red. masses --      3.4111                 1.8527                 1.0689
 Frc consts  --      0.0568                 0.0473                 0.0322
 IR Inten    --      5.7279                 3.2859                 0.1171

                     10                     11                     12
                      A                      A                      A
 Frequencies --    233.3761               243.3477               267.1100
 Red. masses --      2.8694                 2.5781                 1.7636
 Frc consts  --      0.0921                 0.0900                 0.0741
 IR Inten    --      1.1277                 2.4575                 0.7507

                     13                     14                     15
                      A                      A                      A
 Frequencies --    289.9670               304.2857               343.6068
 Red. masses --      1.8516                 1.9589                 2.7841
 Frc consts  --      0.0917                 0.1069                 0.1937
 IR Inten    --      2.3118                 2.4935                 3.9760

                     16                     17                     18
                      A                      A                      A
 Frequencies --    345.2817               368.4265               387.5535
 Red. masses --      3.7340                 2.6691                 2.3529
 Frc consts  --      0.2623                 0.2135                 0.2082
 IR Inten    --     15.1870                 4.9543                 4.3635

                     19                     20                     21
                      A                      A                      A
 Frequencies --    396.2761               416.3935               433.5278
 Red. masses --      3.1154                 3.9870                 1.3155
 Frc consts  --      0.2882                 0.4073                 0.1457
 IR Inten    --     13.6218                 7.9520                73.0811

                     22                     23                     24
                      A                      A                      A
 Frequencies --    466.1137               481.6466               529.2333
 Red. masses --      2.7795                 2.6615                 3.4276
 Frc consts  --      0.3558                 0.3638                 0.5656
 IR Inten    --      9.5849                 2.4960                17.3617

                     25                     26                     27
                      A                      A                      A
 Frequencies --    568.3448               576.7659               620.7256
 Red. masses --      5.5586                 3.3267                 6.5973
 Frc consts  --      1.0579                 0.6520                 1.4977
 IR Inten    --      7.4442                 3.0768                 1.4272

                     28                     29                     30
                      A                      A                      A
 Frequencies --    671.1225               721.7092               737.4844
 Red. masses --      6.4250                 2.5641                 1.5273
 Frc consts  --      1.7050                 0.7869                 0.4894
 IR Inten    --     13.8544                59.4321                94.9457

                     31                     32                     33
                      A                      A                      A
 Frequencies --    782.0783               803.6967               809.7815
 Red. masses --      3.2718                 1.3357                 1.5796
 Frc consts  --      1.1790                 0.5083                 0.6103
 IR Inten    --     18.5150                27.5796               112.1697

                     34                     35                     36
                      A                      A                      A
 Frequencies --    833.0877               865.1820               908.6569
 Red. masses --      4.3801                 2.3044                 2.2024
 Frc consts  --      1.7911                 1.0163                 1.0714
 IR Inten    --     38.8464                48.2837                 6.1866

                     37                     38                     39
                      A                      A                      A
 Frequencies --    918.3060               943.3810               958.5050
 Red. masses --      1.9944                 1.7227                 2.8327
 Frc consts  --      0.9909                 0.9033                 1.5333
 IR Inten    --      8.9674                 2.5771                49.2928

                     40                     41                     42
                      A                      A                      A
 Frequencies --    965.9387               983.8305              1002.7073
 Red. masses --      2.1250                 2.1691                 1.8464
 Frc consts  --      1.1682                 1.2370                 1.0937
 IR Inten    --      5.2502                 6.8521                32.7189

                     43                     44                     45
                      A                      A                      A
 Frequencies --   1039.8459              1070.8570              1102.7192
 Red. masses --      1.4488                 2.3648                 1.9986
 Frc consts  --      0.9230                 1.5978                 1.4319
 IR Inten    --      2.9360                41.2458                 5.4019

                     46                     47                     48
                      A                      A                      A
 Frequencies --   1148.3622              1193.2116              1213.2381
 Red. masses --      2.0662                 1.8451                 1.9848
 Frc consts  --      1.6054                 1.5478                 1.7213
 IR Inten    --     52.6351                 9.4655                 9.3450

                     49                     50                     51
                      A                      A                      A
 Frequencies --   1221.1142              1253.3649              1262.0830
 Red. masses --      2.4285                 2.0305                 2.2610
 Frc consts  --      2.1336                 1.8793                 2.1219
 IR Inten    --     69.8413                 3.9254                 0.1224

                     52                     53                     54
                      A                      A                      A
 Frequencies --   1280.6893              1317.1849              1344.6328
 Red. masses --      2.3468                 1.3645                 1.7401
 Frc consts  --      2.2679                 1.3948                 1.8537
 IR Inten    --      7.0600                21.3242                 2.1728

                     55                     56                     57
                      A                      A                      A
 Frequencies --   1379.2342              1401.9467              1405.5865
 Red. masses --      1.3991                 1.5668                 1.3349
 Frc consts  --      1.5681                 1.8143                 1.5539
 IR Inten    --      3.7541                14.3404                 9.8013

                     58                     59                     60
                      A                      A                      A
 Frequencies --   1410.1290              1427.2652              1431.0328
 Red. masses --      1.4075                 1.4937                 3.0346
 Frc consts  --      1.6489                 1.7927                 3.6615
 IR Inten    --     26.5776                27.3871                97.6907

                     61                     62                     63
                      A                      A                      A
 Frequencies --   1439.4709              1446.4339              1451.9009
 Red. masses --      1.2726                 1.2834                 2.8086
 Frc consts  --      1.5537                 1.5820                 3.4883
 IR Inten    --     36.1827                 6.6197                84.9517

                     64                     65                     66
                      A                      A                      A
 Frequencies --   1495.2519              1504.6783              1510.4486
 Red. masses --      1.1783                 1.0593                 1.0881
 Frc consts  --      1.5521                 1.4131                 1.4626
 IR Inten    --     73.6708                 0.6636                 7.6177

                     67                     68                     69
                      A                      A                      A
 Frequencies --   1513.5901              1519.4131              1527.5400
 Red. masses --      1.0825                 1.0707                 1.0651
 Frc consts  --      1.4612                 1.4563                 1.4643
 IR Inten    --      3.8773                 5.2198                 1.8086

                     70                     71                     72
                      A                      A                      A
 Frequencies --   1530.9303              1536.1238              1537.9665
 Red. masses --      1.1075                 1.0644                 1.1046
 Frc consts  --      1.5294                 1.4799                 1.5394
 IR Inten    --     10.9552                 1.2415                 9.7780

                     73                     74                     75
                      A                      A                      A
 Frequencies --   1541.4622              1553.0856              1722.5929
 Red. masses --      1.1674                 3.3915                 1.1408
 Frc consts  --      1.6344                 4.8198                 1.9945
 IR Inten    --      4.1607               115.3893                71.2503

                     76                     77                     78
                      A                      A                      A
 Frequencies --   3018.0679              3037.6056              3046.5278
 Red. masses --      1.0688                 1.0678                 1.0360
 Frc consts  --      5.7357                 5.8048                 5.6651
 IR Inten    --     29.1926                26.0839                21.5894

                     79                     80                     81
                      A                      A                      A
 Frequencies --   3055.7834              3057.0481              3059.5085
 Red. masses --      1.0371                 1.0380                 1.0646
 Frc consts  --      5.7057                 5.7156                 5.8711
 IR Inten    --     20.8750                30.2720                16.1397

                     82                     83                     84
                      A                      A                      A
 Frequencies --   3100.6846              3105.1278              3115.6733
 Red. masses --      1.0951                 1.1006                 1.1013
 Frc consts  --      6.2030                 6.2520                 6.2990
 IR Inten    --     13.4976                 6.6382                12.5254

                     85                     86                     87
                      A                      A                      A
 Frequencies --   3122.6700              3123.0092              3125.8551
 Red. masses --      1.0976                 1.1010                 1.1018
 Frc consts  --      6.3060                 6.3271                 6.3431
 IR Inten    --     27.2271                41.7400                18.2351

                     88                     89                     90
                      A                      A                      A
 Frequencies --   3131.8851              3133.8316              3136.0563
 Red. masses --      1.1015                 1.1026                 1.0979
 Frc consts  --      6.3660                 6.3798                 6.3616
 IR Inten    --     31.5879                54.6490                13.4462

                     91                     92                     93
                      A                      A                      A
 Frequencies --   3296.4862              3387.7743              3648.9573
 Red. masses --      1.0657                 1.0652                 1.0844
 Frc consts  --      6.8234                 7.2027                 8.5074
 IR Inten    --    188.2142               683.8750                64.9669

 - Thermochemistry -
 -------------------
 Temperature   298.150 Kelvin.  Pressure   1.00000 Atm.
 Atom     1 has atomic number  6 and mass  12.00000

 Molecular mass:   230.12013 amu.
 Principal axes and moments of inertia in atomic units:
                           1         2         3
     Eigenvalues --  2225.997805093.969236648.04937
           X            0.99998  -0.00582  -0.00177
           Y            0.00583   0.99993   0.01075
           Z            0.00171  -0.01076   0.99994
 This molecule is an asymmetric top.
 Rotational symmetry number  1.
 Warning -- assumption of classical behavior for rotation
           may cause significant error
 Rotational temperatures (Kelvin)      0.03891     0.01700     0.01303
 Rotational constants (GHZ):           0.81076     0.35429     0.27147
 Zero-point vibrational energy     739689.4 (Joules/Mol)
                                  176.79002 (Kcal/Mol)
 Warning -- explicit consideration of  27 degrees of freedom as
           vibrations may cause significant error
 Vibrational temperatures:     50.92    55.94   109.20   121.30   137.82
          (Kelvin)            173.27   241.83   299.50   325.30   335.78
                              350.12   384.31   417.20   437.80   494.37
                              496.78   530.08   557.60   570.15   599.10
                              623.75   670.63   692.98   761.45   817.72
                              829.84   893.09   965.60  1038.38  1061.08
                             1125.24  1156.34  1165.09  1198.63  1244.80
                             1307.35  1321.24  1357.31  1379.07  1389.77
                             1415.51  1442.67  1496.11  1540.72  1586.57
                             1652.24  1716.77  1745.58  1756.91  1803.31
                             1815.86  1842.63  1895.14  1934.63  1984.41
                             2017.09  2022.33  2028.86  2053.52  2058.94
                             2071.08  2081.10  2088.96  2151.33  2164.90
                             2173.20  2177.72  2186.10  2197.79  2202.67
                             2210.14  2212.79  2217.82  2234.54  2478.43
                             4342.33  4370.44  4383.27  4396.59  4398.41
                             4401.95  4461.19  4467.59  4482.76  4492.83
                             4493.31  4497.41  4506.08  4508.88  4512.09
                             4742.91  4874.25  5250.04

 Zero-point correction=                           0.281733 (Hartree/Particle)
 Thermal correction to Energy=                    0.298077
 Thermal correction to Enthalpy=                  0.299022
 Thermal correction to Gibbs Free Energy=         0.237839
 Sum of electronic and zero-point Energies=          -1045.951480
 Sum of electronic and thermal Energies=             -1045.935136
 Sum of electronic and thermal Enthalpies=           -1045.934192
 Sum of electronic and thermal Free Energies=        -1045.995374

                     E (Thermal)             CV                S
                      KCal/Mol        Cal/Mol-Kelvin    Cal/Mol-Kelvin
 Total                  187.046             62.150            128.769
 Electronic               0.000              0.000              0.000
 Translational            0.889              2.981             42.202
 Rotational               0.889              2.981             32.689
 Vibrational            185.269             56.189             53.879
 Vibration     1          0.594              1.982              5.502
 Vibration     2          0.594              1.981              5.315
 Vibration     3          0.599              1.965              3.994
 Vibration     4          0.601              1.960              3.788
 Vibration     5          0.603              1.952              3.538
 Vibration     6          0.609              1.932              3.094
 Vibration     7          0.625              1.882              2.457
 Vibration     8          0.641              1.828              2.060
 Vibration     9          0.650              1.801              1.910
 Vibration    10          0.654              1.790              1.853
 Vibration    11          0.659              1.774              1.778
 Vibration    12          0.672              1.733              1.615
 Vibration    13          0.686              1.692              1.474
 Vibration    14          0.695              1.666              1.393
 Vibration    15          0.722              1.588              1.195
 Vibration    16          0.724              1.585              1.188
 Vibration    17          0.741              1.537              1.086
 Vibration    18          0.756              1.497              1.010
 Vibration    19          0.763              1.478              0.976
 Vibration    20          0.780              1.435              0.904
 Vibration    21          0.794              1.397              0.847
 Vibration    22          0.823              1.325              0.749
 Vibration    23          0.838              1.291              0.706
 Vibration    24          0.884              1.185              0.589
 Vibration    25          0.924              1.100              0.507
 Vibration    26          0.933              1.082              0.491
 Vibration    27          0.981              0.988              0.415

                           ! Non-Optimized Parameters !
 Normal termination of Gaussian 16 at Thu Dec 10 18:17:20 2020.

 ----------------------------------------------------------------------
 # B3LYP/6-311++G(d,p) empiricaldispersion=gd3bj scf=xqc pop=npa geom=c
 heck
 ----------------------------------------------------------------------

 --------------------------------------
 CID_79377956_JID_5909_Energie_neutraal
 --------------------------------------
 Structure from the checkpoint file:  "JID_5909.chk"
 Charge =  0 Multiplicity = 1

 SCF Done:  E(RB3LYP) =  -1046.45100744     A.U. after   17 cycles
 Normal termination of Gaussian 16 at Thu Dec 10 18:22:22 2020.

 ----------------------------------------------------------------------
 # B3LYP/6-311++G(d,p) empiricaldispersion=gd3bj scf=xqc pop=npa geom=c
 heck
 ----------------------------------------------------------------------

 ------------------------------------
 CID_79377956_JID_5909_Energie_kation
 ------------------------------------
 Structure from the checkpoint file:  "JID_5909.chk"
 Charge =  1 Multiplicity = 2

 SCF Done:  E(UB3LYP) =  -1046.15324223     A.U. after   29 cycles
 Normal termination of Gaussian 16 at Thu Dec 10 18:33:43 2020.
 Gaussian 16:  ES64L-G16RevA.03 25-Dec-2016

 ----------------------------------------------------------------------
 # B3LYP/6-311++G(d,p) empiricaldispersion=gd3bj scf=xqc pop=npa geom=c
 heck
 ----------------------------------------------------------------------

 -----------------------------------
 CID_79377956_JID_5909_Energie_anion
 -----------------------------------
 Structure from the checkpoint file:  "JID_5909.chk"
 Charge = -1 Multiplicity = 2

                         Standard orientation:
 ---------------------------------------------------------------------
 Center     Atomic      Atomic             Coordinates (Angstroms)
 Number     Number       Type             X           Y           Z
 ---------------------------------------------------------------------
      1          6           0       -0.798864   -3.468230    0.028227
      2          6           0       -0.561868   -2.205051   -0.806456
      3          7           0       -0.843162   -0.928081   -0.134280
      4          6           0        0.100077   -0.614630    0.959383
      5          6           0        1.459372   -0.227029    0.472008
      6          6           0        1.833139    1.050292    0.047938
      7         16           0        3.505325    1.024886   -0.382116
      8          7           0        3.613069   -0.732850    0.035368
      9          7           0        2.478705   -1.130663    0.429335
     10          7           0        1.042322    2.162111    0.022292
     11          6           0       -2.243902   -0.704434    0.226610
     12          6           0       -2.645401    0.801017   -0.026603
     13          6           0       -3.975097    0.853758   -0.785473
     14          6           0       -2.750669    1.604822    1.271932
     15          8           0       -1.629650    1.396481   -0.848412
     16          1           0       -0.137694   -3.507530    0.899439
     17          1           0       -0.594772   -4.357770   -0.577581
     18          1           0       -1.835310   -3.531278    0.378953
     19          1           0        0.482212   -2.172271   -1.133757
     20          1           0       -1.180357   -2.235457   -1.711063
     21          1           0       -0.321007    0.219438    1.525160
     22          1           0        0.199276   -1.455270    1.659853
     23          1           0        1.409389    2.978039   -0.446363
     24          1           0        0.037209    2.023104   -0.122072
     25          1           0       -2.855020   -1.344874   -0.415979
     26          1           0       -2.466979   -0.985913    1.266136
     27          1           0       -4.773965    0.362447   -0.216516
     28          1           0       -4.269560    1.891928   -0.968958
     29          1           0       -3.877360    0.349789   -1.752837
     30          1           0       -1.808253    1.602372    1.827971
     31          1           0       -3.002783    2.645945    1.045507
     32          1           0       -3.532466    1.195067    1.921485
     33          1           0       -1.057813    0.615507   -1.072618
 ---------------------------------------------------------------------

 SCF Done:  E(UB3LYP) =  -1046.44569203     A.U. after   33 cycles
 SCF Done:  E(UB3LYP) =  -1046.44569203     a.u. after    2 cycles

 The electronic state is 2-A.
 Alpha  occ. eigenvalues --  -88.76776 -19.01625 -14.24342 -14.24139 -14.22588
 Alpha  occ. eigenvalues --  -14.22488 -10.14224 -10.13637 -10.10880 -10.10506
 Alpha  occ. eigenvalues --  -10.10313 -10.09007 -10.06911 -10.06669 -10.06404
 Alpha  occ. eigenvalues --   -7.85294  -5.81593  -5.81251  -5.80860  -0.92788
 Alpha  occ. eigenvalues --   -0.92562  -0.83660  -0.82682  -0.69762  -0.68946
 Alpha  occ. eigenvalues --   -0.67470  -0.65629  -0.60738  -0.59634  -0.57052
 Alpha  occ. eigenvalues --   -0.51428  -0.49807  -0.47616  -0.45508  -0.42000
 Alpha  occ. eigenvalues --   -0.40506  -0.40207  -0.39538  -0.37278  -0.35956
 Alpha  occ. eigenvalues --   -0.35593  -0.34124  -0.33333  -0.32213  -0.31349
 Alpha  occ. eigenvalues --   -0.30479  -0.30239  -0.30141  -0.28272  -0.27640
 Alpha  occ. eigenvalues --   -0.26848  -0.26103  -0.25433  -0.25301  -0.24631
 Alpha  occ. eigenvalues --   -0.23569  -0.22528  -0.18007  -0.16374  -0.14370
 Alpha  occ. eigenvalues --   -0.14140  -0.11710   0.03978
 Alpha virt. eigenvalues --    0.05791   0.06696   0.07111   0.07735   0.08652
 Alpha virt. eigenvalues --    0.09336   0.09664   0.09989   0.10358   0.11113
 Alpha virt. eigenvalues --    0.12009   0.12299   0.12448   0.12961   0.13422

  Beta  occ. eigenvalues --  -88.76749 -19.01612 -14.24132 -14.24083 -14.22591
  Beta  occ. eigenvalues --  -14.22410 -10.14137 -10.13634 -10.10863 -10.10483
  Beta  occ. eigenvalues --  -10.10300 -10.09029 -10.06889 -10.06644 -10.06374
  Beta  occ. eigenvalues --   -7.85268  -5.81530  -5.81244  -5.80820  -0.92729
  Beta  occ. eigenvalues --   -0.92365  -0.83642  -0.82550  -0.69690  -0.68877
  Beta  occ. eigenvalues --   -0.67276  -0.65583  -0.60646  -0.59570  -0.56994
  Beta  occ. eigenvalues --   -0.51213  -0.49734  -0.47528  -0.45400  -0.41971
  Beta  occ. eigenvalues --   -0.40414  -0.40144  -0.39402  -0.37132  -0.35827
  Beta  occ. eigenvalues --   -0.35549  -0.34087  -0.33290  -0.31987  -0.31274
  Beta  occ. eigenvalues --   -0.30441  -0.30200  -0.30082  -0.28235  -0.27597
  Beta  occ. eigenvalues --   -0.26722  -0.26067  -0.25387  -0.25061  -0.24450
  Beta  occ. eigenvalues --   -0.23380  -0.22494  -0.17982  -0.16173  -0.14244
  Beta  occ. eigenvalues --   -0.13988  -0.11432
  Beta virt. eigenvalues --    0.06256   0.07201   0.07390   0.07621   0.08174
  Beta virt. eigenvalues --    0.09059   0.09522   0.10122   0.10369   0.10689
  Beta virt. eigenvalues --    0.11281   0.12156   0.12397   0.12610   0.13116

 Mulliken charges and spin densities:
               1          2
     1  C    0.239681  -0.683286
     2  C   -0.310808   0.035301
     3  N    0.021454   0.104091
     4  C   -0.351693  -0.781480
     5  C   -0.434723   0.015455
     6  C    0.536286   0.084424
     7  S   -0.423625   0.347886
     8  N    0.078943   0.068035
     9  N   -0.052881   0.038825
    10  N   -0.176246  -0.053625
    11  C    0.351569  -0.779035
    12  C   -1.302697   1.363550
    13  C    0.395836  -0.975011
    14  C    0.678510  -1.194666
    15  O   -0.097434  -0.001937
    16  H    0.007119   0.134248
    17  H   -0.019975   0.164448
    18  H   -0.127148   0.275689
    19  H    0.202091  -0.013864
    20  H   -0.095522   0.245199
    21  H    0.032919   0.065083
    22  H    0.218979  -0.011307
    23  H   -0.338194   0.627443
    24  H    0.528745  -0.222385
    25  H   -0.074719   0.282459
    26  H   -0.082211   0.271243
    27  H   -0.293200   0.436274
    28  H   -0.064359   0.208264
    29  H   -0.027873   0.181539
    30  H    0.011097   0.109059
    31  H    0.028577   0.133423
    32  H   -0.204539   0.352831
    33  H    0.146041   0.171828
 Sum of Mulliken charges =  -1.00000   1.00000

 Dipole moment (field-independent basis, Debye):
    X=              0.1637    Y=             -0.7125    Z=              0.5101  Tot=              0.8914
 Quadrupole moment (field-independent basis, Debye-Ang):
   XX=           -179.5024   YY=           -145.4594   ZZ=           -124.9583
   XY=             -1.0077   XZ=              1.9878   YZ=              3.6901

 Summary of Natural Population Analysis:

                                       Natural Population
                Natural  -----------------------------------------------
    Atom  No    Charge         Core      Valence    Rydberg      Total
 -----------------------------------------------------------------------
      C    1   -0.29895      0.99966     2.29446    0.00483     3.29895
      C    2   -0.08240      0.99961     2.07183    0.01096     3.08240
      N    3   -0.29607      0.99972     2.78321    0.01315     3.79607
      C    4   -0.09640      0.99956     2.08611    0.01073     3.09640
      C    5   -0.01536      0.99943     2.00074    0.01519     3.01536
      C    6    0.03000      0.99947     1.95349    0.01704     2.97000
      S    7    0.21142      4.99948     2.76689    0.02221     7.78858
      N    8   -0.14639      0.99982     2.63169    0.01488     3.64639
      N    9   -0.09763      0.99968     2.58191    0.01605     3.59763
      N   10   -0.39497      0.99968     2.88413    0.01116     3.89497
      C   11   -0.09389      0.99956     2.08214    0.01218     3.09389
      C   12    0.11766      0.99957     1.86741    0.01536     2.88234
      C   13   -0.29061      0.99961     2.28435    0.00665     3.29061
      C   14   -0.29276      0.99961     2.28621    0.00694     3.29276
      O   15   -0.39803      0.99989     3.39116    0.00699     4.39803
      H   16    0.10019      0.00000     0.39891    0.00090     0.39981
      H   17    0.10033      0.00000     0.39884    0.00083     0.39967
      H   18    0.09783      0.00000     0.40108    0.00109     0.40217
      H   19    0.10340      0.00000     0.39519    0.00141     0.39660
      H   20    0.09295      0.00000     0.40608    0.00097     0.40705
      H   21    0.10257      0.00000     0.39565    0.00178     0.39743
      H   22    0.09881      0.00000     0.39972    0.00148     0.40119
      H   23    0.19407      0.00000     0.30047    0.00546     0.30593
      H   24    0.20925      0.00000     0.28789    0.00286     0.29075
      H   25    0.10152      0.00000     0.39683    0.00164     0.39848
      H   26    0.09402      0.00000     0.40441    0.00157     0.40598
      H   27    0.10004      0.00000     0.39859    0.00137     0.39996
      H   28    0.10166      0.00000     0.39741    0.00093     0.39834
      H   29    0.10149      0.00000     0.39744    0.00107     0.39851
      H   30    0.09894      0.00000     0.39992    0.00114     0.40106
      H   31    0.10281      0.00000     0.39623    0.00096     0.39719
      H   32    0.10126      0.00000     0.39759    0.00115     0.39874
      H   33    0.24326      0.00000     0.25278    0.00396     0.25674
 =======================================================================
   * Total *    0.00000     18.99435    42.79076    0.21488    62.00000

 Normal termination of Gaussian 16 at Thu Dec 10 19:07:02 2020.
