 Gaussian 16, Revision A.03,

 -----------------------------------------------------------
 # opt freq B3LYP/6-31G(d) empiricaldispersion=gd3bj scf=xqc
 -----------------------------------------------------------

 -------------------------------
 CID_101967615_JID_9301_neutraal
 -------------------------------
 Symbolic Z-matrix:
 Charge =  0 Multiplicity = 1

 SCF Done:  E(RB3LYP) =  -954.939486075     A.U. after   13 cycles
 SCF Done:  E(RB3LYP) =  -954.951089532     A.U. after   12 cycles
 SCF Done:  E(RB3LYP) =  -954.953050717     A.U. after   11 cycles
 SCF Done:  E(RB3LYP) =  -954.954113293     A.U. after   12 cycles
 SCF Done:  E(RB3LYP) =  -954.954706189     A.U. after   11 cycles
 SCF Done:  E(RB3LYP) =  -954.954818926     A.U. after   11 cycles
 SCF Done:  E(RB3LYP) =  -954.954880306     A.U. after   10 cycles
 SCF Done:  E(RB3LYP) =  -954.954929219     A.U. after   10 cycles
 SCF Done:  E(RB3LYP) =  -954.954984210     A.U. after   11 cycles
 SCF Done:  E(RB3LYP) =  -954.955007982     A.U. after    9 cycles
 SCF Done:  E(RB3LYP) =  -954.955046688     A.U. after   10 cycles
 SCF Done:  E(RB3LYP) =  -954.955060487     A.U. after    9 cycles
 SCF Done:  E(RB3LYP) =  -954.955063064     A.U. after    9 cycles
 SCF Done:  E(RB3LYP) =  -954.955063700     A.U. after    8 cycles
 SCF Done:  E(RB3LYP) =  -954.955063840     A.U. after    7 cycles
 Optimization completed.
    -- Stationary point found.
 Normal termination of Gaussian 16 at Sun Dec 13 20:21:04 2020.

 --------------------------------------------------------------------
 #N Geom=AllCheck Guess=TCheck SCRF=Check GenChk RB3LYP/6-31G(d) Freq
 --------------------------------------------------------------------

 Structure from the checkpoint file:  "JID_9301.chk"
 -------------------------------
 CID_101967615_JID_9301_neutraal
 -------------------------------
 Charge =  0 Multiplicity = 1

 SCF Done:  E(RB3LYP) =  -954.955063840     A.U. after    1 cycles

  Exact polarizability: 192.063  -5.654 121.805  -4.008   8.861 154.379
 Approx polarizability: 263.666 -11.882 166.799  -7.369  21.095 252.746

                      1                      2                      3
                      A                      A                      A
 Frequencies --     18.5820                26.2282                36.8170
 Red. masses --      5.0918                 6.4860                 5.6090
 Frc consts  --      0.0010                 0.0026                 0.0045
 IR Inten    --      0.7694                 0.4479                 0.5902

                      4                      5                      6
                      A                      A                      A
 Frequencies --     50.4640                61.5894                66.8464
 Red. masses --      4.7070                 5.4717                 5.5221
 Frc consts  --      0.0071                 0.0122                 0.0145
 IR Inten    --      0.7904                 0.1574                 0.9388

                      7                      8                      9
                      A                      A                      A
 Frequencies --     95.3924               120.3856               137.3448
 Red. masses --      5.3450                 4.7270                 4.0173
 Frc consts  --      0.0287                 0.0404                 0.0446
 IR Inten    --      1.3130                 0.6067                 0.2028

                     10                     11                     12
                      A                      A                      A
 Frequencies --    160.5981               188.7709               198.5737
 Red. masses --      4.4707                 3.7446                 1.1265
 Frc consts  --      0.0679                 0.0786                 0.0262
 IR Inten    --      2.2295                 0.7296                42.9146

                     13                     14                     15
                      A                      A                      A
 Frequencies --    203.6900               247.6091               269.2437
 Red. masses --      1.0438                 3.8078                 2.6833
 Frc consts  --      0.0255                 0.1375                 0.1146
 IR Inten    --      0.6631                 8.2534                 2.7622

                     16                     17                     18
                      A                      A                      A
 Frequencies --    275.2884               294.4467               334.7169
 Red. masses --      3.7390                 2.7674                 2.8221
 Frc consts  --      0.1669                 0.1414                 0.1863
 IR Inten    --     27.8959                 2.4818                 9.4833

                     19                     20                     21
                      A                      A                      A
 Frequencies --    347.6344               354.9517               357.3646
 Red. masses --      2.7077                 1.2257                 1.5190
 Frc consts  --      0.1928                 0.0910                 0.1143
 IR Inten    --     13.7508               126.3156                85.4062

                     22                     23                     24
                      A                      A                      A
 Frequencies --    367.5217               381.2758               385.6671
 Red. masses --      2.1749                 1.2154                 1.4889
 Frc consts  --      0.1731                 0.1041                 0.1305
 IR Inten    --     22.5144               104.0567                42.2774

                     25                     26                     27
                      A                      A                      A
 Frequencies --    436.0845               464.0641               479.1890
 Red. masses --      3.4714                 4.4689                 2.3666
 Frc consts  --      0.3890                 0.5670                 0.3202
 IR Inten    --     21.5193                11.9045                52.7682

                     28                     29                     30
                      A                      A                      A
 Frequencies --    482.8375               487.3850               499.2983
 Red. masses --      3.7252                 2.2710                 3.1332
 Frc consts  --      0.5117                 0.3178                 0.4602
 IR Inten    --      5.7954                14.1451                20.9848

                     31                     32                     33
                      A                      A                      A
 Frequencies --    513.3505               548.3962               584.8046
 Red. masses --      3.5312                 4.0062                 3.3925
 Frc consts  --      0.5483                 0.7099                 0.6836
 IR Inten    --     26.2127                20.4801                56.9300

                     34                     35                     36
                      A                      A                      A
 Frequencies --    605.5452               627.3797               672.5738
 Red. masses --      2.8745                 3.8757                 4.8679
 Frc consts  --      0.6210                 0.8988                 1.2974
 IR Inten    --     10.3899                13.7941                 1.3316

                     37                     38                     39
                      A                      A                      A
 Frequencies --    731.8497               749.4467               756.7245
 Red. masses --      3.5070                 2.9899                 2.0566
 Frc consts  --      1.1067                 0.9894                 0.6939
 IR Inten    --     17.4106                36.5051                63.1394

                     40                     41                     42
                      A                      A                      A
 Frequencies --    786.4360               805.4985               828.2659
 Red. masses --      2.1816                 1.4207                 3.2620
 Frc consts  --      0.7950                 0.5431                 1.3185
 IR Inten    --     40.7949                26.0150                 3.7328

                     43                     44                     45
                      A                      A                      A
 Frequencies --    884.4747               890.7682               905.7689
 Red. masses --      2.6398                 3.1177                 1.4692
 Frc consts  --      1.2167                 1.4575                 0.7102
 IR Inten    --     11.4567                35.2321                17.4616

                     46                     47                     48
                      A                      A                      A
 Frequencies --    927.9721               982.5479               992.3931
 Red. masses --      1.2917                 2.5018                 2.5543
 Frc consts  --      0.6553                 1.4230                 1.4821
 IR Inten    --      1.7751               117.5520                23.6835

                     49                     50                     51
                      A                      A                      A
 Frequencies --   1005.4098              1032.7915              1044.5592
 Red. masses --      2.0119                 1.7066                 2.5448
 Frc consts  --      1.1982                 1.0725                 1.6359
 IR Inten    --     48.0402                11.8226                50.6763

                     52                     53                     54
                      A                      A                      A
 Frequencies --   1069.0603              1074.8185              1080.0875
 Red. masses --      3.1424                 3.2758                 1.7137
 Frc consts  --      2.1160                 2.2297                 1.1779
 IR Inten    --     66.1739               237.1501                64.8345

                     55                     56                     57
                      A                      A                      A
 Frequencies --   1103.4572              1111.2188              1135.1305
 Red. masses --      3.1857                 3.5570                 2.2962
 Frc consts  --      2.2854                 2.5878                 1.7432
 IR Inten    --     73.7503               276.4587                11.2257

                     58                     59                     60
                      A                      A                      A
 Frequencies --   1146.0692              1149.7404              1164.2275
 Red. masses --      2.4044                 3.8072                 2.6482
 Frc consts  --      1.8607                 2.9652                 2.1148
 IR Inten    --      4.4820                18.1523                34.0875

                     61                     62                     63
                      A                      A                      A
 Frequencies --   1195.0107              1223.2673              1227.5597
 Red. masses --      1.4375                 1.4187                 1.2187
 Frc consts  --      1.2095                 1.2508                 1.0820
 IR Inten    --     30.1904               121.1959                26.4291

                     64                     65                     66
                      A                      A                      A
 Frequencies --   1238.8030              1248.7889              1258.6237
 Red. masses --      1.5742                 1.5988                 1.2948
 Frc consts  --      1.4234                 1.4690                 1.2085
 IR Inten    --     14.0826                22.2100                19.7043

                     67                     68                     69
                      A                      A                      A
 Frequencies --   1280.1986              1302.7028              1316.5610
 Red. masses --      1.2875                 1.9797                 1.3957
 Frc consts  --      1.2433                 1.9795                 1.4254
 IR Inten    --      6.1803                15.4152                14.1430

                     70                     71                     72
                      A                      A                      A
 Frequencies --   1333.6140              1337.5177              1361.7048
 Red. masses --      1.3909                 1.8653                 3.1506
 Frc consts  --      1.4575                 1.9660                 3.4419
 IR Inten    --      1.6494                72.5187                83.5776

                     73                     74                     75
                      A                      A                      A
 Frequencies --   1392.6225              1400.1338              1404.4210
 Red. masses --      1.5105                 1.3465                 1.3317
 Frc consts  --      1.7260                 1.5552                 1.5475
 IR Inten    --      6.2733                 3.2743                36.6276

                     76                     77                     78
                      A                      A                      A
 Frequencies --   1432.9786              1436.3432              1439.0089
 Red. masses --      1.2265                 1.1860                 1.2041
 Frc consts  --      1.4838                 1.4416                 1.4691
 IR Inten    --     19.5028                10.8119               109.7349

                     79                     80                     81
                      A                      A                      A
 Frequencies --   1443.2919              1457.3376              1465.9064
 Red. masses --      1.2364                 1.3035                 1.5060
 Frc consts  --      1.5175                 1.6312                 1.9068
 IR Inten    --     11.5191                50.0306                20.1343

                     82                     83                     84
                      A                      A                      A
 Frequencies --   1495.6770              1500.8440              1514.3712
 Red. masses --      2.2804                 1.0831                 1.0936
 Frc consts  --      3.0057                 1.4374                 1.4777
 IR Inten    --      7.1185                 4.6936                 1.3704

                     85                     86                     87
                      A                      A                      A
 Frequencies --   1516.6969              1519.6082              1537.6286
 Red. masses --      1.0911                 1.2274                 1.3106
 Frc consts  --      1.4788                 1.6699                 1.8257
 IR Inten    --      2.7992                37.2943                50.1385

                     88                     89                     90
                      A                      A                      A
 Frequencies --   1538.5259              1557.5574              1648.1050
 Red. masses --      1.1572                 2.6467                 6.3510
 Frc consts  --      1.6139                 3.7830                10.1639
 IR Inten    --     41.3204                61.4691                60.2065

                     91                     92                     93
                      A                      A                      A
 Frequencies --   1683.3280              2966.7843              3009.8627
 Red. masses --      5.9651                 1.0737                 1.0706
 Frc consts  --      9.9588                 5.5679                 5.7144
 IR Inten    --     40.0251                78.3580                62.6147

                     94                     95                     96
                      A                      A                      A
 Frequencies --   3032.8588              3039.5537              3094.6264
 Red. masses --      1.0674                 1.0566                 1.0951
 Frc consts  --      5.7847                 5.7517                 6.1787
 IR Inten    --      1.2230                54.0555                19.4250

                     97                     98                     99
                      A                      A                      A
 Frequencies --   3099.2329              3109.7425              3121.3622
 Red. masses --      1.0910                 1.0863                 1.0897
 Frc consts  --      6.1742                 6.1893                 6.2554
 IR Inten    --     14.9597                20.1619                43.5143

                    100                    101                    102
                      A                      A                      A
 Frequencies --   3126.3058              3126.9335              3167.2787
 Red. masses --      1.0897                 1.1011                 1.0878
 Frc consts  --      6.2750                 6.3435                 6.4294
 IR Inten    --     32.0156                17.2434                19.6342

                    103                    104                    105
                      A                      A                      A
 Frequencies --   3189.5882              3208.7286              3512.0166
 Red. masses --      1.0934                 1.0902                 1.0734
 Frc consts  --      6.5542                 6.6131                 7.8009
 IR Inten    --     26.1272                 2.0275                 5.3791

                    106                    107                    108
                      A                      A                      A
 Frequencies --   3513.9579              3703.6434              3707.5480
 Red. masses --      1.0735                 1.0650                 1.0654
 Frc consts  --      7.8102                 8.6071                 8.6284
 IR Inten    --      4.8173                10.5773                11.2479

                    109                    110                    111
                      A                      A                      A
 Frequencies --   3708.7295              3746.3179              3752.6355
 Red. masses --      1.0660                 1.0659                 1.0659
 Frc consts  --      8.6390                 8.8144                 8.8438
 IR Inten    --      5.8659                21.7709                44.4840

 - Thermochemistry -
 -------------------
 Temperature   298.150 Kelvin.  Pressure   1.00000 Atm.
 Atom     1 has atomic number  6 and mass  12.00000

 Molecular mass:   272.13722 amu.
 Principal axes and moments of inertia in atomic units:
                           1         2         3
     Eigenvalues --  4763.148977376.065399433.80245
           X            0.99996   0.00153   0.00861
           Y           -0.00151   1.00000  -0.00269
           Z           -0.00861   0.00268   0.99996
 This molecule is an asymmetric top.
 Rotational symmetry number  1.
 Warning -- assumption of classical behavior for rotation
           may cause significant error
 Rotational temperatures (Kelvin)      0.01818     0.01174     0.00918
 Rotational constants (GHZ):           0.37890     0.24468     0.19131
 Zero-point vibrational energy     863626.5 (Joules/Mol)
                                  206.41168 (Kcal/Mol)
 Warning -- explicit consideration of  34 degrees of freedom as
           vibrations may cause significant error
 Vibrational temperatures:     26.74    37.74    52.97    72.61    88.61
          (Kelvin)             96.18   137.25   173.21   197.61   231.06
                              271.60   285.70   293.06   356.25   387.38
                              396.08   423.64   481.58   500.17   510.70
                              514.17   528.78   548.57   554.89   627.43
                              667.68   689.45   694.70   701.24   718.38
                              738.60   789.02   841.40   871.24   902.66
                              967.68  1052.97  1078.29  1088.76  1131.51
                             1158.93  1191.69  1272.56  1281.62  1303.20
                             1335.14  1413.67  1427.83  1446.56  1485.96
                             1502.89  1538.14  1546.42  1554.01  1587.63
                             1598.80  1633.20  1648.94  1654.22  1675.06
                             1719.35  1760.01  1766.18  1782.36  1796.73
                             1810.88  1841.92  1874.30  1894.24  1918.77
                             1924.39  1959.19  2003.67  2014.48  2020.65
                             2061.74  2066.58  2070.41  2076.58  2096.78
                             2109.11  2151.95  2159.38  2178.84  2182.19
                             2186.38  2212.30  2213.60  2240.98  2371.26
                             2421.93  4268.54  4330.52  4363.61  4373.24
                             4452.48  4459.10  4474.23  4490.94  4498.06
                             4498.96  4557.01  4589.11  4616.64  5053.01
                             5055.80  5328.72  5334.33  5336.03  5390.12
                             5399.21

 Zero-point correction=                           0.328938 (Hartree/Particle)
 Thermal correction to Energy=                    0.349403
 Thermal correction to Enthalpy=                  0.350347
 Thermal correction to Gibbs Free Energy=         0.278115
 Sum of electronic and zero-point Energies=           -954.626126
 Sum of electronic and thermal Energies=              -954.605661
 Sum of electronic and thermal Enthalpies=            -954.604717
 Sum of electronic and thermal Free Energies=         -954.676949

                     E (Thermal)             CV                S
                      KCal/Mol        Cal/Mol-Kelvin    Cal/Mol-Kelvin
 Total                  219.254             76.787            152.027
 Electronic               0.000              0.000              0.000
 Translational            0.889              2.981             42.702
 Rotational               0.889              2.981             34.160
 Vibrational            217.476             70.825             75.165
 Vibration     1          0.593              1.986              6.780
 Vibration     2          0.593              1.985              6.096
 Vibration     3          0.594              1.982              5.423
 Vibration     4          0.595              1.977              4.799
 Vibration     5          0.597              1.973              4.406
 Vibration     6          0.598              1.970              4.244
 Vibration     7          0.603              1.952              3.546
 Vibration     8          0.609              1.932              3.094
 Vibration     9          0.614              1.916              2.841
 Vibration    10          0.622              1.891              2.543
 Vibration    11          0.633              1.855              2.240
 Vibration    12          0.637              1.842              2.146
 Vibration    13          0.639              1.835              2.100
 Vibration    14          0.661              1.767              1.748
 Vibration    15          0.674              1.730              1.601
 Vibration    16          0.677              1.719              1.563
 Vibration    17          0.689              1.684              1.448
 Vibration    18          0.716              1.606              1.237
 Vibration    19          0.725              1.580              1.177
 Vibration    20          0.731              1.565              1.144
 Vibration    21          0.733              1.560              1.134
 Vibration    22          0.740              1.539              1.090
 Vibration    23          0.751              1.510              1.034
 Vibration    24          0.754              1.501              1.017
 Vibration    25          0.797              1.392              0.839
 Vibration    26          0.822              1.330              0.754
 Vibration    27          0.836              1.296              0.712
 Vibration    28          0.839              1.288              0.702
 Vibration    29          0.843              1.278              0.690
 Vibration    30          0.855              1.252              0.660
 Vibration    31          0.868              1.220              0.626
 Vibration    32          0.904              1.143              0.548
 Vibration    33          0.942              1.064              0.477
 Vibration    34          0.964              1.020              0.440

                           ! Non-Optimized Parameters !
 Normal termination of Gaussian 16 at Sun Dec 13 20:42:52 2020.

 ----------------------------------------------------------------------
 # B3LYP/6-311++G(d,p) empiricaldispersion=gd3bj scf=xqc pop=npa geom=c
 heck
 ----------------------------------------------------------------------

 ---------------------------------------
 CID_101967615_JID_9301_Energie_neutraal
 ---------------------------------------
 Structure from the checkpoint file:  "JID_9301.chk"
 Charge =  0 Multiplicity = 1

 SCF Done:  E(RB3LYP) =  -955.279790908     A.U. after   14 cycles
 Normal termination of Gaussian 16 at Sun Dec 13 20:51:57 2020.

 ----------------------------------------------------------------------
 # B3LYP/6-311++G(d,p) empiricaldispersion=gd3bj scf=xqc pop=npa geom=c
 heck
 ----------------------------------------------------------------------

 -------------------------------------
 CID_101967615_JID_9301_Energie_kation
 -------------------------------------
 Structure from the checkpoint file:  "JID_9301.chk"
 Charge =  1 Multiplicity = 2

 SCF Done:  E(UB3LYP) =  -954.996811105     A.U. after   23 cycles
 Normal termination of Gaussian 16 at Sun Dec 13 21:13:44 2020.
 Gaussian 16:  ES64L-G16RevA.03 25-Dec-2016

 ----------------------------------------------------------------------
 # B3LYP/6-311++G(d,p) empiricaldispersion=gd3bj scf=xqc pop=npa geom=c
 heck
 ----------------------------------------------------------------------

 ------------------------------------
 CID_101967615_JID_9301_Energie_anion
 ------------------------------------
 Structure from the checkpoint file:  "JID_9301.chk"
 Charge = -1 Multiplicity = 2

                         Standard orientation:
 ---------------------------------------------------------------------
 Center     Atomic      Atomic             Coordinates (Angstroms)
 Number     Number       Type             X           Y           Z
 ---------------------------------------------------------------------
      1          6           0        1.634924    0.337247    2.793366
      2          6           0        2.182860   -0.004574    1.429040
      3          6           0        1.335907   -0.206766    0.321700
      4          6           0        1.869598   -0.579284   -0.913190
      5          6           0        3.248588   -0.725850   -1.078893
      6          6           0        4.100651   -0.503968    0.002130
      7          6           0        3.558543   -0.152507    1.237951
      8          8           0        3.697751   -1.089101   -2.320402
      9          6           0       -0.173117   -0.095795    0.470184
     10          7           0       -0.780657    0.512863   -0.741515
     11          6           0       -1.767459    1.549147   -0.469618
     12          6           0       -1.167053    2.919310   -0.126991
     13          8           0       -0.280616    3.343695   -1.147548
     14          8           0       -2.172616    3.864206    0.154658
     15          7           0       -0.666213   -1.421173    0.824569
     16          6           0       -2.100794   -1.570715    1.015616
     17          6           0       -2.915876   -1.790211   -0.261772
     18          8           0       -2.413862   -2.984199   -0.833522
     19          8           0       -4.300005   -1.880325    0.003177
     20          1           0        1.164493    1.329300    2.814604
     21          1           0        0.877481   -0.390985    3.104034
     22          1           0        2.433434    0.339589    3.541424
     23          1           0        1.224607   -0.769047   -1.765318
     24          1           0        5.177312   -0.611242   -0.114871
     25          1           0        4.227951    0.006781    2.079525
     26          1           0        4.664183   -1.161179   -2.291605
     27          1           0       -0.401690    0.542903    1.332792
     28          1           0       -0.048370    0.939130   -1.304995
     29          1           0       -2.408039    1.679767   -1.360741
     30          1           0       -2.428230    1.232332    0.342942
     31          1           0       -0.541284    2.863453    0.767388
     32          1           0       -0.805708    3.482971   -1.953912
     33          1           0       -2.925620    3.694452   -0.435587
     34          1           0       -0.346368   -2.105336    0.141942
     35          1           0       -2.281917   -2.443986    1.661613
     36          1           0       -2.493060   -0.695030    1.543146
     37          1           0       -2.805752   -0.951201   -0.952693
     38          1           0       -2.824745   -3.081383   -1.706803
     39          1           0       -4.416447   -2.633524    0.607704
 ---------------------------------------------------------------------

 SCF Done:  E(UB3LYP) =  -955.273965094     A.U. after   33 cycles
 SCF Done:  E(UB3LYP) =  -955.273965094     a.u. after    1 cycles

 The electronic state is 2-A.
 Alpha  occ. eigenvalues --  -19.06242 -19.05209 -19.05202 -19.04151 -19.03728
 Alpha  occ. eigenvalues --  -14.21223 -14.20921 -10.18158 -10.17973 -10.14704
 Alpha  occ. eigenvalues --  -10.14503 -10.11368 -10.10872 -10.09718 -10.09333
 Alpha  occ. eigenvalues --  -10.09037 -10.08650 -10.08565 -10.08217  -0.98803
 Alpha  occ. eigenvalues --   -0.97601  -0.97252  -0.92082  -0.91119  -0.85183
 Alpha  occ. eigenvalues --   -0.79201  -0.77155  -0.68879  -0.68162  -0.64385
 Alpha  occ. eigenvalues --   -0.62385  -0.60147  -0.57311  -0.54779  -0.53740
 Alpha  occ. eigenvalues --   -0.51900  -0.50636  -0.48210  -0.45793  -0.44428
 Alpha  occ. eigenvalues --   -0.41887  -0.41348  -0.40366  -0.39824  -0.39563
 Alpha  occ. eigenvalues --   -0.38178  -0.37620  -0.36751  -0.35260  -0.34509
 Alpha  occ. eigenvalues --   -0.34073  -0.33578  -0.32608  -0.32203  -0.31737
 Alpha  occ. eigenvalues --   -0.30313  -0.30228  -0.29233  -0.28758  -0.27600
 Alpha  occ. eigenvalues --   -0.27577  -0.26628  -0.25702  -0.25082  -0.24241
 Alpha  occ. eigenvalues --   -0.24045  -0.22242  -0.21494  -0.20191  -0.17001
 Alpha  occ. eigenvalues --   -0.15296  -0.14143  -0.13417   0.03557
 Alpha virt. eigenvalues --    0.04743   0.05598   0.06500   0.06772   0.07084
 Alpha virt. eigenvalues --    0.08018   0.08304   0.08518   0.09564   0.09894
 Alpha virt. eigenvalues --    0.10161   0.10926   0.11246   0.12141   0.12807

  Beta  occ. eigenvalues --  -19.06200 -19.05191 -19.05189 -19.04105 -19.03691
  Beta  occ. eigenvalues --  -14.21221 -14.20917 -10.18152 -10.17972 -10.14705
  Beta  occ. eigenvalues --  -10.14503 -10.11362 -10.10834 -10.09714 -10.09333
  Beta  occ. eigenvalues --  -10.09034 -10.08648 -10.08539 -10.08210  -0.98773
  Beta  occ. eigenvalues --   -0.97524  -0.97171  -0.92046  -0.91019  -0.85172
  Beta  occ. eigenvalues --   -0.79184  -0.77140  -0.68856  -0.68143  -0.64356
  Beta  occ. eigenvalues --   -0.62334  -0.60122  -0.57276  -0.54704  -0.53711
  Beta  occ. eigenvalues --   -0.51856  -0.50613  -0.48168  -0.45740  -0.44330
  Beta  occ. eigenvalues --   -0.41858  -0.41321  -0.40337  -0.39783  -0.39529
  Beta  occ. eigenvalues --   -0.38153  -0.37594  -0.36724  -0.35216  -0.34487
  Beta  occ. eigenvalues --   -0.34062  -0.33558  -0.32585  -0.32178  -0.31708
  Beta  occ. eigenvalues --   -0.30286  -0.30195  -0.29211  -0.28718  -0.27549
  Beta  occ. eigenvalues --   -0.27513  -0.26608  -0.25680  -0.25060  -0.24220
  Beta  occ. eigenvalues --   -0.24023  -0.22201  -0.21470  -0.20144  -0.16983
  Beta  occ. eigenvalues --   -0.15284  -0.14130  -0.13400
  Beta virt. eigenvalues --    0.05606   0.06151   0.06588   0.06685   0.07054
  Beta virt. eigenvalues --    0.07493   0.08195   0.08313   0.08917   0.09724
  Beta virt. eigenvalues --    0.10140   0.10375   0.11120   0.11600   0.12240

 Mulliken charges and spin densities:
               1          2
     1  C   -0.516651  -0.211759
     2  C   -0.080509   0.363958
     3  C   -0.445798   0.403493
     4  C    0.295041  -0.507364
     5  C    1.222840  -1.511247
     6  C    0.112646   0.103159
     7  C   -0.614016   0.071830
     8  O   -0.247343   0.035577
     9  C   -1.206008   0.047723
    10  N    0.330291   0.028193
    11  C   -0.346743   0.195569
    12  C    0.798466  -1.365344
    13  O   -0.211078   0.000976
    14  O   -0.186115  -0.002934
    15  N    0.288853  -0.040071
    16  C   -0.023541  -0.011474
    17  C   -0.062378  -0.358798
    18  O   -0.227766  -0.011199
    19  O   -0.186776   0.001226
    20  H    0.177814  -0.019066
    21  H    0.184719  -0.011694
    22  H    0.094052   0.055222
    23  H    0.176049   0.048161
    24  H   -0.740850   0.903558
    25  H    0.129308  -0.005216
    26  H   -0.211491   0.484075
    27  H    0.116263   0.025154
    28  H    0.239660  -0.043714
    29  H   -0.750022   0.960514
    30  H    0.336910  -0.169370
    31  H    0.165247   0.046295
    32  H   -0.051624   0.332427
    33  H   -0.136967   0.403001
    34  H    0.241108  -0.022456
    35  H    0.069962   0.112293
    36  H    0.061287   0.099900
    37  H    0.037559   0.224897
    38  H    0.037199   0.223637
    39  H    0.130403   0.120870
 Sum of Mulliken charges =  -1.00000   1.00000

 Dipole moment (field-independent basis, Debye):
    X=             -1.1130    Y=             -3.1980    Z=              6.2450  Tot=              7.1039
 Quadrupole moment (field-independent basis, Debye-Ang):
   XX=           -206.2855   YY=           -174.2658   ZZ=           -146.1387
   XY=             19.3442   XZ=              5.8496   YZ=              3.7662

 Summary of Natural Population Analysis:

                                       Natural Population
                Natural  -----------------------------------------------
    Atom  No    Charge         Core      Valence    Rydberg      Total
 -----------------------------------------------------------------------
      C    1   -0.29470      0.99964     2.29054    0.00452     3.29470
      C    2   -0.02856      0.99947     2.02016    0.00893     3.02856
      C    3   -0.00706      0.99946     1.99730    0.01031     3.00706
      C    4   -0.12864      0.99947     2.11963    0.00953     3.12864
      C    5    0.16154      0.99938     1.82590    0.01318     2.83846
      C    6   -0.13728      0.99952     2.12747    0.01029     3.13728
      C    7   -0.08938      0.99953     2.08048    0.00937     3.08938
      O    8   -0.33876      0.99988     3.33227    0.00661     4.33876
      C    9    0.07819      0.99955     1.90722    0.01504     2.92181
      N   10   -0.35478      0.99974     2.84319    0.01186     3.85478
      C   11   -0.11522      0.99960     2.10104    0.01458     3.11522
      C   12    0.20293      0.99963     1.77946    0.01799     2.79707
      O   13   -0.37051      0.99990     3.36396    0.00665     4.37051
      O   14   -0.36628      0.99989     3.36020    0.00619     4.36628
      N   15   -0.33970      0.99973     2.82931    0.01066     3.83970
      C   16   -0.10551      0.99960     2.09335    0.01257     3.10551
      C   17    0.19449      0.99963     1.78737    0.01852     2.80551
      O   18   -0.37717      0.99989     3.37136    0.00592     4.37717
      O   19   -0.36814      0.99990     3.36221    0.00603     4.36814
      H   20    0.10095      0.00000     0.39795    0.00110     0.39905
      H   21    0.10836      0.00000     0.39046    0.00118     0.39164
      H   22    0.09995      0.00000     0.39930    0.00074     0.40005
      H   23    0.11127      0.00000     0.38702    0.00172     0.38873
      H   24    0.10330      0.00000     0.39489    0.00181     0.39670
      H   25    0.09744      0.00000     0.40172    0.00084     0.40256
      H   26    0.23831      0.00000     0.25307    0.00863     0.26169
      H   27    0.08642      0.00000     0.41140    0.00218     0.41358
      H   28    0.18785      0.00000     0.30904    0.00311     0.31215
      H   29    0.09728      0.00000     0.39955    0.00317     0.40272
      H   30    0.09768      0.00000     0.40102    0.00131     0.40232
      H   31    0.07682      0.00000     0.42138    0.00181     0.42318
      H   32    0.22983      0.00000     0.26574    0.00443     0.27017
      H   33    0.23177      0.00000     0.26240    0.00584     0.26823
      H   34    0.18302      0.00000     0.31440    0.00258     0.31698
      H   35    0.09192      0.00000     0.40681    0.00127     0.40808
      H   36    0.09732      0.00000     0.40151    0.00117     0.40268
      H   37    0.08456      0.00000     0.41283    0.00260     0.41544
      H   38    0.23461      0.00000     0.26242    0.00298     0.26539
      H   39    0.22587      0.00000     0.27114    0.00298     0.27413
 =======================================================================
   * Total *   -0.00000     18.99338    53.75644    0.25018    73.00000

 Normal termination of Gaussian 16 at Sun Dec 13 21:44:09 2020.
