 Gaussian 16, Revision A.03,

 -----------------------------------------------------------
 # opt freq B3LYP/6-31G(d) empiricaldispersion=gd3bj scf=xqc
 -----------------------------------------------------------

 ------------------------------
 CID_62457592_JID_5113_neutraal
 ------------------------------
 Symbolic Z-matrix:
 Charge =  0 Multiplicity = 1

 SCF Done:  E(RB3LYP) =  -642.881604014     A.U. after   12 cycles
 SCF Done:  E(RB3LYP) =  -642.883566898     A.U. after   10 cycles
 SCF Done:  E(RB3LYP) =  -642.876896015     A.U. after   12 cycles
 SCF Done:  E(RB3LYP) =  -642.882849233     A.U. after   11 cycles
 SCF Done:  E(RB3LYP) =  -642.884777103     A.U. after    8 cycles
 SCF Done:  E(RB3LYP) =  -642.884796420     A.U. after   10 cycles
 SCF Done:  E(RB3LYP) =  -642.885133062     A.U. after   10 cycles
 SCF Done:  E(RB3LYP) =  -642.885207847     A.U. after   10 cycles
 SCF Done:  E(RB3LYP) =  -642.885240124     A.U. after    9 cycles
 SCF Done:  E(RB3LYP) =  -642.885249004     A.U. after    9 cycles
 SCF Done:  E(RB3LYP) =  -642.885250044     A.U. after    7 cycles
 SCF Done:  E(RB3LYP) =  -642.885250920     A.U. after    7 cycles
 SCF Done:  E(RB3LYP) =  -642.885251143     A.U. after    7 cycles
 Optimization completed.
    -- Stationary point found.
 Normal termination of Gaussian 16 at Thu Dec 10 14:50:16 2020.

 --------------------------------------------------------------------
 #N Geom=AllCheck Guess=TCheck SCRF=Check GenChk RB3LYP/6-31G(d) Freq
 --------------------------------------------------------------------

 Structure from the checkpoint file:  "JID_5113.chk"
 ------------------------------
 CID_62457592_JID_5113_neutraal
 ------------------------------
 Charge =  0 Multiplicity = 1

 SCF Done:  E(RB3LYP) =  -642.885251143     A.U. after    1 cycles

  Exact polarizability: 165.407   2.786 156.404  -3.044   0.234 123.826
 Approx polarizability: 203.099  -2.321 201.286  -3.579   0.346 196.020

                      1                      2                      3
                      A                      A                      A
 Frequencies --     29.0600                45.0608                53.1780
 Red. masses --      3.1082                 3.5711                 3.3307
 Frc consts  --      0.0015                 0.0043                 0.0055
 IR Inten    --      0.1160                 0.0909                 0.0186

                      4                      5                      6
                      A                      A                      A
 Frequencies --     58.4646                73.2600                90.4411
 Red. masses --      2.7554                 2.6362                 2.7910
 Frc consts  --      0.0055                 0.0083                 0.0135
 IR Inten    --      0.1901                 0.0205                 0.1143

                      7                      8                      9
                      A                      A                      A
 Frequencies --    114.3485               124.6155               164.2136
 Red. masses --      2.7175                 3.0597                 2.2032
 Frc consts  --      0.0209                 0.0280                 0.0350
 IR Inten    --      0.0038                 1.5854                 0.2571

                     10                     11                     12
                      A                      A                      A
 Frequencies --    164.8393               194.3307               204.1482
 Red. masses --      2.1908                 1.8374                 2.1342
 Frc consts  --      0.0351                 0.0409                 0.0524
 IR Inten    --      0.6827                 0.8742                 3.6822

                     13                     14                     15
                      A                      A                      A
 Frequencies --    231.6287               256.5937               262.7046
 Red. masses --      1.5948                 1.5307                 1.4100
 Frc consts  --      0.0504                 0.0594                 0.0573
 IR Inten    --      0.4869                 0.2962                 0.3494

                     16                     17                     18
                      A                      A                      A
 Frequencies --    280.1698               293.8245               298.5860
 Red. masses --      1.9172                 1.0988                 1.9301
 Frc consts  --      0.0887                 0.0559                 0.1014
 IR Inten    --      0.5279                 0.1767                 1.8545

                     19                     20                     21
                      A                      A                      A
 Frequencies --    313.2986               354.1846               372.9297
 Red. masses --      1.7605                 2.4995                 2.3175
 Frc consts  --      0.1018                 0.1847                 0.1899
 IR Inten    --      0.0284                 2.0022                 1.7403

                     22                     23                     24
                      A                      A                      A
 Frequencies --    387.3879               400.0992               441.8163
 Red. masses --      2.2104                 2.0482                 2.5868
 Frc consts  --      0.1954                 0.1932                 0.2975
 IR Inten    --      1.6816                 0.1618                 4.9130

                     25                     26                     27
                      A                      A                      A
 Frequencies --    455.7591               458.3950               526.9837
 Red. masses --      2.3107                 2.2643                 2.8145
 Frc consts  --      0.2828                 0.2803                 0.4605
 IR Inten    --      2.3494                 2.5260                 6.1005

                     28                     29                     30
                      A                      A                      A
 Frequencies --    543.0529               632.6589               718.3598
 Red. masses --      2.5383                 2.9432                 1.4078
 Frc consts  --      0.4410                 0.6941                 0.4280
 IR Inten    --      0.3400                 4.2688                12.3412

                     31                     32                     33
                      A                      A                      A
 Frequencies --    742.7272               765.3933               771.7380
 Red. masses --      1.8300                 1.6921                 1.2384
 Frc consts  --      0.5948                 0.5840                 0.4346
 IR Inten    --     10.7884                22.1972                29.4362

                     34                     35                     36
                      A                      A                      A
 Frequencies --    808.3636               829.6507               838.5367
 Red. masses --      1.4817                 2.3544                 1.6128
 Frc consts  --      0.5704                 0.9548                 0.6681
 IR Inten    --     41.0740                 2.6403                 1.6649

                     37                     38                     39
                      A                      A                      A
 Frequencies --    876.3888               901.8633               915.3717
 Red. masses --      1.9308                 1.9161                 1.5286
 Frc consts  --      0.8737                 0.9182                 0.7547
 IR Inten    --      1.4124                 2.6925                 7.1714

                     40                     41                     42
                      A                      A                      A
 Frequencies --    928.8802               929.9593               943.7434
 Red. masses --      1.4253                 1.6885                 1.4405
 Frc consts  --      0.7246                 0.8604                 0.7559
 IR Inten    --      0.7406                 2.3753                 6.8045

                     43                     44                     45
                      A                      A                      A
 Frequencies --    968.6375               997.6560              1002.3754
 Red. masses --      1.7658                 1.6374                 1.7792
 Frc consts  --      0.9762                 0.9602                 1.0533
 IR Inten    --      9.2142                10.5662                10.4361

                     46                     47                     48
                      A                      A                      A
 Frequencies --   1028.2644              1058.9919              1069.6018
 Red. masses --      2.3075                 1.8842                 1.7643
 Frc consts  --      1.4375                 1.2450                 1.1892
 IR Inten    --      5.3094                 0.5744                 4.1259

                     49                     50                     51
                      A                      A                      A
 Frequencies --   1081.3226              1094.3687              1107.1587
 Red. masses --      1.3175                 2.0603                 2.0253
 Frc consts  --      0.9076                 1.4538                 1.4627
 IR Inten    --      1.6211                24.1827                 5.8714

                     52                     53                     54
                      A                      A                      A
 Frequencies --   1118.9099              1156.3843              1161.3966
 Red. masses --      2.3147                 2.0525                 1.9645
 Frc consts  --      1.7074                 1.6171                 1.5612
 IR Inten    --     31.2466                20.6622                10.9485

                     55                     56                     57
                      A                      A                      A
 Frequencies --   1163.4268              1176.3041              1181.2108
 Red. masses --      2.2481                 2.2526                 2.2302
 Frc consts  --      1.7929                 1.8365                 1.8334
 IR Inten    --     30.3745                66.0760                32.3079

                     58                     59                     60
                      A                      A                      A
 Frequencies --   1195.3200              1217.8723              1229.3712
 Red. masses --      3.1145                 2.0877                 1.3593
 Frc consts  --      2.6219                 1.8244                 1.2104
 IR Inten    --     35.0159                40.9665                15.3919

                     61                     62                     63
                      A                      A                      A
 Frequencies --   1242.8916              1275.3822              1293.1652
 Red. masses --      1.4730                 1.3240                 1.2902
 Frc consts  --      1.3407                 1.2688                 1.2712
 IR Inten    --      5.1252                18.4276                 0.2024

                     64                     65                     66
                      A                      A                      A
 Frequencies --   1317.5678              1329.1598              1344.6966
 Red. masses --      1.2224                 1.2477                 1.1409
 Frc consts  --      1.2502                 1.2987                 1.2154
 IR Inten    --      3.7554                 6.4849                 2.5230

                     67                     68                     69
                      A                      A                      A
 Frequencies --   1362.1502              1372.3359              1386.5896
 Red. masses --      1.2216                 1.3303                 1.4618
 Frc consts  --      1.3354                 1.4761                 1.6558
 IR Inten    --      5.1193                 8.1881                 6.6769

                     70                     71                     72
                      A                      A                      A
 Frequencies --   1392.3903              1399.6657              1406.7383
 Red. masses --      1.2848                 1.2737                 1.3702
 Frc consts  --      1.4677                 1.4701                 1.5976
 IR Inten    --      3.6943                 9.9898                 0.7518

                     73                     74                     75
                      A                      A                      A
 Frequencies --   1417.4194              1420.3790              1426.0180
 Red. masses --      1.3283                 1.3536                 1.4078
 Frc consts  --      1.5723                 1.6090                 1.6867
 IR Inten    --      3.5137                 1.9767                12.6815

                     76                     77                     78
                      A                      A                      A
 Frequencies --   1427.6017              1430.6349              1434.4576
 Red. masses --      1.3263                 1.2233                 1.2687
 Frc consts  --      1.5926                 1.4752                 1.5380
 IR Inten    --      4.6213                 4.8979                 2.4877

                     79                     80                     81
                      A                      A                      A
 Frequencies --   1439.3253              1443.7866              1446.5604
 Red. masses --      1.2080                 1.2712                 1.2361
 Frc consts  --      1.4744                 1.5612                 1.5240
 IR Inten    --     15.7221                 4.5272                16.0205

                     82                     83                     84
                      A                      A                      A
 Frequencies --   1505.9709              1507.3451              1514.8615
 Red. masses --      1.1107                 1.0724                 1.1103
 Frc consts  --      1.4842                 1.4356                 1.5012
 IR Inten    --     17.9842                 1.8998                 7.6993

                     85                     86                     87
                      A                      A                      A
 Frequencies --   1515.6320              1519.5589              1520.3448
 Red. masses --      1.0843                 1.0509                 1.0609
 Frc consts  --      1.4676                 1.4296                 1.4448
 IR Inten    --      6.4052                 2.4153                 2.0036

                     88                     89                     90
                      A                      A                      A
 Frequencies --   1522.6592              1527.7081              1530.1642
 Red. masses --      1.0608                 1.0757                 1.0750
 Frc consts  --      1.4491                 1.4792                 1.4829
 IR Inten    --      3.8518                 1.6719                18.3419

                     91                     92                     93
                      A                      A                      A
 Frequencies --   1532.3927              1534.8139              1536.6097
 Red. masses --      1.0667                 1.0829                 1.0599
 Frc consts  --      1.4759                 1.5030                 1.4744
 IR Inten    --      6.1580                 3.5430                 1.5727

                     94                     95                     96
                      A                      A                      A
 Frequencies --   1539.6027              1541.9217              1544.9853
 Red. masses --      1.0675                 1.0564                 1.0787
 Frc consts  --      1.4909                 1.4798                 1.5170
 IR Inten    --     11.6287                 4.3934                 1.6233

                     97                     98                     99
                      A                      A                      A
 Frequencies --   1556.1658              2981.7269              3027.9055
 Red. masses --      1.0820                 1.0683                 1.0623
 Frc consts  --      1.5437                 5.5961                 5.7384
 IR Inten    --      7.7919                48.3282                17.4490

                    100                    101                    102
                      A                      A                      A
 Frequencies --   3033.4007              3035.8948              3036.3395
 Red. masses --      1.0804                 1.0643                 1.0668
 Frc consts  --      5.8574                 5.7794                 5.7947
 IR Inten    --     18.6771                92.1979                22.9078

                    103                    104                    105
                      A                      A                      A
 Frequencies --   3040.1116              3043.5618              3044.1643
 Red. masses --      1.0587                 1.0488                 1.0493
 Frc consts  --      5.7651                 5.7242                 5.7290
 IR Inten    --     31.1471                22.4335                 1.6997

                    106                    107                    108
                      A                      A                      A
 Frequencies --   3045.7845              3054.7554              3058.0598
 Red. masses --      1.0463                 1.0739                 1.0673
 Frc consts  --      5.7187                 5.9043                 5.8807
 IR Inten    --     10.4151                15.4596                13.4469

                    109                    110                    111
                      A                      A                      A
 Frequencies --   3058.8955              3060.5111              3064.1878
 Red. masses --      1.0614                 1.0585                 1.0785
 Frc consts  --      5.8515                 5.8418                 5.9661
 IR Inten    --      0.6883                37.0323                34.8998

                    112                    113                    114
                      A                      A                      A
 Frequencies --   3066.6461              3068.2816              3068.8920
 Red. masses --      1.0661                 1.0960                 1.1036
 Frc consts  --      5.9073                 6.0793                 6.1236
 IR Inten    --     30.0275                26.1903                33.9150

                    115                    116                    117
                      A                      A                      A
 Frequencies --   3076.1742              3081.4706              3107.2895
 Red. masses --      1.0983                 1.1007                 1.1016
 Frc consts  --      6.1234                 6.1578                 6.2665
 IR Inten    --     86.0028                85.2190                72.5654

                    118                    119                    120
                      A                      A                      A
 Frequencies --   3110.0693              3113.2881              3116.0653
 Red. masses --      1.1015                 1.0992                 1.1020
 Frc consts  --      6.2775                 6.2770                 6.3045
 IR Inten    --     55.9426                27.8398                37.4394

                    121                    122                    123
                      A                      A                      A
 Frequencies --   3118.0343              3121.9096              3127.4592
 Red. masses --      1.1020                 1.1009                 1.0995
 Frc consts  --      6.3127                 6.3221                 6.3359
 IR Inten    --     46.2293                75.0814                 7.9239

                    124                    125                    126
                      A                      A                      A
 Frequencies --   3143.4190              3144.6298              3502.4442
 Red. masses --      1.1023                 1.1028                 1.0730
 Frc consts  --      6.4174                 6.4254                 7.7553
 IR Inten    --     13.1771                39.3836                 3.9389

 - Thermochemistry -
 -------------------
 Temperature   298.150 Kelvin.  Pressure   1.00000 Atm.
 Atom     1 has atomic number  6 and mass  12.00000

 Molecular mass:   215.22491 amu.
 Principal axes and moments of inertia in atomic units:
                           1         2         3
     Eigenvalues --  2865.110864763.681286859.76886
           X            0.99986   0.01506  -0.00683
           Y           -0.01506   0.99989   0.00024
           Z            0.00684  -0.00013   0.99998
 This molecule is an asymmetric top.
 Rotational symmetry number  1.
 Warning -- assumption of classical behavior for rotation
           may cause significant error
 Rotational temperatures (Kelvin)      0.03023     0.01818     0.01263
 Rotational constants (GHZ):           0.62990     0.37885     0.26309
 Zero-point vibrational energy    1087504.8 (Joules/Mol)
                                  259.91989 (Kcal/Mol)
 Warning -- explicit consideration of  28 degrees of freedom as
           vibrations may cause significant error
 Vibrational temperatures:     41.81    64.83    76.51    84.12   105.40
          (Kelvin)            130.12   164.52   179.29   236.27   237.17
                              279.60   293.72   333.26   369.18   377.97
                              403.10   422.75   429.60   450.77   509.59
                              536.56   557.36   575.65   635.68   655.74
                              659.53   758.21   781.33   910.26  1033.56
                             1068.62  1101.23  1110.36  1163.05  1193.68
                             1206.47  1260.93  1297.58  1317.02  1336.45
                             1338.00  1357.84  1393.65  1435.40  1442.19
                             1479.44  1523.65  1538.92  1555.78  1574.55
                             1592.95  1609.86  1663.78  1670.99  1673.91
                             1692.44  1699.50  1719.80  1752.25  1768.79
                             1788.24  1834.99  1860.58  1895.69  1912.36
                             1934.72  1959.83  1974.49  1994.99  2003.34
                             2013.81  2023.98  2039.35  2043.61  2051.72
                             2054.00  2058.36  2063.86  2070.87  2077.29
                             2081.28  2166.76  2168.73  2179.55  2180.66
                             2186.31  2187.44  2190.77  2198.03  2201.56
                             2204.77  2208.25  2210.84  2215.14  2218.48
                             2222.89  2238.98  4290.04  4356.48  4364.39
                             4367.98  4368.62  4374.04  4379.01  4379.87
                             4382.20  4395.11  4399.87  4401.07  4403.39
                             4408.68  4412.22  4414.57  4415.45  4425.93
                             4433.55  4470.70  4474.70  4479.33  4483.32
                             4486.16  4491.73  4499.72  4522.68  4524.42
                             5039.24

 Zero-point correction=                           0.414209 (Hartree/Particle)
 Thermal correction to Energy=                    0.433110
 Thermal correction to Enthalpy=                  0.434054
 Thermal correction to Gibbs Free Energy=         0.366884
 Sum of electronic and zero-point Energies=           -642.471042
 Sum of electronic and thermal Energies=              -642.452141
 Sum of electronic and thermal Enthalpies=            -642.451197
 Sum of electronic and thermal Free Energies=         -642.518367

                     E (Thermal)             CV                S
                      KCal/Mol        Cal/Mol-Kelvin    Cal/Mol-Kelvin
 Total                  271.781             70.703            141.372
 Electronic               0.000              0.000              0.000
 Translational            0.889              2.981             42.003
 Rotational               0.889              2.981             32.904
 Vibrational            270.003             64.741             66.465
 Vibration     1          0.593              1.984              5.893
 Vibration     2          0.595              1.979              5.023
 Vibration     3          0.596              1.976              4.696
 Vibration     4          0.596              1.974              4.508
 Vibration     5          0.599              1.967              4.064
 Vibration     6          0.602              1.956              3.651
 Vibration     7          0.607              1.938              3.194
 Vibration     8          0.610              1.928              3.028
 Vibration     9          0.623              1.886              2.501
 Vibration    10          0.623              1.886              2.494
 Vibration    11          0.635              1.848              2.186
 Vibration    12          0.640              1.834              2.095
 Vibration    13          0.653              1.793              1.866
 Vibration    14          0.666              1.752              1.685
 Vibration    15          0.670              1.741              1.644
 Vibration    16          0.680              1.710              1.533
 Vibration    17          0.689              1.685              1.452
 Vibration    18          0.692              1.676              1.425
 Vibration    19          0.701              1.648              1.345
 Vibration    20          0.730              1.567              1.148
 Vibration    21          0.744              1.528              1.068
 Vibration    22          0.756              1.497              1.010
 Vibration    23          0.766              1.470              0.962
 Vibration    24          0.802              1.379              0.821
 Vibration    25          0.814              1.348              0.779
 Vibration    26          0.816              1.342              0.771
 Vibration    27          0.882              1.190              0.594
 Vibration    28          0.898              1.155              0.559

 Optimization completed.
    -- Stationary point found.
 Normal termination of Gaussian 16 at Thu Dec 10 15:05:25 2020.

 ----------------------------------------------------------------------
 # B3LYP/6-311++G(d,p) empiricaldispersion=gd3bj scf=xqc pop=npa geom=c
 heck
 ----------------------------------------------------------------------

 --------------------------------------
 CID_62457592_JID_5113_Energie_neutraal
 --------------------------------------
 Structure from the checkpoint file:  "JID_5113.chk"
 Charge =  0 Multiplicity = 1

 SCF Done:  E(RB3LYP) =  -643.071060437     A.U. after   13 cycles
 Normal termination of Gaussian 16 at Thu Dec 10 15:12:45 2020.

 ----------------------------------------------------------------------
 # B3LYP/6-311++G(d,p) empiricaldispersion=gd3bj scf=xqc pop=npa geom=c
 heck
 ----------------------------------------------------------------------

 ------------------------------------
 CID_62457592_JID_5113_Energie_kation
 ------------------------------------
 Structure from the checkpoint file:  "JID_5113.chk"
 Charge =  1 Multiplicity = 2

 SCF Done:  E(UB3LYP) =  -642.777138190     A.U. after   20 cycles
 Normal termination of Gaussian 16 at Thu Dec 10 15:26:49 2020.
 Gaussian 16:  ES64L-G16RevA.03 25-Dec-2016

 ----------------------------------------------------------------------
 # B3LYP/6-311++G(d,p) empiricaldispersion=gd3bj scf=xqc pop=npa geom=c
 heck
 ----------------------------------------------------------------------

 -----------------------------------
 CID_62457592_JID_5113_Energie_anion
 -----------------------------------
 Structure from the checkpoint file:  "JID_5113.chk"
 Charge = -1 Multiplicity = 2

                         Standard orientation:
 ---------------------------------------------------------------------
 Center     Atomic      Atomic             Coordinates (Angstroms)
 Number     Number       Type             X           Y           Z
 ---------------------------------------------------------------------
      1          6           0        4.611151    0.608980    0.582767
      2          6           0        3.258512    0.954783   -0.046687
      3          6           0        2.722580   -0.122028   -1.002469
      4          6           0        2.495913   -1.503061   -0.366105
      5          6           0        1.545140   -1.508432    0.841998
      6          6           0        0.158189   -0.894434    0.586409
      7          6           0       -0.640038   -1.581220   -0.530860
      8          6           0       -0.965513   -3.047608   -0.223759
      9          8           0       -1.785341   -0.846909   -0.990246
     10          6           0       -2.803528   -0.309881   -0.133646
     11          6           0       -3.318414   -1.242041    0.961905
     12          6           0       -2.411512    1.068362    0.419050
     13          7           0       -1.990683    1.929912   -0.674751
     14          6           0       -1.404724    3.206387   -0.282234
     15          6           0       -0.031492    3.142493    0.405230
     16          1           0        4.544344   -0.274208    1.227821
     17          1           0        4.984615    1.436597    1.195935
     18          1           0        5.362204    0.398700   -0.188778
     19          1           0        2.525380    1.146248    0.747305
     20          1           0        3.349969    1.897551   -0.601974
     21          1           0        1.783647    0.234151   -1.447074
     22          1           0        3.426402   -0.236090   -1.838501
     23          1           0        2.118926   -2.185720   -1.138663
     24          1           0        3.458962   -1.922534   -0.048889
     25          1           0        1.433849   -2.539182    1.201182
     26          1           0        2.009485   -0.955447    1.668407
     27          1           0       -0.410524   -0.926784    1.522999
     28          1           0        0.272823    0.162078    0.325100
     29          1           0       -0.015561   -1.577003   -1.431700
     30          1           0       -1.419381   -3.179511    0.762650
     31          1           0       -1.653790   -3.437226   -0.979640
     32          1           0       -0.051711   -3.651299   -0.253487
     33          1           0       -3.621250   -0.134120   -0.842203
     34          1           0       -2.576012   -1.415495    1.746874
     35          1           0       -4.197802   -0.788517    1.433304
     36          1           0       -3.617121   -2.207692    0.545409
     37          1           0       -3.300492    1.510014    0.891729
     38          1           0       -1.661483    0.949566    1.218753
     39          1           0       -1.352173    1.402879   -1.267585
     40          1           0       -1.323527    3.827396   -1.183770
     41          1           0       -2.122960    3.713101    0.375982
     42          1           0        0.711700    2.682098   -0.257055
     43          1           0        0.326902    4.146821    0.661604
     44          1           0       -0.065492    2.555725    1.329903
 ---------------------------------------------------------------------

 SCF Done:  E(UB3LYP) =  -643.056957629     A.U. after   28 cycles

 The electronic state is 2-A.
 Alpha  occ. eigenvalues --  -19.02431 -14.19740 -10.12975 -10.12843 -10.09939
 Alpha  occ. eigenvalues --  -10.09375 -10.07149 -10.07099 -10.07038 -10.06990
 Alpha  occ. eigenvalues --  -10.06959 -10.06845 -10.06589 -10.06466 -10.06153
 Alpha  occ. eigenvalues --   -0.93273  -0.80921  -0.72425  -0.69864  -0.67760
 Alpha  occ. eigenvalues --   -0.64652  -0.64191  -0.60985  -0.57806  -0.57025
 Alpha  occ. eigenvalues --   -0.53868  -0.51195  -0.50417  -0.46696  -0.44890
 Alpha  occ. eigenvalues --   -0.40568  -0.39607  -0.38676  -0.37549  -0.36921
 Alpha  occ. eigenvalues --   -0.35773  -0.34797  -0.33842  -0.33521  -0.32690
 Alpha  occ. eigenvalues --   -0.31810  -0.31299  -0.30684  -0.30484  -0.30128
 Alpha  occ. eigenvalues --   -0.29296  -0.28330  -0.27954  -0.27606  -0.26650
 Alpha  occ. eigenvalues --   -0.26244  -0.25615  -0.24831  -0.24201  -0.23914
 Alpha  occ. eigenvalues --   -0.22787  -0.22071  -0.21574  -0.19583  -0.16676
 Alpha  occ. eigenvalues --   -0.12863   0.04172
 Alpha virt. eigenvalues --    0.05958   0.06318   0.06997   0.07509   0.07994
 Alpha virt. eigenvalues --    0.08538   0.09047   0.09266   0.09865   0.09910
 Alpha virt. eigenvalues --    0.10484   0.11132   0.11348   0.11880   0.12038

  Beta  occ. eigenvalues --  -19.02431 -14.19737 -10.12970 -10.12838 -10.09930
  Beta  occ. eigenvalues --  -10.09362 -10.07121 -10.07081 -10.07027 -10.06978
  Beta  occ. eigenvalues --  -10.06948 -10.06830 -10.06566 -10.06446 -10.06121
  Beta  occ. eigenvalues --   -0.93268  -0.80911  -0.72401  -0.69841  -0.67733
  Beta  occ. eigenvalues --   -0.64619  -0.64161  -0.60946  -0.57766  -0.56979
  Beta  occ. eigenvalues --   -0.53824  -0.51153  -0.50367  -0.46657  -0.44846
  Beta  occ. eigenvalues --   -0.40548  -0.39583  -0.38649  -0.37522  -0.36895
  Beta  occ. eigenvalues --   -0.35750  -0.34771  -0.33817  -0.33493  -0.32663
  Beta  occ. eigenvalues --   -0.31775  -0.31267  -0.30652  -0.30452  -0.30102
  Beta  occ. eigenvalues --   -0.29268  -0.28303  -0.27931  -0.27579  -0.26623
  Beta  occ. eigenvalues --   -0.26208  -0.25592  -0.24810  -0.24181  -0.23884
  Beta  occ. eigenvalues --   -0.22763  -0.22042  -0.21544  -0.19562  -0.16665
  Beta  occ. eigenvalues --   -0.12853
  Beta virt. eigenvalues --    0.06106   0.06717   0.06873   0.07382   0.08004
  Beta virt. eigenvalues --    0.08379   0.08898   0.09275   0.09528   0.10195
  Beta virt. eigenvalues --    0.10315   0.10689   0.11429   0.11652   0.12023

 Mulliken charges and spin densities:
               1          2
     1  C    1.093694  -1.790596
     2  C   -0.999068   0.840066
     3  C    0.179165  -0.282466
     4  C    0.233780  -0.615510
     5  C    0.576725  -1.140043
     6  C   -0.654648   0.637470
     7  C   -1.153280   0.897643
     8  C    0.338313  -1.024630
     9  O   -0.061884   0.000729
    10  C    0.162153   0.186407
    11  C    0.466878  -1.082849
    12  C   -0.639202  -0.045823
    13  N   -0.011592  -0.023183
    14  C   -0.141620  -0.231659
    15  C   -0.056100  -0.282565
    16  H   -0.045649   0.184515
    17  H   -0.301579   0.440880
    18  H   -0.168613   0.303722
    19  H    0.251711  -0.115787
    20  H   -0.217241   0.366390
    21  H    0.012431   0.152076
    22  H   -0.164764   0.339416
    23  H   -0.009189   0.148868
    24  H    0.024617   0.145007
    25  H   -0.024714   0.197748
    26  H   -0.356986   0.547610
    27  H   -0.053489   0.214843
    28  H    1.184573  -1.018447
    29  H    0.195069   0.005553
    30  H   -0.110161   0.280952
    31  H    0.016703   0.134134
    32  H   -0.042360   0.181301
    33  H    0.076096   0.108669
    34  H   -0.235886   0.420341
    35  H   -0.146936   0.291879
    36  H   -0.005327   0.164533
    37  H   -0.212207   0.395434
    38  H    0.088136   0.022269
    39  H    0.148586   0.099450
    40  H   -0.002116   0.159400
    41  H    0.033523   0.081225
    42  H    0.323907  -0.187591
    43  H   -0.456699   0.619635
    44  H   -0.134749   0.272983
 Sum of Mulliken charges =  -1.00000   1.00000

 Dipole moment (field-independent basis, Debye):
    X=             -2.6974    Y=             -1.0855    Z=             -2.4550  Tot=              3.8055
 Quadrupole moment (field-independent basis, Debye-Ang):
   XX=           -183.6110   YY=           -159.0441   ZZ=           -139.4276
   XY=             -6.2335   XZ=             -0.5006   YZ=              1.3064

 Summary of Natural Population Analysis:

                                       Natural Population
                Natural  -----------------------------------------------
    Atom  No    Charge         Core      Valence    Rydberg      Total
 -----------------------------------------------------------------------
      C    1   -0.28485      0.99967     2.28089    0.00430     3.28485
      C    2   -0.19452      0.99964     2.18614    0.00874     3.19452
      C    3   -0.19081      0.99962     2.18271    0.00847     3.19081
      C    4   -0.19280      0.99962     2.18479    0.00839     3.19280
      C    5   -0.19031      0.99962     2.18169    0.00900     3.19031
      C    6   -0.21076      0.99960     2.20156    0.00960     3.21076
      C    7    0.06698      0.99953     1.91931    0.01418     2.93302
      C    8   -0.30029      0.99964     2.29500    0.00565     3.30029
      O    9   -0.31371      0.99988     3.30496    0.00887     4.31371
      C   10    0.06497      0.99954     1.92033    0.01515     2.93503
      C   11   -0.30127      0.99964     2.29645    0.00518     3.30127
      C   12   -0.09953      0.99959     2.08908    0.01086     3.09953
      N   13   -0.34234      0.99974     2.83205    0.01055     3.84234
      C   14   -0.08597      0.99965     2.07538    0.01095     3.08597
      C   15   -0.29749      0.99966     2.29280    0.00502     3.29749
      H   16    0.09614      0.00000     0.40269    0.00117     0.40386
      H   17    0.09989      0.00000     0.39900    0.00111     0.40011
      H   18    0.09477      0.00000     0.40398    0.00125     0.40523
      H   19    0.09488      0.00000     0.40338    0.00173     0.40512
      H   20    0.09611      0.00000     0.40265    0.00124     0.40389
      H   21    0.09418      0.00000     0.40420    0.00162     0.40582
      H   22    0.09584      0.00000     0.40319    0.00098     0.40416
      H   23    0.09445      0.00000     0.40443    0.00112     0.40555
      H   24    0.09881      0.00000     0.40011    0.00108     0.40119
      H   25    0.09866      0.00000     0.40016    0.00117     0.40134
      H   26    0.09954      0.00000     0.39928    0.00118     0.40046
      H   27    0.09860      0.00000     0.39968    0.00171     0.40140
      H   28    0.10068      0.00000     0.39647    0.00284     0.39932
      H   29    0.08818      0.00000     0.41017    0.00165     0.41182
      H   30    0.09876      0.00000     0.40007    0.00117     0.40124
      H   31    0.10285      0.00000     0.39621    0.00094     0.39715
      H   32    0.10154      0.00000     0.39757    0.00089     0.39846
      H   33    0.09067      0.00000     0.40779    0.00153     0.40933
      H   34    0.09961      0.00000     0.39907    0.00132     0.40039
      H   35    0.10357      0.00000     0.39542    0.00101     0.39643
      H   36    0.10359      0.00000     0.39555    0.00086     0.39641
      H   37    0.09165      0.00000     0.40692    0.00143     0.40835
      H   38    0.08224      0.00000     0.41586    0.00190     0.41776
      H   39    0.17694      0.00000     0.31944    0.00361     0.32306
      H   40    0.08947      0.00000     0.40959    0.00093     0.41053
      H   41    0.08739      0.00000     0.41153    0.00109     0.41261
      H   42    0.09639      0.00000     0.40207    0.00154     0.40361
      H   43    0.09965      0.00000     0.39920    0.00115     0.40035
      H   44    0.09763      0.00000     0.40108    0.00129     0.40237
 =======================================================================
   * Total *    0.00000     14.99466    45.82991    0.17543    61.00000

 Normal termination of Gaussian 16 at Thu Dec 10 15:46:22 2020.
