 Gaussian 16, Revision A.03,

 -----------------------------------------------------------
 # opt freq B3LYP/6-31G(d) empiricaldispersion=gd3bj scf=xqc
 -----------------------------------------------------------

 --------------------------------
 CID_110799054_JID_10970_neutraal
 --------------------------------
 Symbolic Z-matrix:
 Charge =  0 Multiplicity = 1

 SCF Done:  E(RB3LYP) =  -1674.89535349     A.U. after   15 cycles
 SCF Done:  E(RB3LYP) =  -1674.90331541     A.U. after   12 cycles
 SCF Done:  E(RB3LYP) =  -1674.90469422     A.U. after   12 cycles
 SCF Done:  E(RB3LYP) =  -1674.90500945     A.U. after   12 cycles
 SCF Done:  E(RB3LYP) =  -1674.90575470     A.U. after   11 cycles
 SCF Done:  E(RB3LYP) =  -1674.90608047     A.U. after   12 cycles
 SCF Done:  E(RB3LYP) =  -1674.90635253     A.U. after   12 cycles
 SCF Done:  E(RB3LYP) =  -1674.90648319     A.U. after   12 cycles
 SCF Done:  E(RB3LYP) =  -1674.90667984     A.U. after   12 cycles
 SCF Done:  E(RB3LYP) =  -1674.90685451     A.U. after   12 cycles
 SCF Done:  E(RB3LYP) =  -1674.91368176     A.U. after    7 cycles
 SCF Done:  E(RB3LYP) =  -1674.91368179     A.U. after    7 cycles
 SCF Done:  E(RB3LYP) =  -1674.91368179     A.U. after    7 cycles
 SCF Done:  E(RB3LYP) =  -1674.91368179     A.U. after    6 cycles
 SCF Done:  E(RB3LYP) =  -1674.91368179     A.U. after    6 cycles
 SCF Done:  E(RB3LYP) =  -1674.91368179     A.U. after    5 cycles
 Optimization completed.
    -- Stationary point found.
 Normal termination of Gaussian 16 at Sun Dec 13 21:53:16 2020.

 --------------------------------------------------------------------
 #N Geom=AllCheck Guess=TCheck SCRF=Check GenChk RB3LYP/6-31G(d) Freq
 --------------------------------------------------------------------

 Structure from the checkpoint file:  "JID_10970.chk"
 --------------------------------
 CID_110799054_JID_10970_neutraal
 --------------------------------
 Charge =  0 Multiplicity = 1

 SCF Done:  E(RB3LYP) =  -1674.91368179     A.U. after    1 cycles

  Exact polarizability: 225.799  23.635 159.638   5.096   2.483 152.480
 Approx polarizability: 283.629  42.024 247.186  10.640   9.406 279.320

                      1                      2                      3
                      A                      A                      A
 Frequencies --     14.5434                25.9282                36.1479
 Red. masses --      4.9263                 5.1965                 4.3506
 Frc consts  --      0.0006                 0.0021                 0.0033
 IR Inten    --      0.2304                 0.3713                 0.4239

                      4                      5                      6
                      A                      A                      A
 Frequencies --     50.7363                88.3955                89.9060
 Red. masses --      4.8017                 3.7521                 1.1736
 Frc consts  --      0.0073                 0.0173                 0.0056
 IR Inten    --      0.4185                 2.0747                 0.6137

                      7                      8                      9
                      A                      A                      A
 Frequencies --     91.2814               101.6286               115.5658
 Red. masses --      3.5399                 6.3600                 1.5942
 Frc consts  --      0.0174                 0.0387                 0.0125
 IR Inten    --      1.0286                 2.1314                 3.2289

                     10                     11                     12
                      A                      A                      A
 Frequencies --    131.5857               148.5368               157.8015
 Red. masses --      5.8079                 2.5849                 2.8669
 Frc consts  --      0.0592                 0.0336                 0.0421
 IR Inten    --      0.6389                 2.8412                 2.5470

                     13                     14                     15
                      A                      A                      A
 Frequencies --    187.9622               235.4484               252.7510
 Red. masses --      3.3666                 3.8111                 5.7662
 Frc consts  --      0.0701                 0.1245                 0.2170
 IR Inten    --      0.5088                 3.4856                 3.2912

                     16                     17                     18
                      A                      A                      A
 Frequencies --    271.8850               287.9100               298.1949
 Red. masses --      4.2598                 3.1335                 4.8200
 Frc consts  --      0.1855                 0.1530                 0.2525
 IR Inten    --      1.9485                 2.1539                 1.4361

                     19                     20                     21
                      A                      A                      A
 Frequencies --    321.7404               332.0306               354.4311
 Red. masses --      4.9911                 4.1391                 3.0652
 Frc consts  --      0.3044                 0.2689                 0.2269
 IR Inten    --      6.2550                 1.7189                 7.3913

                     22                     23                     24
                      A                      A                      A
 Frequencies --    373.0523               381.8812               415.5157
 Red. masses --      4.3666                 4.2539                 2.5687
 Frc consts  --      0.3580                 0.3655                 0.2613
 IR Inten    --      8.7693                10.1129                 1.0126

                     25                     26                     27
                      A                      A                      A
 Frequencies --    462.3634               472.4015               513.3664
 Red. masses --      5.7120                 3.9785                 4.0337
 Frc consts  --      0.7195                 0.5231                 0.6263
 IR Inten    --      4.4701                 4.6136                 7.8610

                     28                     29                     30
                      A                      A                      A
 Frequencies --    522.8660               549.7714               563.8179
 Red. masses --      4.9004                 3.9422                 5.4678
 Frc consts  --      0.7893                 0.7020                 1.0241
 IR Inten    --     32.3592                27.9096                45.7040

                     31                     32                     33
                      A                      A                      A
 Frequencies --    574.6687               615.8522               627.2436
 Red. masses --      3.1750                 4.7159                 4.7357
 Frc consts  --      0.6178                 1.0538                 1.0978
 IR Inten    --      2.4182                14.8690                32.7233

                     34                     35                     36
                      A                      A                      A
 Frequencies --    638.6810               680.2744               711.3264
 Red. masses --      2.8321                 6.4574                 3.7141
 Frc consts  --      0.6807                 1.7607                 1.1072
 IR Inten    --     32.7531                 1.4394               228.0158

                     37                     38                     39
                      A                      A                      A
 Frequencies --    754.2751               768.2177               770.4569
 Red. masses --      7.1162                 6.3885                 1.4816
 Frc consts  --      2.3854                 2.2214                 0.5182
 IR Inten    --      2.2540                19.9722                 2.8368

                     40                     41                     42
                      A                      A                      A
 Frequencies --    807.6500               814.6143               861.9431
 Red. masses --      4.2574                 1.2229                 3.2514
 Frc consts  --      1.6362                 0.4781                 1.4232
 IR Inten    --      4.3672                22.1290                43.3550

                     43                     44                     45
                      A                      A                      A
 Frequencies --    899.9689               905.7647               938.9264
 Red. masses --      1.3957                 3.0265                 2.3141
 Frc consts  --      0.6660                 1.4629                 1.2020
 IR Inten    --      0.0382                66.3452                74.5973

                     46                     47                     48
                      A                      A                      A
 Frequencies --    970.4179               985.5502               989.5421
 Red. masses --      2.7023                 2.0021                 1.8999
 Frc consts  --      1.4993                 1.1458                 1.0961
 IR Inten    --     27.4760                 8.2432                63.5176

                     49                     50                     51
                      A                      A                      A
 Frequencies --   1026.0172              1039.9771              1070.9635
 Red. masses --      3.0007                 2.5150                 1.4106
 Frc consts  --      1.8612                 1.6026                 0.9533
 IR Inten    --      8.4405                42.9001                 1.4446

                     52                     53                     54
                      A                      A                      A
 Frequencies --   1073.3727              1090.8384              1093.2939
 Red. masses --      2.5943                 2.9690                 2.2864
 Frc consts  --      1.7611                 2.0815                 1.6102
 IR Inten    --     37.3267                10.4654                48.0758

                     55                     56                     57
                      A                      A                      A
 Frequencies --   1125.6843              1135.6749              1163.5067
 Red. masses --      3.4111                 2.4682                 2.4235
 Frc consts  --      2.5467                 1.8756                 1.9330
 IR Inten    --     72.1000                70.7281               114.2305

                     58                     59                     60
                      A                      A                      A
 Frequencies --   1188.5130              1189.9374              1195.8966
 Red. masses --      4.0282                 1.2662                 3.7710
 Frc consts  --      3.3525                 1.0563                 3.1775
 IR Inten    --      9.2949                 0.7747                29.0644

                     61                     62                     63
                      A                      A                      A
 Frequencies --   1219.7443              1229.2955              1257.0154
 Red. masses --      1.6761                 2.1629                 1.4133
 Frc consts  --      1.4693                 1.9258                 1.3157
 IR Inten    --     54.6537                16.9958                26.9573

                     64                     65                     66
                      A                      A                      A
 Frequencies --   1278.0552              1293.4449              1309.3472
 Red. masses --      1.6762                 1.5001                 3.3673
 Frc consts  --      1.6132                 1.4787                 3.4013
 IR Inten    --    111.0129                92.6671               141.3603

                     67                     68                     69
                      A                      A                      A
 Frequencies --   1315.4870              1344.3599              1364.7775
 Red. masses --      1.8154                 1.4139                 1.3279
 Frc consts  --      1.8510                 1.5056                 1.4573
 IR Inten    --     79.7620                28.5501                56.4451

                     70                     71                     72
                      A                      A                      A
 Frequencies --   1371.3792              1391.1918              1396.0314
 Red. masses --      2.9862                 1.3126                 1.4279
 Frc consts  --      3.3089                 1.4968                 1.6396
 IR Inten    --      4.6811                10.3296                40.6222

                     73                     74                     75
                      A                      A                      A
 Frequencies --   1412.4041              1421.2409              1433.1898
 Red. masses --      1.2676                 1.3297                 1.4431
 Frc consts  --      1.4898                 1.5825                 1.7464
 IR Inten    --      5.8651                24.1446                69.2915

                     76                     77                     78
                      A                      A                      A
 Frequencies --   1444.4471              1459.6707              1497.7190
 Red. masses --      1.2357                 1.4658                 1.3218
 Frc consts  --      1.5190                 1.8401                 1.7469
 IR Inten    --      1.5360                92.6486                56.8767

                     79                     80                     81
                      A                      A                      A
 Frequencies --   1499.5470              1504.8796              1507.9813
 Red. masses --      3.4665                 1.0812                 1.0425
 Frc consts  --      4.5926                 1.4427                 1.3968
 IR Inten    --     37.7123                 3.2680                 7.9197

                     82                     83                     84
                      A                      A                      A
 Frequencies --   1508.9509              1511.5321              1517.4577
 Red. masses --      1.0813                 1.0506                 1.0882
 Frc consts  --      1.4506                 1.4142                 1.4764
 IR Inten    --      8.4366                 5.4505                14.3667

                     85                     86                     87
                      A                      A                      A
 Frequencies --   1522.3327              1522.8962              1529.6716
 Red. masses --      1.1820                 1.1018                 1.0506
 Frc consts  --      1.6139                 1.5055                 1.4484
 IR Inten    --     13.2193                17.8551                15.1102

                     88                     89                     90
                      A                      A                      A
 Frequencies --   1545.6933              1602.5169              1800.9653
 Red. masses --      1.2880                 4.8068                10.4383
 Frc consts  --      1.8131                 7.2730                19.9476
 IR Inten    --     67.4416                 2.5230               367.0143

                     91                     92                     93
                      A                      A                      A
 Frequencies --   3051.9021              3067.1366              3072.5910
 Red. masses --      1.0362                 1.0602                 1.0592
 Frc consts  --      5.6866                 5.8764                 5.8918
 IR Inten    --     28.0511                15.4660                15.1758

                     94                     95                     96
                      A                      A                      A
 Frequencies --   3073.6322              3082.3561              3100.5878
 Red. masses --      1.0297                 1.0660                 1.0624
 Frc consts  --      5.7313                 5.9672                 6.0175
 IR Inten    --     43.2321                18.5263                12.8285

                     97                     98                     99
                      A                      A                      A
 Frequencies --   3104.6421              3106.8153              3116.2723
 Red. masses --      1.0726                 1.1018                 1.1007
 Frc consts  --      6.0914                 6.2660                 6.2979
 IR Inten    --      7.1748                10.9962                11.8234

                    100                    101                    102
                      A                      A                      A
 Frequencies --   3117.5449              3135.9621              3140.8003
 Red. masses --      1.0906                 1.1015                 1.1034
 Frc consts  --      6.2449                 6.3821                 6.4128
 IR Inten    --     31.7542                10.0858                13.2146

                    103                    104                    105
                      A                      A                      A
 Frequencies --   3147.6575              3152.7750              3161.4890
 Red. masses --      1.1076                 1.1075                 1.1077
 Frc consts  --      6.4653                 6.4858                 6.5229
 IR Inten    --     22.7053                 8.8793                10.3801

                    106                    107                    108
                      A                      A                      A
 Frequencies --   3174.7532              3219.3457              3243.4721
 Red. masses --      1.1072                 1.0912                 1.0960
 Frc consts  --      6.5750                 6.6634                 6.7932
 IR Inten    --     18.9212                 9.0381                 0.5361

 - Thermochemistry -
 -------------------
 Temperature   298.150 Kelvin.  Pressure   1.00000 Atm.
 Atom     1 has atomic number  6 and mass  12.00000

 Molecular mass:   318.07080 amu.
 Principal axes and moments of inertia in atomic units:
                           1         2         3
     Eigenvalues --  2894.66902********************
           X            0.99997   0.00745  -0.00009
           Y           -0.00745   0.99997  -0.00368
           Z            0.00006   0.00368   0.99999
 This molecule is an asymmetric top.
 Rotational symmetry number  1.
 Warning -- assumption of classical behavior for rotation
           may cause significant error
 Rotational temperatures (Kelvin)      0.02992     0.00752     0.00680
 Rotational constants (GHZ):           0.62347     0.15663     0.14179
 Zero-point vibrational energy     806531.0 (Joules/Mol)
                                  192.76554 (Kcal/Mol)
 Warning -- explicit consideration of  32 degrees of freedom as
           vibrations may cause significant error
 Vibrational temperatures:     20.92    37.30    52.01    73.00   127.18
          (Kelvin)            129.35   131.33   146.22   166.27   189.32
                              213.71   227.04   270.44   338.76   363.65
                              391.18   414.24   429.04   462.91   477.72
                              509.95   536.74   549.44   597.83   665.24
                              679.68   738.62   752.29   791.00   811.21
                              826.82   886.07   902.46   918.92   978.76
                             1023.44  1085.23  1105.29  1108.52  1162.03
                             1172.05  1240.14  1294.85  1303.19  1350.91
                             1396.21  1417.99  1423.73  1476.21  1496.30
                             1540.88  1544.34  1569.47  1573.01  1619.61
                             1633.98  1674.03  1710.01  1712.05  1720.63
                             1754.94  1768.68  1808.56  1838.84  1860.98
                             1883.86  1892.69  1934.23  1963.61  1973.11
                             2001.61  2008.58  2032.13  2044.85  2062.04
                             2078.24  2100.14  2154.88  2157.51  2165.19
                             2169.65  2171.04  2174.76  2183.28  2190.30
                             2191.11  2200.86  2223.91  2305.66  2591.19
                             4391.01  4412.93  4420.77  4422.27  4434.82
                             4461.05  4466.89  4470.01  4483.62  4485.45
                             4511.95  4518.91  4528.78  4536.14  4548.68
                             4567.76  4631.92  4666.63

 Zero-point correction=                           0.307191 (Hartree/Particle)
 Thermal correction to Energy=                    0.327535
 Thermal correction to Enthalpy=                  0.328480
 Thermal correction to Gibbs Free Energy=         0.255635
 Sum of electronic and zero-point Energies=          -1674.606490
 Sum of electronic and thermal Energies=             -1674.586146
 Sum of electronic and thermal Enthalpies=           -1674.585202
 Sum of electronic and thermal Free Energies=        -1674.658047

                     E (Thermal)             CV                S
                      KCal/Mol        Cal/Mol-Kelvin    Cal/Mol-Kelvin
 Total                  205.532             75.030            153.314
 Electronic               0.000              0.000              0.000
 Translational            0.889              2.981             43.167
 Rotational               0.889              2.981             34.406
 Vibrational            203.754             69.068             75.741
 Vibration     1          0.593              1.986              7.267
 Vibration     2          0.593              1.985              6.119
 Vibration     3          0.594              1.982              5.460
 Vibration     4          0.595              1.977              4.788
 Vibration     5          0.601              1.957              3.695
 Vibration     6          0.602              1.956              3.662
 Vibration     7          0.602              1.955              3.632
 Vibration     8          0.604              1.948              3.423
 Vibration     9          0.608              1.936              3.173
 Vibration    10          0.612              1.922              2.923
 Vibration    11          0.618              1.904              2.691
 Vibration    12          0.621              1.894              2.576
 Vibration    13          0.633              1.856              2.248
 Vibration    14          0.655              1.787              1.837
 Vibration    15          0.664              1.758              1.711
 Vibration    16          0.675              1.725              1.584
 Vibration    17          0.685              1.696              1.486
 Vibration    18          0.691              1.677              1.427
 Vibration    19          0.707              1.632              1.301
 Vibration    20          0.714              1.612              1.250
 Vibration    21          0.730              1.566              1.146
 Vibration    22          0.744              1.527              1.067
 Vibration    23          0.751              1.509              1.032
 Vibration    24          0.779              1.437              0.907
 Vibration    25          0.820              1.334              0.759
 Vibration    26          0.829              1.311              0.731
 Vibration    27          0.868              1.220              0.626
 Vibration    28          0.878              1.199              0.603
 Vibration    29          0.905              1.140              0.545
 Vibration    30          0.920              1.110              0.516
 Vibration    31          0.931              1.086              0.495
 Vibration    32          0.975              0.998              0.423

                           ! Non-Optimized Parameters !
 Normal termination of Gaussian 16 at Sun Dec 13 22:15:11 2020.

 ----------------------------------------------------------------------
 # B3LYP/6-311++G(d,p) empiricaldispersion=gd3bj scf=xqc pop=npa geom=c
 heck
 ----------------------------------------------------------------------

 ----------------------------------------
 CID_110799054_JID_10970_Energie_neutraal
 ----------------------------------------
 Structure from the checkpoint file:  "JID_10970.chk"
 Charge =  0 Multiplicity = 1

 SCF Done:  E(RB3LYP) =  -1675.21443174     A.U. after   17 cycles
 Normal termination of Gaussian 16 at Sun Dec 13 22:26:28 2020.

 ----------------------------------------------------------------------
 # B3LYP/6-311++G(d,p) empiricaldispersion=gd3bj scf=xqc pop=npa geom=c
 heck
 ----------------------------------------------------------------------

 --------------------------------------
 CID_110799054_JID_10970_Energie_kation
 --------------------------------------
 Structure from the checkpoint file:  "JID_10970.chk"
 Charge =  1 Multiplicity = 2

 SCF Done:  E(UB3LYP) =  -1674.91657767     A.U. after   29 cycles
 Normal termination of Gaussian 16 at Sun Dec 13 22:53:54 2020.
 Gaussian 16:  ES64L-G16RevA.03 25-Dec-2016

 ----------------------------------------------------------------------
 # B3LYP/6-311++G(d,p) empiricaldispersion=gd3bj scf=xqc pop=npa geom=c
 heck
 ----------------------------------------------------------------------

 -------------------------------------
 CID_110799054_JID_10970_Energie_anion
 -------------------------------------
 Structure from the checkpoint file:  "JID_10970.chk"
 Charge = -1 Multiplicity = 2

                         Standard orientation:
 ---------------------------------------------------------------------
 Center     Atomic      Atomic             Coordinates (Angstroms)
 Number     Number       Type             X           Y           Z
 ---------------------------------------------------------------------
      1          6           0        5.600189    1.900751    0.266644
      2          6           0        4.428273    1.071997   -0.163949
      3          6           0        4.083836    0.694754   -1.440244
      4          6           0        2.905734   -0.099417   -1.498544
      5          6           0        2.367956   -0.314053   -0.256875
      6         16           0        3.295533    0.447238    1.004836
      7         16           0        0.938973   -1.277849    0.127745
      8          8           0        1.017980   -2.585803   -0.526632
      9          8           0        0.792533   -1.189494    1.590811
     10          7           0       -0.266196   -0.439144   -0.672983
     11          6           0       -1.348237   -1.233837   -1.289720
     12          6           0       -2.245317   -2.044549   -0.340473
     13          6           0       -2.589352   -1.320892    0.974640
     14          7           0       -2.723940    0.131526    0.838202
     15          6           0       -1.524009    0.938415    1.040683
     16          6           0       -0.593726    0.905462   -0.178378
     17          6           0       -3.824802    0.597959    0.180538
     18          8           0       -4.773660   -0.088230   -0.164586
     19          8           0       -3.746660    1.941223   -0.048275
     20          6           0       -4.899969    2.495441   -0.691213
     21          1           0        5.284682    2.809266    0.792574
     22          1           0        6.264789    1.344619    0.937790
     23          1           0        6.180872    2.202105   -0.610031
     24          1           0        4.663673    0.979398   -2.311737
     25          1           0        2.469194   -0.496999   -2.407064
     26          1           0       -0.897383   -1.900973   -2.027114
     27          1           0       -1.949268   -0.498996   -1.833967
     28          1           0       -3.166352   -2.278622   -0.884256
     29          1           0       -1.755513   -2.992719   -0.095208
     30          1           0       -3.522236   -1.718883    1.379673
     31          1           0       -1.798336   -1.488389    1.708147
     32          1           0       -1.000000    0.541309    1.912423
     33          1           0       -1.813774    1.969759    1.248358
     34          1           0        0.341480    1.428962    0.047229
     35          1           0       -1.067652    1.432656   -1.013210
     36          1           0       -5.071545    2.017279   -1.659146
     37          1           0       -5.790425    2.363915   -0.070869
     38          1           0       -4.678344    3.555657   -0.820619
 ---------------------------------------------------------------------

 SCF Done:  E(UB3LYP) =  -1675.21952261     A.U. after   31 cycles

 The electronic state is 2-A.
 Alpha  occ. eigenvalues --  -88.94311 -88.74333 -19.07781 -19.00700 -18.99653
 Alpha  occ. eigenvalues --  -18.99553 -14.25210 -14.23372 -10.22660 -10.13920
 Alpha  occ. eigenvalues --  -10.11094 -10.11081 -10.11030 -10.11006 -10.07473
 Alpha  occ. eigenvalues --  -10.07245 -10.07152 -10.06930 -10.05030 -10.04840
 Alpha  occ. eigenvalues --   -8.00363  -7.82946  -5.96666  -5.96628  -5.96458
 Alpha  occ. eigenvalues --   -5.79258  -5.78883  -5.78535  -1.02158  -0.99982
 Alpha  occ. eigenvalues --   -0.92808  -0.88892  -0.86188  -0.82538  -0.75786
 Alpha  occ. eigenvalues --   -0.70012  -0.66356  -0.65623  -0.63404  -0.61217
 Alpha  occ. eigenvalues --   -0.60309  -0.58369  -0.55856  -0.53559  -0.48970
 Alpha  occ. eigenvalues --   -0.46894  -0.44784  -0.42629  -0.41978  -0.41482
 Alpha  occ. eigenvalues --   -0.40372  -0.39457  -0.39352  -0.37860  -0.37132
 Alpha  occ. eigenvalues --   -0.36501  -0.34735  -0.34444  -0.33192  -0.33160
 Alpha  occ. eigenvalues --   -0.32882  -0.32255  -0.31438  -0.30404  -0.29982
 Alpha  occ. eigenvalues --   -0.29175  -0.27951  -0.27331  -0.26843  -0.26426
 Alpha  occ. eigenvalues --   -0.25980  -0.25622  -0.24696  -0.22889  -0.22044
 Alpha  occ. eigenvalues --   -0.21915  -0.20724  -0.19626  -0.19479  -0.18856
 Alpha  occ. eigenvalues --   -0.16611  -0.14311  -0.13419  -0.11569   0.03938
 Alpha virt. eigenvalues --    0.05447   0.07172   0.08040   0.08398   0.08540
 Alpha virt. eigenvalues --    0.09265   0.09711   0.10387   0.10645   0.10821
 Alpha virt. eigenvalues --    0.11072   0.11531   0.12127   0.12780   0.13067

  Beta  occ. eigenvalues --  -88.94298 -88.74284 -19.07777 -19.00697 -18.99610
  Beta  occ. eigenvalues --  -18.99529 -14.25209 -14.23342 -10.22660 -10.13894
  Beta  occ. eigenvalues --  -10.11094 -10.11077 -10.11006 -10.11002 -10.07471
  Beta  occ. eigenvalues --  -10.07274 -10.06885 -10.06526 -10.05117 -10.04658
  Beta  occ. eigenvalues --   -8.00349  -7.82903  -5.96644  -5.96588  -5.96457
  Beta  occ. eigenvalues --   -5.79243  -5.78868  -5.78362  -1.02152  -0.99866
  Beta  occ. eigenvalues --   -0.92803  -0.88812  -0.86176  -0.82476  -0.75393
  Beta  occ. eigenvalues --   -0.69994  -0.66196  -0.65339  -0.63300  -0.60963
  Beta  occ. eigenvalues --   -0.60224  -0.58217  -0.55761  -0.53459  -0.48746
  Beta  occ. eigenvalues --   -0.46844  -0.44751  -0.42534  -0.41645  -0.41372
  Beta  occ. eigenvalues --   -0.40269  -0.39348  -0.39267  -0.37807  -0.37083
  Beta  occ. eigenvalues --   -0.36471  -0.34683  -0.34362  -0.33149  -0.33056
  Beta  occ. eigenvalues --   -0.32828  -0.31827  -0.31410  -0.30308  -0.29956
  Beta  occ. eigenvalues --   -0.29133  -0.27927  -0.27279  -0.26668  -0.26406
  Beta  occ. eigenvalues --   -0.25818  -0.25478  -0.23944  -0.22788  -0.21906
  Beta  occ. eigenvalues --   -0.21737  -0.20613  -0.19548  -0.19392  -0.18736
  Beta  occ. eigenvalues --   -0.16558  -0.14138  -0.12528  -0.09889
  Beta virt. eigenvalues --    0.05908   0.07090   0.08034   0.08432   0.08477
  Beta virt. eigenvalues --    0.09059   0.09280   0.09901   0.10381   0.10615
  Beta virt. eigenvalues --    0.11031   0.11051   0.11632   0.12133   0.12760

 Mulliken charges and spin densities:
               1          2
     1  C   -0.534016  -0.138689
     2  C   -0.021420   0.207318
     3  C   -0.191434   0.135978
     4  C    0.059718   0.348748
     5  C   -0.556671   0.072177
     6  S   -0.270893   0.021786
     7  S    0.625120  -0.264830
     8  O   -0.095967  -0.008926
     9  O   -0.182622   0.004807
    10  N   -0.071080   0.085998
    11  C   -0.159614  -0.111209
    12  C   -0.182765   0.008161
    13  C   -0.195801  -0.013002
    14  N   -0.037717   0.003880
    15  C   -0.624239  -0.132035
    16  C   -0.092260  -0.127627
    17  C   -0.104677   0.021637
    18  O   -0.310845   0.011708
    19  O   -0.143288   0.042268
    20  C    0.417395  -0.637434
    21  H    0.038507   0.116549
    22  H    0.134105   0.016270
    23  H    0.127908   0.003755
    24  H    0.109251   0.018058
    25  H    0.135031   0.001780
    26  H    0.237517   0.007588
    27  H    0.022211   0.115317
    28  H    0.184646   0.008169
    29  H    0.162895   0.004268
    30  H    0.186171   0.018378
    31  H    0.212873  -0.011847
    32  H    0.189522   0.032587
    33  H    0.110470   0.112535
    34  H   -0.000929   0.145796
    35  H    0.087469   0.137684
    36  H   -0.034200   0.203306
    37  H   -0.006539   0.174382
    38  H   -0.223830   0.364712
 Sum of Mulliken charges =  -1.00000   1.00000

 Dipole moment (field-independent basis, Debye):
    X=             -1.6976    Y=              0.4551    Z=             -0.0751  Tot=              1.7592
 Quadrupole moment (field-independent basis, Debye-Ang):
   XX=           -208.6428   YY=           -168.2690   ZZ=           -151.7443
   XY=              9.3323   XZ=             -6.4603   YZ=              2.3084

 Summary of Natural Population Analysis:

                                       Natural Population
                Natural  -----------------------------------------------
    Atom  No    Charge         Core      Valence    Rydberg      Total
 -----------------------------------------------------------------------
      C    1   -0.30006      0.99962     2.29493    0.00551     3.30006
      C    2   -0.02918      0.99952     2.01752    0.01214     3.02918
      C    3   -0.16067      0.99947     2.15050    0.01069     3.16067
      C    4   -0.07558      0.99946     2.06443    0.01169     3.07558
      C    5   -0.21977      0.99938     2.20468    0.01571     3.21977
      S    6    0.23452      4.99934     2.74475    0.02139     7.76548
      S    7    1.12965      4.99899     1.77040    0.10095     6.87035
      O    8   -0.46595      0.99991     3.46064    0.00541     4.46595
      O    9   -0.47747      0.99991     3.47215    0.00542     4.47747
      N   10   -0.37459      0.99974     2.86078    0.01407     3.87459
      C   11   -0.08795      0.99961     2.07500    0.01334     3.08795
      C   12   -0.20927      0.99962     2.20237    0.00728     3.20927
      C   13   -0.08906      0.99962     2.07964    0.00980     3.08906
      N   14   -0.26165      0.99964     2.75205    0.00996     3.76165
      C   15   -0.09587      0.99960     2.08552    0.01075     3.09587
      C   16   -0.09564      0.99959     2.08352    0.01253     3.09564
      C   17    0.46269      0.99965     1.51168    0.02598     2.53731
      O   18   -0.33712      0.99987     3.33239    0.00485     4.33712
      O   19   -0.28808      0.99987     3.28023    0.00798     4.28808
      C   20   -0.10187      0.99960     2.09291    0.00936     3.10187
      H   21    0.10453      0.00000     0.39416    0.00131     0.39547
      H   22    0.10351      0.00000     0.39568    0.00082     0.39649
      H   23    0.10082      0.00000     0.39845    0.00073     0.39918
      H   24    0.09836      0.00000     0.40070    0.00094     0.40164
      H   25    0.10506      0.00000     0.39387    0.00108     0.39494
      H   26    0.10913      0.00000     0.38987    0.00100     0.39087
      H   27    0.09734      0.00000     0.40143    0.00123     0.40266
      H   28    0.10356      0.00000     0.39525    0.00119     0.39644
      H   29    0.10620      0.00000     0.39246    0.00134     0.39380
      H   30    0.10439      0.00000     0.39474    0.00088     0.39561
      H   31    0.10796      0.00000     0.39074    0.00130     0.39204
      H   32    0.10932      0.00000     0.38955    0.00113     0.39068
      H   33    0.10766      0.00000     0.39109    0.00126     0.39234
      H   34    0.11402      0.00000     0.38482    0.00116     0.38598
      H   35    0.09871      0.00000     0.40002    0.00127     0.40129
      H   36    0.09159      0.00000     0.40730    0.00110     0.40841
      H   37    0.08928      0.00000     0.40977    0.00095     0.41072
      H   38    0.09148      0.00000     0.40737    0.00115     0.40852
 =======================================================================
   * Total *    0.00000     27.99199    55.67334    0.33466    84.00000

 Normal termination of Gaussian 16 at Sun Dec 13 23:23:46 2020.
