 Gaussian 16, Revision A.03,

 -----------------------------------------------------------
 # opt freq B3LYP/6-31G(d) empiricaldispersion=gd3bj scf=xqc
 -----------------------------------------------------------

 -------------------------------
 CID_117271139_JID_5469_neutraal
 -------------------------------
 Symbolic Z-matrix:
 Charge =  0 Multiplicity = 1

 SCF Done:  E(RB3LYP) =  -963.451857651     A.U. after   12 cycles
 SCF Done:  E(RB3LYP) =  -963.456273503     A.U. after   10 cycles
 SCF Done:  E(RB3LYP) =  -963.456401238     A.U. after   11 cycles
 SCF Done:  E(RB3LYP) =  -963.456757827     A.U. after   11 cycles
 SCF Done:  E(RB3LYP) =  -963.457241980     A.U. after   10 cycles
 SCF Done:  E(RB3LYP) =  -963.457276889     A.U. after   10 cycles
 SCF Done:  E(RB3LYP) =  -963.457378559     A.U. after    9 cycles
 SCF Done:  E(RB3LYP) =  -963.457375848     A.U. after    9 cycles
 SCF Done:  E(RB3LYP) =  -963.457375090     A.U. after    9 cycles
 SCF Done:  E(RB3LYP) =  -963.457388089     A.U. after    9 cycles
 SCF Done:  E(RB3LYP) =  -963.457394679     A.U. after    8 cycles
 SCF Done:  E(RB3LYP) =  -963.457394853     A.U. after    6 cycles
 Optimization completed.
    -- Stationary point found.
 Normal termination of Gaussian 16 at Thu Dec 10 16:19:15 2020.

 --------------------------------------------------------------------
 #N Geom=AllCheck Guess=TCheck SCRF=Check GenChk RB3LYP/6-31G(d) Freq
 --------------------------------------------------------------------

 Structure from the checkpoint file:  "JID_5469.chk"
 -------------------------------
 CID_117271139_JID_5469_neutraal
 -------------------------------
 Charge =  0 Multiplicity = 1

 SCF Done:  E(RB3LYP) =  -963.457394853     A.U. after    1 cycles

  Exact polarizability: 163.212  -0.549 153.526  -2.130  -4.082 142.580
 Approx polarizability: 220.383  -4.502 218.486  -4.484  -6.305 219.576

                      1                      2                      3
                      A                      A                      A
 Frequencies --     66.0635                71.3883                95.1397
 Red. masses --      3.1079                 4.6842                 2.3415
 Frc consts  --      0.0080                 0.0141                 0.0125
 IR Inten    --      0.1904                 0.8781                 0.0365

                      4                      5                      6
                      A                      A                      A
 Frequencies --    129.6652               176.9353               189.8181
 Red. masses --      3.0310                 3.4730                 2.7336
 Frc consts  --      0.0300                 0.0641                 0.0580
 IR Inten    --      0.0217                 0.3526                 1.5432

                      7                      8                      9
                      A                      A                      A
 Frequencies --    198.0850               232.7183               256.7623
 Red. masses --      2.5372                 1.4010                 3.2022
 Frc consts  --      0.0587                 0.0447                 0.1244
 IR Inten    --      0.7870                 0.2747                 0.4889

                     10                     11                     12
                      A                      A                      A
 Frequencies --    267.4796               283.4152               293.9708
 Red. masses --      1.7752                 2.3465                 2.0769
 Frc consts  --      0.0748                 0.1111                 0.1057
 IR Inten    --      0.2098                 0.2127                 2.7970

                     13                     14                     15
                      A                      A                      A
 Frequencies --    306.6258               343.1448               353.6082
 Red. masses --      1.2992                 2.2369                 2.4802
 Frc consts  --      0.0720                 0.1552                 0.1827
 IR Inten    --      0.0454                 1.0564                 1.0330

                     16                     17                     18
                      A                      A                      A
 Frequencies --    363.9080               409.8556               433.1199
 Red. masses --      2.3209                 2.8104                 2.5635
 Frc consts  --      0.1811                 0.2782                 0.2833
 IR Inten    --      1.7905                 2.7942                 0.0514

                     19                     20                     21
                      A                      A                      A
 Frequencies --    434.6851               456.9084               472.3312
 Red. masses --      2.8368                 3.1277                 3.1796
 Frc consts  --      0.3158                 0.3847                 0.4179
 IR Inten    --      0.9251                 2.0032                 5.6292

                     22                     23                     24
                      A                      A                      A
 Frequencies --    490.8174               521.4021               541.5200
 Red. masses --      2.1475                 2.0760                 2.1118
 Frc consts  --      0.3048                 0.3325                 0.3649
 IR Inten    --      0.4100                15.6224                 2.5623

                     25                     26                     27
                      A                      A                      A
 Frequencies --    589.0682               665.4475               699.5556
 Red. masses --      1.9654                 4.4388                 4.2050
 Frc consts  --      0.4018                 1.1581                 1.2124
 IR Inten    --     22.5457                 5.9167                 1.9251

                     28                     29                     30
                      A                      A                      A
 Frequencies --    726.2656               755.9193               814.6048
 Red. masses --      1.8483                 2.0525                 1.5403
 Frc consts  --      0.5744                 0.6910                 0.6022
 IR Inten    --     69.3215                15.7129                 0.2087

                     31                     32                     33
                      A                      A                      A
 Frequencies --    825.2927               850.9750               864.9764
 Red. masses --      2.0281                 1.8746                 2.8914
 Frc consts  --      0.8139                 0.7998                 1.2746
 IR Inten    --      0.5636                 1.9743                 2.5836

                     34                     35                     36
                      A                      A                      A
 Frequencies --    891.4725               916.7629               931.5260
 Red. masses --      2.0618                 1.8201                 1.3857
 Frc consts  --      0.9654                 0.9013                 0.7085
 IR Inten    --      6.7346                13.7686                 3.4021

                     37                     38                     39
                      A                      A                      A
 Frequencies --    940.2907               940.9984               949.4413
 Red. masses --      1.2437                 2.0391                 2.0846
 Frc consts  --      0.6479                 1.0638                 1.1071
 IR Inten    --      0.6680                 2.3420                 3.9784

                     40                     41                     42
                      A                      A                      A
 Frequencies --    973.3836               978.7103              1003.9700
 Red. masses --      1.6916                 1.4696                 2.3996
 Frc consts  --      0.9443                 0.8294                 1.4251
 IR Inten    --      5.8180                 2.4335                 9.2773

                     43                     44                     45
                      A                      A                      A
 Frequencies --   1012.7517              1045.1108              1075.2834
 Red. masses --      2.3374                 2.3667                 1.8189
 Frc consts  --      1.4125                 1.5231                 1.2391
 IR Inten    --      1.7887                 3.5570                 1.6739

                     46                     47                     48
                      A                      A                      A
 Frequencies --   1082.1257              1085.0561              1100.1558
 Red. masses --      1.8990                 2.4090                 1.6996
 Frc consts  --      1.3102                 1.6710                 1.2120
 IR Inten    --      6.4319                 3.3052                 0.3933

                     49                     50                     51
                      A                      A                      A
 Frequencies --   1104.7334              1124.0954              1145.2729
 Red. masses --      1.9928                 1.6071                 1.5380
 Frc consts  --      1.4330                 1.1964                 1.1886
 IR Inten    --      2.4465                10.2409                 2.3478

                     52                     53                     54
                      A                      A                      A
 Frequencies --   1161.1208              1169.4362              1192.1073
 Red. masses --      2.3870                 1.8430                 1.9052
 Frc consts  --      1.8961                 1.4850                 1.5952
 IR Inten    --     30.3763                 4.7108                 4.2743

                     55                     56                     57
                      A                      A                      A
 Frequencies --   1210.6977              1224.0070              1235.3168
 Red. masses --      1.7301                 1.4554                 1.3261
 Frc consts  --      1.4942                 1.2847                 1.1923
 IR Inten    --      1.4601                 5.7227                 0.4835

                     58                     59                     60
                      A                      A                      A
 Frequencies --   1240.1709              1266.0127              1287.3453
 Red. masses --      1.4075                 1.8457                 1.2970
 Frc consts  --      1.2754                 1.7430                 1.2664
 IR Inten    --      1.8420                11.5440                 4.5566

                     61                     62                     63
                      A                      A                      A
 Frequencies --   1310.6548              1322.0864              1329.7329
 Red. masses --      1.2307                 1.2252                 1.2621
 Frc consts  --      1.2456                 1.2617                 1.3148
 IR Inten    --      4.1647                 4.2704                18.9217

                     64                     65                     66
                      A                      A                      A
 Frequencies --   1345.5318              1358.9601              1362.8247
 Red. masses --      1.2923                 1.3569                 1.2608
 Frc consts  --      1.3785                 1.4764                 1.3797
 IR Inten    --      1.0135                 4.1622                 2.3783

                     67                     68                     69
                      A                      A                      A
 Frequencies --   1368.1111              1381.5182              1385.7321
 Red. masses --      1.2115                 1.3320                 1.3630
 Frc consts  --      1.3360                 1.4979                 1.5421
 IR Inten    --     10.9944                 3.5346                 4.2712

                     70                     71                     72
                      A                      A                      A
 Frequencies --   1399.6620              1405.7763              1408.7893
 Red. masses --      1.3993                 1.4238                 1.3149
 Frc consts  --      1.6151                 1.6578                 1.5376
 IR Inten    --      1.2082                 4.8105                 1.7165

                     73                     74                     75
                      A                      A                      A
 Frequencies --   1413.6702              1425.7188              1434.9105
 Red. masses --      1.4279                 1.3804                 1.3152
 Frc consts  --      1.6813                 1.6532                 1.5954
 IR Inten    --      9.6131                11.7421                 9.2709

                     76                     77                     78
                      A                      A                      A
 Frequencies --   1450.0080              1495.1251              1501.8565
 Red. masses --      1.2274                 1.0870                 1.0879
 Frc consts  --      1.5205                 1.4316                 1.4458
 IR Inten    --      7.7040                 0.6794                 8.4916

                     79                     80                     81
                      A                      A                      A
 Frequencies --   1502.9034              1509.8699              1513.4570
 Red. masses --      1.0889                 1.1069                 1.0875
 Frc consts  --      1.4491                 1.4867                 1.4676
 IR Inten    --      5.7255                 1.0773                 2.4187

                     82                     83                     84
                      A                      A                      A
 Frequencies --   1519.5920              1522.4940              1528.2978
 Red. masses --      1.1716                 1.0830                 1.1076
 Frc consts  --      1.5940                 1.4790                 1.5242
 IR Inten    --      3.9942                 5.0999                 4.5353

                     85                     86                     87
                      A                      A                      A
 Frequencies --   1533.0359              1535.2279              1543.5501
 Red. masses --      1.0723                 1.0871                 1.0572
 Frc consts  --      1.4848                 1.5095                 1.4841
 IR Inten    --     13.5816                 2.9223                 0.8856

                     88                     89                     90
                      A                      A                      A
 Frequencies --   1550.7777              1556.5709              2991.9312
 Red. masses --      1.0825                 1.0674                 1.0700
 Frc consts  --      1.5338                 1.5238                 5.6432
 IR Inten    --      0.4892                 7.7304                59.0996

                     91                     92                     93
                      A                      A                      A
 Frequencies --   3011.8100              3036.6587              3041.1050
 Red. masses --      1.0803                 1.0648                 1.0645
 Frc consts  --      5.7735                 5.7852                 5.8007
 IR Inten    --     10.7391                18.5683                13.0236

                     94                     95                     96
                      A                      A                      A
 Frequencies --   3042.8744              3045.4211              3047.0246
 Red. masses --      1.0760                 1.0635                 1.0575
 Frc consts  --      5.8697                 5.8116                 5.7846
 IR Inten    --      6.3987                29.0916                31.6244

                     97                     98                     99
                      A                      A                      A
 Frequencies --   3047.3893              3051.2201              3054.0364
 Red. masses --      1.0467                 1.0641                 1.0507
 Frc consts  --      5.7271                 5.8366                 5.7737
 IR Inten    --     11.5579                25.1831                19.5353

                    100                    101                    102
                      A                      A                      A
 Frequencies --   3054.7634              3062.0265              3066.8615
 Red. masses --      1.0609                 1.0882                 1.0624
 Frc consts  --      5.8326                 6.0114                 5.8874
 IR Inten    --     67.8155                45.6143                35.9548

                    103                    104                    105
                      A                      A                      A
 Frequencies --   3077.9592              3090.6867              3102.4574
 Red. masses --      1.0974                 1.1047                 1.1008
 Frc consts  --      6.1256                 6.2172                 6.2426
 IR Inten    --     67.2246                52.4220                 8.9140

                    106                    107                    108
                      A                      A                      A
 Frequencies --   3104.1459              3109.9527              3112.0174
 Red. masses --      1.1001                 1.1000                 1.0990
 Frc consts  --      6.2456                 6.2680                 6.2708
 IR Inten    --     11.7050               109.7275                39.5815

                    109                    110                    111
                      A                      A                      A
 Frequencies --   3114.2469              3116.7270              3124.9153
 Red. masses --      1.1014                 1.1019                 1.1001
 Frc consts  --      6.2935                 6.3063                 6.3296
 IR Inten    --     14.3869                 6.4422                20.7833

                    112                    113                    114
                      A                      A                      A
 Frequencies --   3129.0913              3138.2307              3546.9423
 Red. masses --      1.1000                 1.0905                 1.0737
 Frc consts  --      6.3459                 6.3279                 7.9589
 IR Inten    --     40.1217                36.3069                 0.6043

 - Thermochemistry -
 -------------------
 Temperature   298.150 Kelvin.  Pressure   1.00000 Atm.
 Atom     1 has atomic number  6 and mass  12.00000

 Molecular mass:   227.17077 amu.
 Principal axes and moments of inertia in atomic units:
                           1         2         3
     Eigenvalues --  2600.427144546.530495407.93364
           X            0.99993   0.01178   0.00297
           Y           -0.01178   0.99993  -0.00240
           Z           -0.00300   0.00237   0.99999
 This molecule is an asymmetric top.
 Rotational symmetry number  1.
 Warning -- assumption of classical behavior for rotation
           may cause significant error
 Rotational temperatures (Kelvin)      0.03331     0.01905     0.01602
 Rotational constants (GHZ):           0.69402     0.39695     0.33372
 Zero-point vibrational energy     973196.6 (Joules/Mol)
                                  232.59957 (Kcal/Mol)
 Warning -- explicit consideration of  25 degrees of freedom as
           vibrations may cause significant error
 Vibrational temperatures:     95.05   102.71   136.88   186.56   254.57
          (Kelvin)            273.11   285.00   334.83   369.42   384.84
                              407.77   422.96   441.17   493.71   508.76
                              523.58   589.69   623.16   625.41   657.39
                              679.58   706.18   750.18   779.13   847.54
                              957.43  1006.50  1044.93  1087.60  1172.03
                             1187.41  1224.36  1244.51  1282.63  1319.02
                             1340.26  1352.87  1353.89  1366.03  1400.48
                             1408.15  1444.49  1457.12  1503.68  1547.09
                             1556.94  1561.15  1582.88  1589.47  1617.32
                             1647.79  1670.59  1682.56  1715.18  1741.92
                             1761.07  1777.35  1784.33  1821.51  1852.20
                             1885.74  1902.19  1913.19  1935.92  1955.24
                             1960.80  1968.41  1987.70  1993.76  2013.80
                             2022.60  2026.93  2033.96  2051.29  2064.52
                             2086.24  2151.15  2160.84  2162.34  2172.37
                             2177.53  2186.35  2190.53  2198.88  2205.70
                             2208.85  2220.82  2231.22  2239.56  4304.72
                             4333.32  4369.07  4375.47  4378.02  4381.68
                             4383.99  4384.51  4390.03  4394.08  4395.12
                             4405.57  4412.53  4428.50  4446.81  4463.74
                             4466.17  4474.53  4477.50  4480.71  4484.27
                             4496.06  4502.06  4515.21  5103.26

 Zero-point correction=                           0.370671 (Hartree/Particle)
 Thermal correction to Energy=                    0.385906
 Thermal correction to Enthalpy=                  0.386850
 Thermal correction to Gibbs Free Energy=         0.329809
 Sum of electronic and zero-point Energies=           -963.086724
 Sum of electronic and thermal Energies=              -963.071489
 Sum of electronic and thermal Enthalpies=            -963.070545
 Sum of electronic and thermal Free Energies=         -963.127585

                     E (Thermal)             CV                S
                      KCal/Mol        Cal/Mol-Kelvin    Cal/Mol-Kelvin
 Total                  242.160             62.606            120.052
 Electronic               0.000              0.000              0.000
 Translational            0.889              2.981             42.164
 Rotational               0.889              2.981             32.525
 Vibrational            240.382             56.645             45.363
 Vibration     1          0.597              1.970              4.267
 Vibration     2          0.598              1.968              4.115
 Vibration     3          0.603              1.953              3.552
 Vibration     4          0.612              1.924              2.951
 Vibration     5          0.628              1.871              2.361
 Vibration     6          0.633              1.854              2.230
 Vibration     7          0.637              1.843              2.151
 Vibration     8          0.653              1.791              1.858
 Vibration     9          0.666              1.751              1.684
 Vibration    10          0.673              1.733              1.612
 Vibration    11          0.682              1.704              1.513
 Vibration    12          0.689              1.685              1.451
 Vibration    13          0.697              1.661              1.380
 Vibration    14          0.722              1.589              1.197
 Vibration    15          0.730              1.568              1.150
 Vibration    16          0.737              1.547              1.105
 Vibration    17          0.774              1.449              0.927
 Vibration    18          0.794              1.398              0.849
 Vibration    19          0.795              1.395              0.843
 Vibration    20          0.815              1.346              0.775
 Vibration    21          0.829              1.311              0.731
 Vibration    22          0.847              1.270              0.681
 Vibration    23          0.876              1.203              0.607
 Vibration    24          0.897              1.158              0.562
 Vibration    25          0.946              1.055              0.469

 Optimization completed.
    -- Stationary point found.
 Normal termination of Gaussian 16 at Thu Dec 10 16:37:47 2020.

 ----------------------------------------------------------------------
 # B3LYP/6-311++G(d,p) empiricaldispersion=gd3bj scf=xqc pop=npa geom=c
 heck
 ----------------------------------------------------------------------

 ---------------------------------------
 CID_117271139_JID_5469_Energie_neutraal
 ---------------------------------------
 Structure from the checkpoint file:  "JID_5469.chk"
 Charge =  0 Multiplicity = 1

 SCF Done:  E(RB3LYP) =  -963.638755641     A.U. after   13 cycles
 Normal termination of Gaussian 16 at Thu Dec 10 16:46:35 2020.

 ----------------------------------------------------------------------
 # B3LYP/6-311++G(d,p) empiricaldispersion=gd3bj scf=xqc pop=npa geom=c
 heck
 ----------------------------------------------------------------------

 -------------------------------------
 CID_117271139_JID_5469_Energie_kation
 -------------------------------------
 Structure from the checkpoint file:  "JID_5469.chk"
 Charge =  1 Multiplicity = 2

 SCF Done:  E(UB3LYP) =  -963.359488346     A.U. after   21 cycles
 Normal termination of Gaussian 16 at Thu Dec 10 17:14:53 2020.
 Gaussian 16:  ES64L-G16RevA.03 25-Dec-2016

 ----------------------------------------------------------------------
 # B3LYP/6-311++G(d,p) empiricaldispersion=gd3bj scf=xqc pop=npa geom=c
 heck
 ----------------------------------------------------------------------

 ------------------------------------
 CID_117271139_JID_5469_Energie_anion
 ------------------------------------
 Structure from the checkpoint file:  "JID_5469.chk"
 Charge = -1 Multiplicity = 2

                         Standard orientation:
 ---------------------------------------------------------------------
 Center     Atomic      Atomic             Coordinates (Angstroms)
 Number     Number       Type             X           Y           Z
 ---------------------------------------------------------------------
      1          6           0       -1.553392    2.383884    1.541482
      2          6           0       -1.693427    1.789074    0.130325
      3          6           0       -1.114777    2.778841   -0.891621
      4          6           0       -1.154907    0.315695   -0.001721
      5          6           0       -1.634940   -0.241564   -1.364485
      6          6           0       -1.593765   -1.768782   -1.469758
      7          6           0       -2.460935   -2.376542   -0.367281
      8          6           0       -1.955596   -1.900080    0.990505
      9          7           0       -1.884778   -0.437516    1.039885
     10          6           0        0.432233    0.322398    0.150080
     11          6           0        1.203043    0.406244   -1.184847
     12          6           0        2.685062    0.742056   -1.000994
     13         16           0        3.599037   -0.528481   -0.050581
     14          6           0        2.480219   -0.566070    1.398953
     15          6           0        1.017824   -0.807091    1.018936
     16          1           0       -0.507873    2.456818    1.864881
     17          1           0       -2.108009    1.806565    2.286646
     18          1           0       -1.962849    3.400190    1.554937
     19          1           0       -2.769718    1.701910   -0.062423
     20          1           0       -0.054881    2.986433   -0.705095
     21          1           0       -1.216945    2.425912   -1.922174
     22          1           0       -1.645807    3.734794   -0.819448
     23          1           0       -1.071907    0.208076   -2.183624
     24          1           0       -2.678120    0.073624   -1.494874
     25          1           0       -1.947891   -2.078915   -2.460501
     26          1           0       -0.562962   -2.136354   -1.375274
     27          1           0       -3.501259   -2.054140   -0.504789
     28          1           0       -2.444336   -3.472374   -0.402564
     29          1           0       -2.647019   -2.211642    1.783211
     30          1           0       -0.996274   -2.402399    1.194246
     31          1           0       -1.590494   -0.139945    1.963443
     32          1           0        0.674289    1.247640    0.692546
     33          1           0        1.120156   -0.542558   -1.727008
     34          1           0        0.771883    1.180928   -1.825555
     35          1           0        3.189306    0.809974   -1.969859
     36          1           0        2.798025    1.712506   -0.501249
     37          1           0        2.582033    0.375213    1.953984
     38          1           0        2.851277   -1.370120    2.041856
     39          1           0        0.444975   -0.892660    1.949269
     40          1           0        0.943410   -1.769560    0.502076
 ---------------------------------------------------------------------

 SCF Done:  E(UB3LYP) =  -963.625606801     A.U. after   29 cycles

 The electronic state is 2-A.
 Alpha  occ. eigenvalues --  -88.73954 -14.19205 -10.10998 -10.10229 -10.10063
 Alpha  occ. eigenvalues --  -10.08924 -10.07705 -10.07414 -10.07269 -10.07244
 Alpha  occ. eigenvalues --  -10.06940 -10.06700 -10.06369 -10.05868 -10.05619
 Alpha  occ. eigenvalues --   -7.82593  -5.78967  -5.78640  -5.77966  -0.81347
 Alpha  occ. eigenvalues --   -0.74327  -0.70477  -0.69142  -0.66163  -0.65868
 Alpha  occ. eigenvalues --   -0.63234  -0.58603  -0.54953  -0.53437  -0.52256
 Alpha  occ. eigenvalues --   -0.51363  -0.46837  -0.46359  -0.44014  -0.41379
 Alpha  occ. eigenvalues --   -0.37233  -0.36469  -0.35918  -0.35313  -0.34291
 Alpha  occ. eigenvalues --   -0.34267  -0.33090  -0.32314  -0.31856  -0.30766
 Alpha  occ. eigenvalues --   -0.29984  -0.29501  -0.29129  -0.28403  -0.27754
 Alpha  occ. eigenvalues --   -0.26258  -0.26121  -0.24913  -0.24468  -0.23938
 Alpha  occ. eigenvalues --   -0.22747  -0.22518  -0.22016  -0.20853  -0.19873
 Alpha  occ. eigenvalues --   -0.19639  -0.12969  -0.11989   0.04221
 Alpha virt. eigenvalues --    0.06367   0.06552   0.07166   0.08081   0.08492
 Alpha virt. eigenvalues --    0.08592   0.09012   0.09270   0.10729   0.11138
 Alpha virt. eigenvalues --    0.11213   0.11400   0.11744   0.11939   0.12048

  Beta  occ. eigenvalues --  -88.73952 -14.19192 -10.10997 -10.10214 -10.10044
  Beta  occ. eigenvalues --  -10.08908 -10.07697 -10.07405 -10.07259 -10.07229
  Beta  occ. eigenvalues --  -10.06930 -10.06690 -10.06359 -10.05842 -10.05589
  Beta  occ. eigenvalues --   -7.82591  -5.78966  -5.78637  -5.77963  -0.81324
  Beta  occ. eigenvalues --   -0.74305  -0.70452  -0.69118  -0.66133  -0.65842
  Beta  occ. eigenvalues --   -0.63207  -0.58548  -0.54922  -0.53397  -0.52211
  Beta  occ. eigenvalues --   -0.51331  -0.46792  -0.46312  -0.43982  -0.41338
  Beta  occ. eigenvalues --   -0.37198  -0.36444  -0.35895  -0.35285  -0.34253
  Beta  occ. eigenvalues --   -0.34242  -0.33061  -0.32288  -0.31827  -0.30734
  Beta  occ. eigenvalues --   -0.29957  -0.29477  -0.29103  -0.28374  -0.27724
  Beta  occ. eigenvalues --   -0.26231  -0.26091  -0.24889  -0.24437  -0.23910
  Beta  occ. eigenvalues --   -0.22721  -0.22495  -0.21990  -0.20827  -0.19850
  Beta  occ. eigenvalues --   -0.19614  -0.12952  -0.11972
  Beta virt. eigenvalues --    0.06285   0.07075   0.07290   0.07545   0.08472
  Beta virt. eigenvalues --    0.08913   0.09085   0.09249   0.09543   0.11091
  Beta virt. eigenvalues --    0.11467   0.11560   0.11638   0.12028   0.12164

 Mulliken charges and spin densities:
               1          2
     1  C    0.259313  -0.925748
     2  C   -1.549579   1.692040
     3  C    0.662884  -1.303927
     4  C    0.787967  -0.884869
     5  C   -0.650123   0.448785
     6  C    0.302421  -0.603257
     7  C   -0.187675  -0.454637
     8  C    0.460956  -0.417670
     9  N    0.004680   0.027715
    10  C    0.527502  -0.530787
    11  C   -0.617657   0.495072
    12  C   -0.013132  -0.715117
    13  S    0.117148  -0.147161
    14  C    0.031467  -0.981808
    15  C   -0.113822   0.267222
    16  H   -0.581045   0.710803
    17  H   -0.268085   0.395351
    18  H   -0.099959   0.254075
    19  H    0.110166   0.080037
    20  H   -0.219564   0.381416
    21  H   -0.193169   0.342272
    22  H   -0.176759   0.328434
    23  H    0.005636   0.149481
    24  H   -0.073659   0.249203
    25  H   -0.137863   0.316124
    26  H    0.025219   0.090417
    27  H    0.172224  -0.053308
    28  H   -0.115400   0.282206
    29  H   -0.443385   0.611727
    30  H   -0.079754   0.204227
    31  H    0.332719  -0.089775
    32  H    1.267588  -1.144489
    33  H    0.020315   0.070452
    34  H    0.019886   0.137854
    35  H   -0.075217   0.301523
    36  H   -0.053441   0.245137
    37  H   -0.126955   0.319521
    38  H   -0.078080   0.314176
    39  H   -0.501324   0.720196
    40  H    0.247556  -0.182913
 Sum of Mulliken charges =  -1.00000   1.00000

 Dipole moment (field-independent basis, Debye):
    X=              1.0457    Y=             -1.6806    Z=             -2.2893  Tot=              3.0264
 Quadrupole moment (field-independent basis, Debye-Ang):
   XX=           -163.0012   YY=           -159.1640   ZZ=           -155.1950
   XY=             -0.6308   XZ=              1.8402   YZ=              2.0885

 Summary of Natural Population Analysis:

                                       Natural Population
                Natural  -----------------------------------------------
    Atom  No    Charge         Core      Valence    Rydberg      Total
 -----------------------------------------------------------------------
      C    1   -0.28718      0.99964     2.28160    0.00594     3.28718
      C    2   -0.10969      0.99956     2.09808    0.01204     3.10969
      C    3   -0.28755      0.99964     2.28202    0.00589     3.28755
      C    4    0.08177      0.99952     1.90252    0.01619     2.91823
      C    5   -0.19629      0.99958     2.18654    0.01018     3.19629
      C    6   -0.18982      0.99962     2.18251    0.00769     3.18982
      C    7   -0.19095      0.99962     2.18380    0.00752     3.19095
      C    8   -0.08361      0.99961     2.07309    0.01091     3.08361
      N    9   -0.35427      0.99971     2.84218    0.01238     3.85427
      C   10   -0.12254      0.99954     2.10877    0.01423     3.12254
      C   11   -0.20065      0.99959     2.19138    0.00968     3.20065
      C   12   -0.24532      0.99959     2.23538    0.01036     3.24532
      S   13    0.07939      4.99963     2.90441    0.01656     7.92061
      C   14   -0.24482      0.99959     2.23442    0.01081     3.24482
      C   15   -0.19721      0.99959     2.18628    0.01134     3.19721
      H   16    0.09613      0.00000     0.40250    0.00137     0.40387
      H   17    0.10174      0.00000     0.39698    0.00128     0.39826
      H   18    0.10083      0.00000     0.39825    0.00092     0.39917
      H   19    0.09786      0.00000     0.40013    0.00201     0.40214
      H   20    0.09641      0.00000     0.40231    0.00127     0.40359
      H   21    0.10005      0.00000     0.39878    0.00117     0.39995
      H   22    0.10076      0.00000     0.39838    0.00086     0.39924
      H   23    0.10406      0.00000     0.39476    0.00117     0.39594
      H   24    0.09968      0.00000     0.39877    0.00155     0.40032
      H   25    0.09780      0.00000     0.40129    0.00091     0.40220
      H   26    0.09276      0.00000     0.40542    0.00182     0.40724
      H   27    0.09418      0.00000     0.40453    0.00130     0.40582
      H   28    0.09742      0.00000     0.40168    0.00090     0.40258
      H   29    0.09480      0.00000     0.40398    0.00122     0.40520
      H   30    0.07793      0.00000     0.41996    0.00211     0.42207
      H   31    0.18096      0.00000     0.31583    0.00321     0.31904
      H   32    0.09671      0.00000     0.40022    0.00307     0.40329
      H   33    0.09933      0.00000     0.39900    0.00167     0.40067
      H   34    0.10622      0.00000     0.39230    0.00148     0.39378
      H   35    0.10592      0.00000     0.39318    0.00090     0.39408
      H   36    0.09858      0.00000     0.39981    0.00161     0.40142
      H   37    0.09911      0.00000     0.39924    0.00165     0.40089
      H   38    0.10683      0.00000     0.39224    0.00093     0.39317
      H   39    0.10438      0.00000     0.39378    0.00183     0.39562
      H   40    0.09829      0.00000     0.39971    0.00199     0.40171
 =======================================================================
   * Total *   -0.00000     18.99404    43.80601    0.19996    63.00000

 Normal termination of Gaussian 16 at Thu Dec 10 17:47:23 2020.
