 Gaussian 16, Revision A.03,

 -----------------------------------------------------------
 # opt freq B3LYP/6-31G(d) empiricaldispersion=gd3bj scf=xqc
 -----------------------------------------------------------

 -------------------------------
 CID_60957909_JID_10434_neutraal
 -------------------------------
 Symbolic Z-matrix:
 Charge =  0 Multiplicity = 1

 SCF Done:  E(RB3LYP) =  -904.058745428     A.U. after   15 cycles
 SCF Done:  E(RB3LYP) =  -902.986105725     A.U. after   19 cycles
 SCF Done:  E(RB3LYP) =  -904.055282972     A.U. after   14 cycles
 SCF Done:  E(RB3LYP) =  -904.064325381     A.U. after   11 cycles
 SCF Done:  E(RB3LYP) =  -904.065901242     A.U. after   12 cycles
 SCF Done:  E(RB3LYP) =  -904.065452532     A.U. after   12 cycles
 SCF Done:  E(RB3LYP) =  -904.066823646     A.U. after   12 cycles
 SCF Done:  E(RB3LYP) =  -904.066423173     A.U. after   12 cycles
 SCF Done:  E(RB3LYP) =  -904.067558359     A.U. after   11 cycles
 SCF Done:  E(RB3LYP) =  -904.067707869     A.U. after   12 cycles
 SCF Done:  E(RB3LYP) =  -904.068841770     A.U. after    8 cycles
 SCF Done:  E(RB3LYP) =  -904.068842344     A.U. after    8 cycles
 SCF Done:  E(RB3LYP) =  -904.068842847     A.U. after    7 cycles
 SCF Done:  E(RB3LYP) =  -904.068843113     A.U. after    7 cycles
 SCF Done:  E(RB3LYP) =  -904.068843168     A.U. after    6 cycles
 Optimization completed.
    -- Stationary point found.
 Normal termination of Gaussian 16 at Sun Dec 13 21:10:04 2020.

 --------------------------------------------------------------------
 #N Geom=AllCheck Guess=TCheck SCRF=Check GenChk RB3LYP/6-31G(d) Freq
 --------------------------------------------------------------------

 Structure from the checkpoint file:  "JID_10434.chk"
 -------------------------------
 CID_60957909_JID_10434_neutraal
 -------------------------------
 Charge =  0 Multiplicity = 1

 SCF Done:  E(RB3LYP) =  -904.068843168     A.U. after    1 cycles

  Exact polarizability: 211.941   3.591 146.428   3.092  -2.356 162.318
 Approx polarizability: 303.918   2.172 205.909   1.983  -6.239 287.445

                      1                      2                      3
                      A                      A                      A
 Frequencies --     32.3336                36.1831                44.1158
 Red. masses --      3.7760                 5.2130                 4.6839
 Frc consts  --      0.0023                 0.0040                 0.0054
 IR Inten    --      0.8500                 1.1359                 2.1116

                      4                      5                      6
                      A                      A                      A
 Frequencies --     70.4475                83.9530               102.7017
 Red. masses --      5.2618                 4.1167                 4.6561
 Frc consts  --      0.0154                 0.0171                 0.0289
 IR Inten    --      0.3155                 1.3134                 2.0908

                      7                      8                      9
                      A                      A                      A
 Frequencies --    122.7841               144.3775               151.6644
 Red. masses --      3.0669                 1.1507                 3.2060
 Frc consts  --      0.0272                 0.0141                 0.0434
 IR Inten    --      6.8152                 0.8401                 3.5326

                     10                     11                     12
                      A                      A                      A
 Frequencies --    164.1204               182.8993               198.2219
 Red. masses --      5.7810                 3.6161                 2.7416
 Frc consts  --      0.0917                 0.0713                 0.0635
 IR Inten    --      1.8072                 8.0933                 4.7469

                     13                     14                     15
                      A                      A                      A
 Frequencies --    216.4840               275.4057               285.1097
 Red. masses --      2.5846                 1.2472                 2.0616
 Frc consts  --      0.0714                 0.0557                 0.0987
 IR Inten    --      3.8920               114.6760                31.2146

                     16                     17                     18
                      A                      A                      A
 Frequencies --    324.6101               329.5386               344.8906
 Red. masses --      3.5775                 3.4501                 3.4731
 Frc consts  --      0.2221                 0.2207                 0.2434
 IR Inten    --      1.1227                 1.0655                 6.4306

                     19                     20                     21
                      A                      A                      A
 Frequencies --    357.5126               379.4037               396.8455
 Red. masses --      3.0067                 2.2785                 2.7986
 Frc consts  --      0.2264                 0.1932                 0.2597
 IR Inten    --      1.4864                 2.5000                 8.0198

                     22                     23                     24
                      A                      A                      A
 Frequencies --    418.5927               428.0859               452.3796
 Red. masses --      3.0581                 3.2456                 2.2212
 Frc consts  --      0.3157                 0.3504                 0.2678
 IR Inten    --      6.0690                 2.2080                 0.7555

                     25                     26                     27
                      A                      A                      A
 Frequencies --    466.1515               471.6769               496.6883
 Red. masses --      2.9260                 3.2491                 3.9911
 Frc consts  --      0.3746                 0.4259                 0.5801
 IR Inten    --     13.0406                 4.7179                 2.9768

                     28                     29                     30
                      A                      A                      A
 Frequencies --    521.1498               545.0934               572.1606
 Red. masses --      2.7553                 3.1181                 3.8900
 Frc consts  --      0.4409                 0.5459                 0.7503
 IR Inten    --     14.4582                 8.3513                 6.3247

                     31                     32                     33
                      A                      A                      A
 Frequencies --    584.6843               655.6734               678.9619
 Red. masses --      2.4796                 6.4114                 2.9813
 Frc consts  --      0.4994                 1.6240                 0.8097
 IR Inten    --      5.0574                 1.5690                 4.6390

                     34                     35                     36
                      A                      A                      A
 Frequencies --    711.3508               718.5017               757.0611
 Red. masses --      3.5052                 3.9901                 3.5747
 Frc consts  --      1.0450                 1.2136                 1.2071
 IR Inten    --      1.6575                 7.6314                 2.0994

                     37                     38                     39
                      A                      A                      A
 Frequencies --    805.2843               826.3809               836.2110
 Red. masses --      2.4342                 1.5484                 1.4735
 Frc consts  --      0.9301                 0.6230                 0.6071
 IR Inten    --      3.5542                 1.1131                 0.5771

                     40                     41                     42
                      A                      A                      A
 Frequencies --    836.2255               841.3821               910.0395
 Red. masses --      1.6431                 2.7334                 2.8211
 Frc consts  --      0.6770                 1.1401                 1.3766
 IR Inten    --     63.5264                 9.0325                 2.5246

                     43                     44                     45
                      A                      A                      A
 Frequencies --    920.4031               934.9824               947.4820
 Red. masses --      2.5764                 1.9346                 1.2555
 Frc consts  --      1.2859                 0.9964                 0.6641
 IR Inten    --      0.8921                 2.1043                 3.2368

                     46                     47                     48
                      A                      A                      A
 Frequencies --    958.2062               982.4664               991.2740
 Red. masses --      1.3206                 2.0813                 1.5464
 Frc consts  --      0.7144                 1.1837                 0.8953
 IR Inten    --      3.5135                21.6794                 2.2131

                     49                     50                     51
                      A                      A                      A
 Frequencies --   1003.5561              1012.0119              1022.6247
 Red. masses --      1.6619                 2.4506                 1.4225
 Frc consts  --      0.9861                 1.4787                 0.8765
 IR Inten    --      4.5309                 1.8405                 0.4639

                     52                     53                     54
                      A                      A                      A
 Frequencies --   1037.8133              1048.6456              1069.3206
 Red. masses --      2.7444                 2.0427                 3.3954
 Frc consts  --      1.7415                 1.3235                 2.2875
 IR Inten    --      0.1613                15.3240                37.6036

                     55                     56                     57
                      A                      A                      A
 Frequencies --   1071.3568              1085.8129              1091.8334
 Red. masses --      3.6445                 1.4818                 2.3011
 Frc consts  --      2.4647                 1.0293                 1.6162
 IR Inten    --     58.3459                12.0628                19.6711

                     58                     59                     60
                      A                      A                      A
 Frequencies --   1105.8127              1125.8289              1152.9867
 Red. masses --      2.8886                 2.3286                 1.2646
 Frc consts  --      2.0811                 1.7389                 0.9905
 IR Inten    --     48.1024                 0.2854                 5.8951

                     61                     62                     63
                      A                      A                      A
 Frequencies --   1165.5582              1203.7206              1212.5038
 Red. masses --      2.1961                 1.2197                 1.9799
 Frc consts  --      1.7578                 1.0412                 1.7150
 IR Inten    --     17.2414                 7.3746                24.7438

                     64                     65                     66
                      A                      A                      A
 Frequencies --   1219.6971              1228.8056              1247.6955
 Red. masses --      1.1826                 1.3394                 2.8974
 Frc consts  --      1.0365                 1.1916                 2.6575
 IR Inten    --     10.8189                71.6372                 4.3513

                     67                     68                     69
                      A                      A                      A
 Frequencies --   1255.3553              1268.5830              1272.5794
 Red. masses --      1.4442                 1.8356                 1.4654
 Frc consts  --      1.3409                 1.7404                 1.3982
 IR Inten    --     16.2755               101.9768                41.2923

                     70                     71                     72
                      A                      A                      A
 Frequencies --   1294.5324              1306.1249              1316.6309
 Red. masses --      1.3052                 1.5570                 1.5010
 Frc consts  --      1.2887                 1.5649                 1.5331
 IR Inten    --     18.2047                18.4614                20.0350

                     73                     74                     75
                      A                      A                      A
 Frequencies --   1322.0755              1344.8530              1350.3268
 Red. masses --      1.6115                 1.3024                 1.6880
 Frc consts  --      1.6595                 1.3878                 1.8134
 IR Inten    --     93.3790                21.7028                35.0402

                     76                     77                     78
                      A                      A                      A
 Frequencies --   1358.8784              1361.9786              1379.7985
 Red. masses --      1.8557                 1.6014                 1.3588
 Frc consts  --      2.0190                 1.7502                 1.5242
 IR Inten    --      8.4498                28.4694                14.5719

                     79                     80                     81
                      A                      A                      A
 Frequencies --   1392.6720              1413.2553              1418.1196
 Red. masses --      1.2919                 1.3995                 1.2869
 Frc consts  --      1.4763                 1.6469                 1.5248
 IR Inten    --      1.5610                 0.4725                 6.6157

                     82                     83                     84
                      A                      A                      A
 Frequencies --   1422.6298              1427.6300              1446.4793
 Red. masses --      1.3400                 1.5568                 1.2450
 Frc consts  --      1.5979                 1.8694                 1.5348
 IR Inten    --     11.7468                 0.7035                 0.1903

                     85                     86                     87
                      A                      A                      A
 Frequencies --   1466.4401              1478.8141              1482.3391
 Red. masses --      2.7526                 1.4577                 1.4202
 Frc consts  --      3.4876                 1.8783                 1.8387
 IR Inten    --      0.2084                48.2900                 9.1326

                     88                     89                     90
                      A                      A                      A
 Frequencies --   1503.8816              1512.8845              1518.1633
 Red. masses --      1.5201                 1.1197                 1.0506
 Frc consts  --      2.0255                 1.5100                 1.4267
 IR Inten    --     62.0630                 6.1947                 2.5794

                     91                     92                     93
                      A                      A                      A
 Frequencies --   1518.7751              1524.4094              1532.7780
 Red. masses --      1.1752                 1.1000                 1.0949
 Frc consts  --      1.5972                 1.5060                 1.5156
 IR Inten    --     27.8093                 4.6909                 3.6395

                     94                     95                     96
                      A                      A                      A
 Frequencies --   1534.2829              1543.1380              1553.5321
 Red. masses --      1.1107                 1.1062                 1.0829
 Frc consts  --      1.5405                 1.5520                 1.5399
 IR Inten    --      6.5444                17.7587                 6.9874

                     97                     98                     99
                      A                      A                      A
 Frequencies --   1567.7999              1636.7938              1676.5249
 Red. masses --      2.5312                 5.8263                 5.7787
 Frc consts  --      3.6658                 9.1967                 9.5698
 IR Inten    --    133.3919                 8.7007                38.7180

                    100                    101                    102
                      A                      A                      A
 Frequencies --   1727.3533              2989.4518              3008.9258
 Red. masses --      9.5305                 1.0672                 1.0806
 Frc consts  --     16.7543                 5.6190                 5.7644
 IR Inten    --    261.4471                56.3724                12.0403

                    103                    104                    105
                      A                      A                      A
 Frequencies --   3020.9419              3028.6132              3032.9683
 Red. masses --      1.0744                 1.0736                 1.0423
 Frc consts  --      5.7770                 5.8018                 5.6490
 IR Inten    --     21.8061                88.7540                30.9680

                    106                    107                    108
                      A                      A                      A
 Frequencies --   3045.7005              3051.8958              3071.8353
 Red. masses --      1.0634                 1.0964                 1.0673
 Frc consts  --      5.8120                 6.0169                 5.9340
 IR Inten    --     44.3837                48.8632                 5.9486

                    109                    110                    111
                      A                      A                      A
 Frequencies --   3084.2528              3089.2676              3092.5471
 Red. masses --      1.0598                 1.0583                 1.0938
 Frc consts  --      5.9398                 5.9508                 6.1635
 IR Inten    --     10.3332                50.6463                23.6486

                    112                    113                    114
                      A                      A                      A
 Frequencies --   3101.8270              3120.7218              3130.7245
 Red. masses --      1.0990                 1.1026                 1.1040
 Frc consts  --      6.2301                 6.3268                 6.3755
 IR Inten    --     20.2775                16.1366                15.9218

                    115                    116                    117
                      A                      A                      A
 Frequencies --   3133.0539              3145.3717              3175.4487
 Red. masses --      1.1069                 1.0987                 1.0912
 Frc consts  --      6.4015                 6.4041                 6.4829
 IR Inten    --     17.3242                13.3939                 2.9800

                    118                    119                    120
                      A                      A                      A
 Frequencies --   3176.1463              3177.6370              3180.3314
 Red. masses --      1.0886                 1.0872                 1.0897
 Frc consts  --      6.4702                 6.4677                 6.4940
 IR Inten    --     18.0895                25.4424                14.2092

                    121                    122                    123
                      A                      A                      A
 Frequencies --   3210.8413              3248.7129              3760.3153
 Red. masses --      1.0928                 1.0914                 1.0665
 Frc consts  --      6.6378                 6.7867                 8.8851
 IR Inten    --      8.2747                 1.8503                15.1781

 - Thermochemistry -
 -------------------
 Temperature   298.150 Kelvin.  Pressure   1.00000 Atm.
 Atom     1 has atomic number  6 and mass  12.00000

 Molecular mass:   277.16779 amu.
 Principal axes and moments of inertia in atomic units:
                           1         2         3
     Eigenvalues --  4159.486725490.882457566.11197
           X            0.99967   0.02461   0.00748
           Y           -0.02474   0.99955   0.01716
           Z           -0.00705  -0.01734   0.99982
 This molecule is an asymmetric top.
 Rotational symmetry number  1.
 Warning -- assumption of classical behavior for rotation
           may cause significant error
 Rotational temperatures (Kelvin)      0.02082     0.01577     0.01145
 Rotational constants (GHZ):           0.43389     0.32868     0.23853
 Zero-point vibrational energy     985876.5 (Joules/Mol)
                                  235.63014 (Kcal/Mol)
 Warning -- explicit consideration of  31 degrees of freedom as
           vibrations may cause significant error
 Vibrational temperatures:     46.52    52.06    63.47   101.36   120.79
          (Kelvin)            147.76   176.66   207.73   218.21   236.13
                              263.15   285.20   311.47   396.25   410.21
                              467.04   474.13   496.22   514.38   545.88
                              570.97   602.26   615.92   650.87   670.69
                              678.64   714.62   749.82   784.27   823.21
                              841.23   943.37   976.87  1023.48  1033.76
                             1089.24  1158.62  1188.98  1203.12  1203.14
                             1210.56  1309.34  1324.25  1345.23  1363.22
                             1378.64  1413.55  1426.22  1443.89  1456.06
                             1471.33  1493.18  1508.77  1538.51  1541.44
                             1562.24  1570.90  1591.02  1619.82  1658.89
                             1676.98  1731.89  1744.52  1754.87  1767.98
                             1795.16  1806.18  1825.21  1830.96  1862.54
                             1879.22  1894.34  1902.17  1934.94  1942.82
                             1955.12  1959.58  1985.22  2003.74  2033.36
                             2040.36  2046.85  2054.04  2081.16  2109.88
                             2127.68  2132.76  2163.75  2176.70  2184.30
                             2185.18  2193.29  2205.33  2207.49  2220.23
                             2235.19  2255.71  2354.98  2412.15  2485.28
                             4301.15  4329.17  4346.46  4357.50  4363.76
                             4382.08  4391.00  4419.69  4437.55  4444.77
                             4449.49  4462.84  4490.02  4504.41  4507.77
                             4525.49  4568.76  4569.77  4571.91  4575.79
                             4619.68  4674.17  5410.25

 Zero-point correction=                           0.375501 (Hartree/Particle)
 Thermal correction to Energy=                    0.394729
 Thermal correction to Enthalpy=                  0.395673
 Thermal correction to Gibbs Free Energy=         0.327773
 Sum of electronic and zero-point Energies=           -903.693343
 Sum of electronic and thermal Energies=              -903.674114
 Sum of electronic and thermal Enthalpies=            -903.673170
 Sum of electronic and thermal Free Energies=         -903.741070

                     E (Thermal)             CV                S
                      KCal/Mol        Cal/Mol-Kelvin    Cal/Mol-Kelvin
 Total                  247.696             74.736            142.907
 Electronic               0.000              0.000              0.000
 Translational            0.889              2.981             42.757
 Rotational               0.889              2.981             33.513
 Vibrational            245.919             68.775             66.638
 Vibration     1          0.594              1.983              5.681
 Vibration     2          0.594              1.982              5.458
 Vibration     3          0.595              1.980              5.065
 Vibration     4          0.598              1.968              4.141
 Vibration     5          0.601              1.960              3.796
 Vibration     6          0.605              1.947              3.402
 Vibration     7          0.610              1.930              3.056
 Vibration     8          0.616              1.909              2.745
 Vibration     9          0.619              1.901              2.651
 Vibration    10          0.623              1.887              2.502
 Vibration    11          0.630              1.863              2.299
 Vibration    12          0.637              1.842              2.150
 Vibration    13          0.645              1.816              1.988
 Vibration    14          0.677              1.719              1.562
 Vibration    15          0.683              1.701              1.503
 Vibration    16          0.709              1.626              1.287
 Vibration    17          0.712              1.616              1.262
 Vibration    18          0.723              1.586              1.189
 Vibration    19          0.733              1.560              1.133
 Vibration    20          0.749              1.514              1.042
 Vibration    21          0.763              1.477              0.974
 Vibration    22          0.781              1.430              0.897
 Vibration    23          0.790              1.409              0.865
 Vibration    24          0.811              1.356              0.789
 Vibration    25          0.824              1.325              0.748
 Vibration    26          0.829              1.313              0.733
 Vibration    27          0.852              1.257              0.666
 Vibration    28          0.876              1.203              0.607
 Vibration    29          0.900              1.150              0.554
 Vibration    30          0.928              1.091              0.500
 Vibration    31          0.942              1.064              0.477

                           ! Non-Optimized Parameters !
 Normal termination of Gaussian 16 at Sun Dec 13 21:37:05 2020.

 ----------------------------------------------------------------------
 # B3LYP/6-311++G(d,p) empiricaldispersion=gd3bj scf=xqc pop=npa geom=c
 heck
 ----------------------------------------------------------------------

 ---------------------------------------
 CID_60957909_JID_10434_Energie_neutraal
 ---------------------------------------
 Structure from the checkpoint file:  "JID_10434.chk"
 Charge =  0 Multiplicity = 1

 SCF Done:  E(RB3LYP) =  -904.326059315     A.U. after   16 cycles
 Normal termination of Gaussian 16 at Sun Dec 13 21:48:18 2020.

 ----------------------------------------------------------------------
 # B3LYP/6-311++G(d,p) empiricaldispersion=gd3bj scf=xqc pop=npa geom=c
 heck
 ----------------------------------------------------------------------

 -------------------------------------
 CID_60957909_JID_10434_Energie_kation
 -------------------------------------
 Structure from the checkpoint file:  "JID_10434.chk"
 Charge =  1 Multiplicity = 2

 SCF Done:  E(UB3LYP) =  -904.043288410     A.U. after   30 cycles
 Normal termination of Gaussian 16 at Sun Dec 13 22:16:48 2020.
 Gaussian 16:  ES64L-G16RevA.03 25-Dec-2016

 ----------------------------------------------------------------------
 # B3LYP/6-311++G(d,p) empiricaldispersion=gd3bj scf=xqc pop=npa geom=c
 heck
 ----------------------------------------------------------------------

 ------------------------------------
 CID_60957909_JID_10434_Energie_anion
 ------------------------------------
 Structure from the checkpoint file:  "JID_10434.chk"
 Charge = -1 Multiplicity = 2

                         Standard orientation:
 ---------------------------------------------------------------------
 Center     Atomic      Atomic             Coordinates (Angstroms)
 Number     Number       Type             X           Y           Z
 ---------------------------------------------------------------------
      1          6           0        3.123705    2.233342    0.939086
      2          6           0        1.689745    2.195992    0.469933
      3          6           0        1.352305    2.410005   -0.873165
      4          6           0        0.043785    2.264082   -1.323281
      5          6           0       -0.971744    1.890766   -0.433318
      6          6           0       -0.665372    1.713190    0.919370
      7          6           0        0.653166    1.869154    1.348902
      8          8           0       -2.214040    1.750396   -0.993128
      9          6           0       -3.281028    1.148402   -0.260855
     10          6           0       -3.265405   -0.382349   -0.349495
     11          6           0       -2.282197   -1.010331    0.637899
     12          8           0       -2.436617   -0.759240    1.835558
     13          7           0       -1.286693   -1.832083    0.191381
     14          6           0       -0.301044   -2.333477    1.155565
     15          6           0        1.070522   -1.704141    0.897568
     16          6           0        1.533395   -1.929324   -0.550031
     17          6           0        0.437779   -1.500105   -1.540187
     18          6           0       -0.920482   -2.119666   -1.193022
     19          6           0        2.823472   -1.175515   -0.858679
     20          8           0        3.804059   -1.501257    0.126100
     21          1           0        3.542144    1.218065    0.986721
     22          1           0        3.752749    2.822103    0.262886
     23          1           0        3.209907    2.664915    1.942238
     24          1           0        2.129324    2.682877   -1.583687
     25          1           0       -0.213608    2.421561   -2.365981
     26          1           0       -1.416035    1.397196    1.631532
     27          1           0        0.878600    1.702233    2.399644
     28          1           0       -3.290713    1.468387    0.784853
     29          1           0       -4.185156    1.527255   -0.743897
     30          1           0       -4.254833   -0.739012   -0.039473
     31          1           0       -3.126501   -0.665796   -1.393162
     32          1           0       -0.247324   -3.426554    1.049779
     33          1           0       -0.670056   -2.098126    2.152409
     34          1           0        1.807993   -2.119559    1.590752
     35          1           0        1.003929   -0.629425    1.094222
     36          1           0        1.724724   -3.005350   -0.683513
     37          1           0        0.336477   -0.408953   -1.521151
     38          1           0        0.712072   -1.786861   -2.564028
     39          1           0       -1.688274   -1.758761   -1.874555
     40          1           0       -0.872888   -3.212494   -1.307684
     41          1           0        3.174147   -1.447446   -1.867737
     42          1           0        2.613087   -0.096763   -0.856577
     43          1           0        4.616258   -1.024247   -0.099254
 ---------------------------------------------------------------------

 SCF Done:  E(UB3LYP) =  -904.315361614     A.U. after   33 cycles
 SCF Done:  E(UB3LYP) =  -904.315361614     a.u. after    1 cycles

 The electronic state is 2-A.
 Alpha  occ. eigenvalues --  -19.06482 -19.02290 -18.99523 -14.25619 -10.18520
 Alpha  occ. eigenvalues --  -10.14640 -10.14583 -10.11944 -10.11318 -10.10901
 Alpha  occ. eigenvalues --  -10.09684 -10.08961 -10.08588 -10.08522 -10.08277
 Alpha  occ. eigenvalues --  -10.08217 -10.08000 -10.07622 -10.07484 -10.06893
 Alpha  occ. eigenvalues --   -0.98014  -0.94910  -0.92243  -0.85316  -0.77070
 Alpha  occ. eigenvalues --   -0.72117  -0.70602  -0.67856  -0.66931  -0.66090
 Alpha  occ. eigenvalues --   -0.62519  -0.60147  -0.56802  -0.54742  -0.54066
 Alpha  occ. eigenvalues --   -0.52441  -0.49304  -0.48335  -0.45543  -0.44733
 Alpha  occ. eigenvalues --   -0.42645  -0.41409  -0.40130  -0.38864  -0.38579
 Alpha  occ. eigenvalues --   -0.37624  -0.37340  -0.36100  -0.35956  -0.34823
 Alpha  occ. eigenvalues --   -0.34000  -0.33415  -0.33170  -0.32817  -0.31914
 Alpha  occ. eigenvalues --   -0.31279  -0.30789  -0.29532  -0.29176  -0.28459
 Alpha  occ. eigenvalues --   -0.28290  -0.27307  -0.27110  -0.26586  -0.26176
 Alpha  occ. eigenvalues --   -0.24125  -0.23445  -0.23333  -0.22678  -0.22026
 Alpha  occ. eigenvalues --   -0.17995  -0.17041  -0.16750  -0.15568  -0.13129
 Alpha  occ. eigenvalues --    0.03950
 Alpha virt. eigenvalues --    0.05390   0.06229   0.06730   0.07282   0.07415
 Alpha virt. eigenvalues --    0.08156   0.08450   0.08567   0.09097   0.09394
 Alpha virt. eigenvalues --    0.10122   0.10427   0.10717   0.11218   0.11465

  Beta  occ. eigenvalues --  -19.06480 -19.02252 -18.99521 -14.25618 -10.18520
  Beta  occ. eigenvalues --  -10.14632 -10.14583 -10.11923 -10.11294 -10.10896
  Beta  occ. eigenvalues --  -10.09663 -10.08961 -10.08584 -10.08508 -10.08271
  Beta  occ. eigenvalues --  -10.08212 -10.07996 -10.07610 -10.07458 -10.06888
  Beta  occ. eigenvalues --   -0.98008  -0.94906  -0.92158  -0.85308  -0.77059
  Beta  occ. eigenvalues --   -0.72092  -0.70581  -0.67836  -0.66909  -0.66073
  Beta  occ. eigenvalues --   -0.62485  -0.60110  -0.56769  -0.54696  -0.54035
  Beta  occ. eigenvalues --   -0.52419  -0.49281  -0.48308  -0.45520  -0.44709
  Beta  occ. eigenvalues --   -0.42614  -0.41310  -0.40110  -0.38846  -0.38558
  Beta  occ. eigenvalues --   -0.37598  -0.37309  -0.36075  -0.35935  -0.34807
  Beta  occ. eigenvalues --   -0.33986  -0.33400  -0.33150  -0.32796  -0.31891
  Beta  occ. eigenvalues --   -0.31256  -0.30770  -0.29503  -0.29153  -0.28434
  Beta  occ. eigenvalues --   -0.28262  -0.27285  -0.27083  -0.26570  -0.26155
  Beta  occ. eigenvalues --   -0.24106  -0.23428  -0.23308  -0.22652  -0.22001
  Beta  occ. eigenvalues --   -0.17960  -0.17028  -0.16727  -0.15551  -0.13117
  Beta virt. eigenvalues --    0.06102   0.06499   0.06717   0.06806   0.07645
  Beta virt. eigenvalues --    0.07882   0.08566   0.08596   0.08962   0.09414
  Beta virt. eigenvalues --    0.09638   0.10360   0.10747   0.11026   0.11462

 Mulliken charges and spin densities:
               1          2
     1  C    1.617324  -2.343537
     2  C   -0.873675   1.369688
     3  C    0.140411  -0.335211
     4  C   -0.605250   0.225855
     5  C   -0.111042  -0.768062
     6  C    0.510047  -0.074348
     7  C   -0.932740   0.698998
     8  O   -0.003918   0.011778
     9  C   -0.403689  -0.009226
    10  C    0.772260  -0.745180
    11  C   -0.651515   0.211163
    12  O   -0.290123   0.003047
    13  N    0.126006   0.097199
    14  C   -0.517775  -0.033488
    15  C   -0.040194   0.048387
    16  C    0.297485  -0.235194
    17  C   -1.179682   0.953305
    18  C    1.111079  -1.539316
    19  C    0.245904  -0.921266
    20  O   -0.242781   0.021430
    21  H    0.315780  -0.154244
    22  H   -0.360709   0.507728
    23  H   -0.012051   0.140921
    24  H   -0.260759   0.452686
    25  H   -0.146286   0.325194
    26  H    0.175530   0.031829
    27  H    0.085409   0.105102
    28  H    0.231435  -0.057537
    29  H   -0.286725   0.480071
    30  H   -0.128802   0.318803
    31  H    0.063521   0.119608
    32  H    0.037355   0.123642
    33  H    0.166434   0.035480
    34  H    0.203042   0.019182
    35  H    0.521406  -0.184119
    36  H    0.229594  -0.051628
    37  H    1.056144  -0.795866
    38  H   -0.464181   0.659132
    39  H   -0.436921   0.572140
    40  H   -0.034557   0.213135
    41  H   -0.452600   0.615249
    42  H   -0.272345   0.426385
    43  H   -0.197845   0.461086
 Sum of Mulliken charges =  -1.00000   1.00000

 Dipole moment (field-independent basis, Debye):
    X=             -4.2447    Y=              0.8421    Z=              3.6803  Tot=              5.6808
 Quadrupole moment (field-independent basis, Debye-Ang):
   XX=           -211.5228   YY=           -167.0902   ZZ=           -165.9113
   XY=             -2.4905   XZ=              4.3823   YZ=             -2.2663

 Summary of Natural Population Analysis:

                                       Natural Population
                Natural  -----------------------------------------------
    Atom  No    Charge         Core      Valence    Rydberg      Total
 -----------------------------------------------------------------------
      C    1   -0.29462      0.99963     2.28862    0.00636     3.29462
      C    2   -0.03096      0.99950     2.02218    0.00928     3.03096
      C    3   -0.09608      0.99951     2.08665    0.00992     3.09608
      C    4   -0.12005      0.99952     2.11039    0.01014     3.12005
      C    5    0.15287      0.99936     1.83430    0.01347     2.84713
      C    6   -0.13975      0.99950     2.13308    0.00716     3.13975
      C    7   -0.09570      0.99952     2.08712    0.00906     3.09570
      O    8   -0.28013      0.99986     3.27075    0.00952     4.28013
      C    9   -0.00610      0.99955     1.99446    0.01209     3.00610
      C   10   -0.24166      0.99957     2.23328    0.00881     3.24166
      C   11    0.34546      0.99963     1.63144    0.02347     2.65454
      O   12   -0.34261      0.99988     3.33767    0.00506     4.34261
      N   13   -0.24968      0.99963     2.73855    0.01150     3.74968
      C   14   -0.08554      0.99961     2.07650    0.00944     3.08554
      C   15   -0.20028      0.99959     2.19273    0.00796     3.20028
      C   16   -0.11608      0.99959     2.10502    0.01147     3.11608
      C   17   -0.19796      0.99959     2.18932    0.00905     3.19796
      C   18   -0.07739      0.99960     2.06716    0.01063     3.07739
      C   19   -0.00624      0.99954     1.99437    0.01233     3.00624
      O   20   -0.37306      0.99989     3.36713    0.00604     4.37306
      H   21    0.10999      0.00000     0.38860    0.00141     0.39001
      H   22    0.10352      0.00000     0.39544    0.00104     0.39648
      H   23    0.10042      0.00000     0.39876    0.00082     0.39958
      H   24    0.10302      0.00000     0.39589    0.00110     0.39698
      H   25    0.10730      0.00000     0.39149    0.00120     0.39270
      H   26    0.11557      0.00000     0.38277    0.00166     0.38443
      H   27    0.10031      0.00000     0.39886    0.00083     0.39969
      H   28    0.09157      0.00000     0.40704    0.00139     0.40843
      H   29    0.09353      0.00000     0.40536    0.00111     0.40647
      H   30    0.11459      0.00000     0.38426    0.00115     0.38541
      H   31    0.10635      0.00000     0.39193    0.00172     0.39365
      H   32    0.09014      0.00000     0.40887    0.00099     0.40986
      H   33    0.11596      0.00000     0.38300    0.00104     0.38404
      H   34    0.10820      0.00000     0.39089    0.00092     0.39180
      H   35    0.10553      0.00000     0.39221    0.00226     0.39447
      H   36    0.09435      0.00000     0.40411    0.00154     0.40565
      H   37    0.10348      0.00000     0.39280    0.00371     0.39652
      H   38    0.10243      0.00000     0.39616    0.00140     0.39757
      H   39    0.10369      0.00000     0.39480    0.00151     0.39631
      H   40    0.09249      0.00000     0.40625    0.00126     0.40751
      H   41    0.07866      0.00000     0.41937    0.00197     0.42134
      H   42    0.08011      0.00000     0.41652    0.00337     0.41989
      H   43    0.23436      0.00000     0.25925    0.00639     0.26564
 =======================================================================
   * Total *    0.00000     19.99209    54.76538    0.24253    75.00000

 Normal termination of Gaussian 16 at Sun Dec 13 22:48:37 2020.
