 Gaussian 16, Revision A.03,

 -----------------------------------------------------------
 # opt freq B3LYP/6-31G(d) empiricaldispersion=gd3bj scf=xqc
 -----------------------------------------------------------

 -------------------------------
 CID_150108829_JID_1795_neutraal
 -------------------------------
 Symbolic Z-matrix:
 Charge =  0 Multiplicity = 1

 SCF Done:  E(RB3LYP) =  -980.455635834     A.U. after   16 cycles
 SCF Done:  E(RB3LYP) =  -980.460475068     A.U. after   15 cycles
 SCF Done:  E(RB3LYP) =  -980.462625166     A.U. after   15 cycles
 SCF Done:  E(RB3LYP) =  -980.463329329     A.U. after   14 cycles
 SCF Done:  E(RB3LYP) =  -980.464039585     A.U. after   16 cycles
 SCF Done:  E(RB3LYP) =  -980.464826224     A.U. after   15 cycles
 SCF Done:  E(RB3LYP) =  -980.465707448     A.U. after   15 cycles
 SCF Done:  E(RB3LYP) =  -980.466163943     A.U. after   14 cycles
 SCF Done:  E(RB3LYP) =  -980.466247609     A.U. after   14 cycles
 SCF Done:  E(RB3LYP) =  -980.466266740     A.U. after   13 cycles
 SCF Done:  E(RB3LYP) =  -980.466320850     A.U. after   13 cycles
 SCF Done:  E(RB3LYP) =  -980.466341530     A.U. after   14 cycles
 SCF Done:  E(RB3LYP) =  -980.466350713     A.U. after   13 cycles
 SCF Done:  E(RB3LYP) =  -980.466352690     A.U. after   12 cycles
 SCF Done:  E(RB3LYP) =  -980.466352908     A.U. after   10 cycles
 SCF Done:  E(RB3LYP) =  -980.466352893     A.U. after    9 cycles
 Optimization completed.
    -- Stationary point found.
 Normal termination of Gaussian 16 at Tue Dec  8 21:11:43 2020.

 --------------------------------------------------------------------
 #N Geom=AllCheck Guess=TCheck SCRF=Check GenChk RB3LYP/6-31G(d) Freq
 --------------------------------------------------------------------

 Structure from the checkpoint file:  "JID_1795.chk"
 -------------------------------
 CID_150108829_JID_1795_neutraal
 -------------------------------
 Charge =  0 Multiplicity = 1

 SCF Done:  E(RB3LYP) =  -980.466352893     A.U. after    1 cycles

  Exact polarizability: 138.015  -6.194  62.704  -7.184  -4.444  57.832
 Approx polarizability: 212.864  -5.645 100.010 -17.025 -16.346  98.199

                      1                      2                      3
                      A                      A                      A
 Frequencies --     12.3512                39.2241                44.8682
 Red. masses --     12.0629                 6.7344                 6.3346
 Frc consts  --      0.0011                 0.0061                 0.0075
 IR Inten    --      0.0373                 0.3798                 4.9372

                      4                      5                      6
                      A                      A                      A
 Frequencies --     62.4744               150.4925               190.4367
 Red. masses --      9.8444                 5.9104                 1.6718
 Frc consts  --      0.0226                 0.0789                 0.0357
 IR Inten    --      3.0118                 3.9903                86.5263

                      7                      8                      9
                      A                      A                      A
 Frequencies --    230.0616               240.7264               272.0067
 Red. masses --      8.8466                 3.1585                 3.6915
 Frc consts  --      0.2759                 0.1078                 0.1609
 IR Inten    --     11.7752                 5.4318                20.0519

                     10                     11                     12
                      A                      A                      A
 Frequencies --    308.3774               327.9598               390.6792
 Red. masses --      2.9351                 3.4857                 4.5381
 Frc consts  --      0.1645                 0.2209                 0.4081
 IR Inten    --      3.2625                 9.4579                12.4535

                     13                     14                     15
                      A                      A                      A
 Frequencies --    425.8927               455.7987               511.3021
 Red. masses --      4.7507                 8.4203                13.9734
 Frc consts  --      0.5077                 1.0307                 2.1523
 IR Inten    --     36.3900                13.3321                 8.2690

                     16                     17                     18
                      A                      A                      A
 Frequencies --    547.0887               613.5577               685.4785
 Red. masses --      8.9734                 9.1242                 6.5456
 Frc consts  --      1.5824                 2.0238                 1.8121
 IR Inten    --     68.9926                10.3708                23.9421

                     19                     20                     21
                      A                      A                      A
 Frequencies --    699.6719               800.9706               836.2045
 Red. masses --      5.0788                 5.2284                 2.2342
 Frc consts  --      1.4649                 1.9763                 0.9205
 IR Inten    --      3.9121               174.6466                17.8786

                     22                     23                     24
                      A                      A                      A
 Frequencies --    873.1629               904.2585               948.4419
 Red. masses --     10.2239                 1.9058                 1.1143
 Frc consts  --      4.5926                 0.9182                 0.5906
 IR Inten    --     29.0787                37.9152                43.4784

                     25                     26                     27
                      A                      A                      A
 Frequencies --   1088.3789              1133.0236              1165.2684
 Red. masses --      2.1396                 2.8893                 1.6644
 Frc consts  --      1.4933                 2.1854                 1.3316
 IR Inten    --     33.6919                88.1167               182.1825

                     28                     29                     30
                      A                      A                      A
 Frequencies --   1183.8561              1219.4588              1238.1903
 Red. masses --      4.1653                 1.7131                 4.6601
 Frc consts  --      3.4395                 1.5010                 4.2094
 IR Inten    --     59.8340                69.0153               108.7166

                     31                     32                     33
                      A                      A                      A
 Frequencies --   1289.5955              1334.6498              1365.9051
 Red. masses --      1.4046                 1.4517                 1.2323
 Frc consts  --      1.3763                 1.5236                 1.3546
 IR Inten    --     24.4832                 0.8109                 1.4481

                     34                     35                     36
                      A                      A                      A
 Frequencies --   1382.7379              1487.1112              1736.3018
 Red. masses --      5.8862                 1.1169                 5.7442
 Frc consts  --      6.6308                 1.4552                10.2031
 IR Inten    --    179.9589                 7.4980               245.5907

                     37                     38                     39
                      A                      A                      A
 Frequencies --   2212.1772              3092.8222              3156.2701
 Red. masses --     13.9921                 1.0609                 1.1057
 Frc consts  --     40.3434                 5.9789                 6.4899
 IR Inten    --    439.7088                 6.0436                 0.7935

                     40                     41                     42
                      A                      A                      A
 Frequencies --   3223.4540              3242.6539              3709.0338
 Red. masses --      1.0939                 1.0894                 1.0659
 Frc consts  --      6.6966                 6.7493                 8.6396
 IR Inten    --      0.4369                 9.5395                86.6119

 - Thermochemistry -
 -------------------
 Temperature   298.150 Kelvin.  Pressure   1.00000 Atm.
 Atom     1 has atomic number  6 and mass  12.00000

 Molecular mass:   179.00008 amu.
 Principal axes and moments of inertia in atomic units:
                           1         2         3
     Eigenvalues --   588.660165002.944025090.04584
           X            1.00000   0.00072  -0.00223
           Y           -0.00053   0.99616   0.08760
           Z            0.00228  -0.08760   0.99615
 This molecule is an asymmetric top.
 Rotational symmetry number  1.
 Warning -- assumption of classical behavior for rotation
           may cause significant error
 Rotational temperatures (Kelvin)      0.14714     0.01731     0.01702
 Rotational constants (GHZ):           3.06585     0.36074     0.35456
 Zero-point vibrational energy     268157.2 (Joules/Mol)
                                   64.09110 (Kcal/Mol)
 Warning -- explicit consideration of  17 degrees of freedom as
           vibrations may cause significant error
 Vibrational temperatures:     17.77    56.43    64.56    89.89   216.53
          (Kelvin)            274.00   331.01   346.35   391.36   443.69
                              471.86   562.10   612.76   655.79   735.65
                              787.14   882.77   986.25  1006.67  1152.42
                             1203.11  1256.29  1301.03  1364.60  1565.93
                             1630.17  1676.56  1703.30  1754.53  1781.48
                             1855.44  1920.26  1965.23  1989.45  2139.62
                             2498.15  3182.83  4449.88  4541.17  4637.83
                             4665.46  5336.47

 Zero-point correction=                           0.102136 (Hartree/Particle)
 Thermal correction to Energy=                    0.114001
 Thermal correction to Enthalpy=                  0.114945
 Thermal correction to Gibbs Free Energy=         0.060922
 Sum of electronic and zero-point Energies=           -980.364217
 Sum of electronic and thermal Energies=              -980.352352
 Sum of electronic and thermal Enthalpies=            -980.351408
 Sum of electronic and thermal Free Energies=         -980.405430

                     E (Thermal)             CV                S
                      KCal/Mol        Cal/Mol-Kelvin    Cal/Mol-Kelvin
 Total                   71.537             40.230            113.700
 Electronic               0.000              0.000              0.000
 Translational            0.889              2.981             41.453
 Rotational               0.889              2.981             31.084
 Vibrational             69.759             34.268             41.163
 Vibration     1          0.593              1.987              7.592
 Vibration     2          0.594              1.981              5.298
 Vibration     3          0.595              1.979              5.032
 Vibration     4          0.597              1.972              4.377
 Vibration     5          0.618              1.902              2.666
 Vibration     6          0.634              1.853              2.224
 Vibration     7          0.652              1.795              1.878
 Vibration     8          0.658              1.778              1.798
 Vibration     9          0.675              1.725              1.583
 Vibration    10          0.698              1.658              1.371
 Vibration    11          0.711              1.620              1.270
 Vibration    12          0.758              1.490              0.998
 Vibration    13          0.788              1.414              0.872
 Vibration    14          0.814              1.348              0.778
 Vibration    15          0.866              1.225              0.630
 Vibration    16          0.902              1.146              0.550
 Vibration    17          0.973              1.003              0.427

                           ! Non-Optimized Parameters !
 Normal termination of Gaussian 16 at Tue Dec  8 21:14:22 2020.

 ----------------------------------------------------------------------
 # B3LYP/6-311++G(d,p) empiricaldispersion=gd3bj scf=xqc pop=npa geom=c
 heck
 ----------------------------------------------------------------------

 ---------------------------------------
 CID_150108829_JID_1795_Energie_neutraal
 ---------------------------------------
 Structure from the checkpoint file:  "JID_1795.chk"
 Charge =  0 Multiplicity = 1

 SCF Done:  E(RB3LYP) =  -980.673436993     A.U. after   16 cycles
 Normal termination of Gaussian 16 at Tue Dec  8 21:16:13 2020.

 ----------------------------------------------------------------------
 # B3LYP/6-311++G(d,p) empiricaldispersion=gd3bj scf=xqc pop=npa geom=c
 heck
 ----------------------------------------------------------------------

 -------------------------------------
 CID_150108829_JID_1795_Energie_kation
 -------------------------------------
 Structure from the checkpoint file:  "JID_1795.chk"
 Charge =  1 Multiplicity = 2

 SCF Done:  E(UB3LYP) =  -980.336855822     A.U. after   26 cycles
 Normal termination of Gaussian 16 at Tue Dec  8 21:21:57 2020.
 Gaussian 16:  ES64L-G16RevA.03 25-Dec-2016

 ----------------------------------------------------------------------
 # B3LYP/6-311++G(d,p) empiricaldispersion=gd3bj scf=xqc pop=npa geom=c
 heck
 ----------------------------------------------------------------------

 ------------------------------------
 CID_150108829_JID_1795_Energie_anion
 ------------------------------------
 Structure from the checkpoint file:  "JID_1795.chk"
 Charge = -1 Multiplicity = 2

                         Standard orientation:
 ---------------------------------------------------------------------
 Center     Atomic      Atomic             Coordinates (Angstroms)
 Number     Number       Type             X           Y           Z
 ---------------------------------------------------------------------
      1          6           0       -1.163581    0.652228    1.087248
      2          6           0        0.248921    0.287231    0.777222
      3          6           0        0.979413    1.023784   -0.063268
      4          8           0        2.255241    0.800480   -0.490640
      5          7           0        2.744536   -0.477472   -0.016858
      6          7           0        3.992194   -0.382176    0.015869
      7          7           0        5.127835   -0.461104    0.078940
      8         16           0       -2.342983   -0.059679   -0.113182
      9          8           0       -3.690025    0.068007    0.421789
     10          8           0       -1.995833    0.404617   -1.457003
     11          8           0       -1.938790   -1.654754   -0.032384
     12          1           0       -1.357558    1.727921    1.030202
     13          1           0       -1.491941    0.291213    2.064431
     14          1           0        0.647479   -0.625980    1.201434
     15          1           0        0.621023    1.931437   -0.539742
     16          1           0       -1.416475   -1.850714   -0.832380
 ---------------------------------------------------------------------

 SCF Done:  E(UB3LYP) =  -980.704090880     A.U. after   27 cycles

 The electronic state is 2-A.
 Alpha  occ. eigenvalues --  -88.97962 -19.08673 -19.03578 -19.03491 -19.02412
 Alpha  occ. eigenvalues --  -14.23114 -14.20137 -14.15161 -10.12042 -10.10740
 Alpha  occ. eigenvalues --  -10.04562  -8.04189  -6.00602  -6.00391  -6.00137
 Alpha  occ. eigenvalues --   -1.05730  -0.96632  -0.95219  -0.92890  -0.89892
 Alpha  occ. eigenvalues --   -0.74961  -0.70743  -0.61076  -0.54867  -0.49143
 Alpha  occ. eigenvalues --   -0.45316  -0.41118  -0.40594  -0.39640  -0.36932
 Alpha  occ. eigenvalues --   -0.35387  -0.33068  -0.32479  -0.30626  -0.28159
 Alpha  occ. eigenvalues --   -0.27593  -0.26851  -0.25686  -0.25464  -0.24497
 Alpha  occ. eigenvalues --   -0.23855  -0.22993  -0.22289  -0.15670  -0.12345
 Alpha  occ. eigenvalues --   -0.05700   0.05016
 Alpha virt. eigenvalues --    0.07342   0.09093   0.10067   0.11339   0.12284
 Alpha virt. eigenvalues --    0.12906   0.14087   0.14398   0.15592   0.16044
 Alpha virt. eigenvalues --    0.16829   0.17223   0.18495   0.18714   0.19489

  Beta  occ. eigenvalues --  -88.97962 -19.08672 -19.03577 -19.03490 -19.01856
  Beta  occ. eigenvalues --  -14.22536 -14.20045 -14.14031 -10.12029 -10.10731
  Beta  occ. eigenvalues --  -10.04574  -8.04190  -6.00602  -6.00391  -6.00139
  Beta  occ. eigenvalues --   -1.05728  -0.95475  -0.95217  -0.92887  -0.88523
  Beta  occ. eigenvalues --   -0.74040  -0.70651  -0.60943  -0.54778  -0.48404
  Beta  occ. eigenvalues --   -0.45198  -0.41089  -0.40225  -0.39533  -0.36637
  Beta  occ. eigenvalues --   -0.35262  -0.32826  -0.31357  -0.29974  -0.28149
  Beta  occ. eigenvalues --   -0.27378  -0.25689  -0.24740  -0.24541  -0.23643
  Beta  occ. eigenvalues --   -0.23124  -0.22393  -0.21926  -0.13757  -0.12080
  Beta  occ. eigenvalues --   -0.05180
  Beta virt. eigenvalues --    0.07322   0.09055   0.10050   0.11389   0.12182
  Beta virt. eigenvalues --    0.12880   0.14063   0.14282   0.15225   0.15558
  Beta virt. eigenvalues --    0.16049   0.17166   0.17362   0.18467   0.18779

 Mulliken charges and spin densities:
               1          2
     1  C   -0.940647  -0.039991
     2  C    0.222744   0.013304
     3  C   -0.361448   0.022775
     4  O    0.050212   0.029966
     5  N   -0.416149   0.111903
     6  N    0.233563   0.215578
     7  N   -0.516411   0.574550
     8  S    0.389652  -0.012821
     9  O   -0.187413  -0.001024
    10  O   -0.259025   0.002509
    11  O   -0.239957   0.000234
    12  H    0.178525   0.040271
    13  H    0.178883   0.031356
    14  H    0.235586   0.003610
    15  H    0.139839   0.007908
    16  H    0.292045  -0.000127
 Sum of Mulliken charges =  -1.00000   1.00000

 Dipole moment (field-independent basis, Debye):
    X=             -9.7083    Y=              0.7309    Z=              0.9308  Tot=              9.7802
 Quadrupole moment (field-independent basis, Debye-Ang):
   XX=           -169.0296   YY=            -74.2866   ZZ=            -76.6154
   XY=              5.3160   XZ=             -1.0657   YZ=              4.1413

 Summary of Natural Population Analysis:

                                       Natural Population
                Natural  -----------------------------------------------
    Atom  No    Charge         Core      Valence    Rydberg      Total
 -----------------------------------------------------------------------
      C    1   -0.28643      0.99957     2.27433    0.01253     3.28643
      C    2   -0.21991      0.99952     2.20624    0.01415     3.21991
      C    3    0.11238      0.99943     1.87017    0.01802     2.88762
      O    4   -0.15569      0.99988     3.14530    0.01052     4.15569
      N    5   -0.11433      0.99973     2.59656    0.01803     3.61433
      N    6    0.12908      0.99972     2.35475    0.01645     3.37092
      N    7    0.10569      0.99982     2.38054    0.01395     3.39431
      S    8    1.10221      4.99942     1.79347    0.10490     6.89779
      O    9   -0.45577      0.99990     3.44993    0.00593     4.45577
      O   10   -0.45788      0.99990     3.45191    0.00606     4.45788
      O   11   -0.43995      0.99991     3.43355    0.00649     4.43995
      H   12    0.11223      0.00000     0.38591    0.00186     0.38777
      H   13    0.11421      0.00000     0.38420    0.00158     0.38579
      H   14    0.11839      0.00000     0.38055    0.00106     0.38161
      H   15    0.08539      0.00000     0.41363    0.00098     0.41461
      H   16    0.25036      0.00000     0.24691    0.00272     0.24964
 =======================================================================
   * Total *   -0.00000     14.99681    30.76796    0.23523    46.00000

 Normal termination of Gaussian 16 at Tue Dec  8 21:28:49 2020.
