 Gaussian 16, Revision A.03,

 -----------------------------------------------------------
 # opt freq B3LYP/6-31G(d) empiricaldispersion=gd3bj scf=xqc
 -----------------------------------------------------------

 ------------------------------
 CID_91103158_JID_2980_neutraal
 ------------------------------
 Symbolic Z-matrix:
 Charge =  0 Multiplicity = 1

 SCF Done:  E(RB3LYP) =  -930.860508672     A.U. after   15 cycles
 SCF Done:  E(RB3LYP) =  -930.865687211     A.U. after   13 cycles
 SCF Done:  E(RB3LYP) =  -930.867126410     A.U. after   13 cycles
 SCF Done:  E(RB3LYP) =  -930.867808079     A.U. after   12 cycles
 SCF Done:  E(RB3LYP) =  -930.868107097     A.U. after   12 cycles
 SCF Done:  E(RB3LYP) =  -930.868207121     A.U. after   12 cycles
 SCF Done:  E(RB3LYP) =  -930.868266195     A.U. after   11 cycles
 SCF Done:  E(RB3LYP) =  -930.868305137     A.U. after   11 cycles
 SCF Done:  E(RB3LYP) =  -930.868362079     A.U. after   12 cycles
 SCF Done:  E(RB3LYP) =  -930.868376763     A.U. after   11 cycles
 SCF Done:  E(RB3LYP) =  -930.868385654     A.U. after   10 cycles
 SCF Done:  E(RB3LYP) =  -930.868386743     A.U. after   10 cycles
 SCF Done:  E(RB3LYP) =  -930.868386897     A.U. after    8 cycles
 SCF Done:  E(RB3LYP) =  -930.868387139     A.U. after    7 cycles
 SCF Done:  E(RB3LYP) =  -930.868387252     A.U. after    8 cycles
 Optimization completed.
    -- Stationary point found.
 Normal termination of Gaussian 16 at Wed Dec  9 18:22:21 2020.

 --------------------------------------------------------------------
 #N Geom=AllCheck Guess=TCheck SCRF=Check GenChk RB3LYP/6-31G(d) Freq
 --------------------------------------------------------------------

 Structure from the checkpoint file:  "JID_2980.chk"
 ------------------------------
 CID_91103158_JID_2980_neutraal
 ------------------------------
 Charge =  0 Multiplicity = 1

 SCF Done:  E(RB3LYP) =  -930.868387252     A.U. after    1 cycles

  Exact polarizability: 160.549  -5.965 121.423  -0.008  -0.002  60.448
 Approx polarizability: 228.459   1.398 205.761  -0.006  -0.008  92.004

                      1                      2                      3
                      A                      A                      A
 Frequencies --     35.9799                55.3899                71.8008
 Red. masses --      4.5213                 3.1213                 1.0508
 Frc consts  --      0.0034                 0.0056                 0.0032
 IR Inten    --      1.3943                 7.2066                 0.9908

                      4                      5                      6
                      A                      A                      A
 Frequencies --     85.2047               129.1382               129.8930
 Red. masses --      2.0752                 4.4216                 2.5409
 Frc consts  --      0.0089                 0.0434                 0.0253
 IR Inten    --     14.4629                 0.4498                13.6009

                      7                      8                      9
                      A                      A                      A
 Frequencies --    160.2746               170.5832               238.2382
 Red. masses --      4.4824                 1.5246                 1.7105
 Frc consts  --      0.0678                 0.0261                 0.0572
 IR Inten    --      0.4706                 0.1586                12.4113

                     10                     11                     12
                      A                      A                      A
 Frequencies --    261.9942               270.2085               309.8191
 Red. masses --      2.6372                 4.0687                 2.6443
 Frc consts  --      0.1067                 0.1750                 0.1495
 IR Inten    --     23.8501                 0.0891                14.8791

                     13                     14                     15
                      A                      A                      A
 Frequencies --    343.5024               369.3666               400.1389
 Red. masses --      6.8930                 5.0826                 4.2233
 Frc consts  --      0.4792                 0.4086                 0.3984
 IR Inten    --      0.8673                 9.0779                10.0187

                     16                     17                     18
                      A                      A                      A
 Frequencies --    488.0309               563.1120               579.8622
 Red. masses --      5.3028                 5.8447                 5.2351
 Frc consts  --      0.7441                 1.0920                 1.0371
 IR Inten    --      3.4539                 5.1827                 4.9397

                     19                     20                     21
                      A                      A                      A
 Frequencies --    595.7899               653.1906               712.3139
 Red. masses --      7.1883                 4.7512                 3.5763
 Frc consts  --      1.5034                 1.1943                 1.0691
 IR Inten    --      2.6222                15.9884                 1.8653

                     22                     23                     24
                      A                      A                      A
 Frequencies --    719.8762               782.7690               865.8624
 Red. masses --      6.3288                 1.4838                 4.9596
 Frc consts  --      1.9324                 0.5357                 2.1908
 IR Inten    --      8.3871                23.2355                45.2101

                     25                     26                     27
                      A                      A                      A
 Frequencies --    942.7635               986.5959              1024.1406
 Red. masses --      6.4930                 4.7539                 2.1847
 Frc consts  --      3.4002                 2.7264                 1.3501
 IR Inten    --     24.1281                35.4133                35.6363

                     28                     29                     30
                      A                      A                      A
 Frequencies --   1034.2329              1065.5803              1074.7279
 Red. masses --      1.7596                 1.4151                 2.7843
 Frc consts  --      1.1089                 0.9467                 1.8948
 IR Inten    --      0.4224                 0.7105               148.8244

                     31                     32                     33
                      A                      A                      A
 Frequencies --   1110.9532              1144.9399              1186.8554
 Red. masses --      7.1223                 2.4233                 1.2636
 Frc consts  --      5.1792                 1.8716                 1.0487
 IR Inten    --    108.7367               164.7537                 0.9097

                     34                     35                     36
                      A                      A                      A
 Frequencies --   1193.7173              1223.9197              1257.4988
 Red. masses --      3.2759                 1.6722                 2.2478
 Frc consts  --      2.7503                 1.4759                 2.0942
 IR Inten    --     61.7745                 0.5696                 2.9982

                     37                     38                     39
                      A                      A                      A
 Frequencies --   1259.7403              1319.8608              1333.0812
 Red. masses --      1.0619                 4.4261                 1.6200
 Frc consts  --      0.9929                 4.5429                 1.6962
 IR Inten    --      0.7166                23.0972                42.5893

                     40                     41                     42
                      A                      A                      A
 Frequencies --   1435.2582              1478.2587              1489.3505
 Red. masses --      1.2623                 1.2580                 1.1877
 Frc consts  --      1.5320                 1.6197                 1.5522
 IR Inten    --      1.7634               108.7007                53.4162

                     43                     44                     45
                      A                      A                      A
 Frequencies --   1505.7574              1505.8306              1507.4814
 Red. masses --      1.1211                 1.0498                 1.0427
 Frc consts  --      1.4976                 1.4025                 1.3961
 IR Inten    --     15.0336                 4.5896                 9.4619

                     46                     47                     48
                      A                      A                      A
 Frequencies --   1525.2688              1535.0392              1542.3261
 Red. masses --      1.4094                 1.0594                 2.8768
 Frc consts  --      1.9318                 1.4707                 4.0320
 IR Inten    --      0.9548                19.1306                 4.0267

                     49                     50                     51
                      A                      A                      A
 Frequencies --   1593.9318              1705.5337              3023.1764
 Red. masses --      6.5222                 9.2079                 1.0574
 Frc consts  --      9.7630                15.7809                 5.6939
 IR Inten    --     27.5437                15.1849                35.3937

                     52                     53                     54
                      A                      A                      A
 Frequencies --   3042.2643              3048.9253              3059.2196
 Red. masses --      1.1051                 1.0304                 1.0370
 Frc consts  --      6.0261                 5.6433                 5.7183
 IR Inten    --     32.3187                86.4428                14.2686

                     55                     56                     57
                      A                      A                      A
 Frequencies --   3115.4045              3118.7774              3159.8722
 Red. masses --      1.1017                 1.1081                 1.1040
 Frc consts  --      6.3000                 6.3501                 6.4948
 IR Inten    --      8.9565                37.4461                17.5254

                     58                     59                     60
                      A                      A                      A
 Frequencies --   3161.5747              3336.2612              3660.7941
 Red. masses --      1.1011                 1.0941                 1.0650
 Frc consts  --      6.4847                 7.1748                 8.4091
 IR Inten    --      3.5355                 5.7789                70.8590

 - Thermochemistry -
 -------------------
 Temperature   298.150 Kelvin.  Pressure   1.00000 Atm.
 Atom     1 has atomic number  6 and mass  12.00000

 Molecular mass:   186.04630 amu.
 Principal axes and moments of inertia in atomic units:
                           1         2         3
     Eigenvalues --  1415.547403511.958824893.58962
           X            0.99883  -0.04837  -0.00001
           Y            0.04837   0.99883  -0.00001
           Z            0.00001   0.00001   1.00000
 This molecule is an asymmetric top.
 Rotational symmetry number  1.
 Warning -- assumption of classical behavior for rotation
           may cause significant error
 Rotational temperatures (Kelvin)      0.06119     0.02466     0.01770
 Rotational constants (GHZ):           1.27494     0.51388     0.36880
 Zero-point vibrational energy     446812.7 (Joules/Mol)
                                  106.79080 (Kcal/Mol)
 Warning -- explicit consideration of  19 degrees of freedom as
           vibrations may cause significant error
 Vibrational temperatures:     51.77    79.69   103.31   122.59   185.80
          (Kelvin)            186.89   230.60   245.43   342.77   376.95
                              388.77   445.76   494.22   531.44   575.71
                              702.17   810.19   834.29   857.21   939.80
                             1024.86  1035.74  1126.23  1245.78  1356.43
                             1419.49  1473.51  1488.03  1533.13  1546.29
                             1598.41  1647.31  1707.62  1717.49  1760.95
                             1809.26  1812.49  1898.99  1918.01  2065.02
                             2126.88  2142.84  2166.45  2166.55  2168.93
                             2194.52  2208.58  2219.06  2293.31  2453.88
                             4349.68  4377.14  4386.72  4401.53  4482.37
                             4487.23  4546.35  4548.80  4800.14  5267.07

 Zero-point correction=                           0.170182 (Hartree/Particle)
 Thermal correction to Energy=                    0.183344
 Thermal correction to Enthalpy=                  0.184288
 Thermal correction to Gibbs Free Energy=         0.129127
 Sum of electronic and zero-point Energies=           -930.698205
 Sum of electronic and thermal Energies=              -930.685044
 Sum of electronic and thermal Enthalpies=            -930.684099
 Sum of electronic and thermal Free Energies=         -930.739261

                     E (Thermal)             CV                S
                      KCal/Mol        Cal/Mol-Kelvin    Cal/Mol-Kelvin
 Total                  115.050             45.856            116.097
 Electronic               0.000              0.000              0.000
 Translational            0.889              2.981             41.569
 Rotational               0.889              2.981             31.565
 Vibrational            113.272             39.894             42.963
 Vibration     1          0.594              1.982              5.469
 Vibration     2          0.596              1.975              4.615
 Vibration     3          0.598              1.967              4.103
 Vibration     4          0.601              1.959              3.767
 Vibration     5          0.612              1.924              2.959
 Vibration     6          0.612              1.923              2.948
 Vibration     7          0.622              1.891              2.547
 Vibration     8          0.626              1.879              2.429
 Vibration     9          0.656              1.782              1.816
 Vibration    10          0.669              1.742              1.648
 Vibration    11          0.674              1.728              1.595
 Vibration    12          0.699              1.655              1.363
 Vibration    13          0.722              1.588              1.196
 Vibration    14          0.742              1.535              1.082
 Vibration    15          0.766              1.470              0.962
 Vibration    16          0.844              1.277              0.689
 Vibration    17          0.919              1.111              0.518
 Vibration    18          0.937              1.075              0.486
 Vibration    19          0.954              1.041              0.457

                           ! Non-Optimized Parameters !
 Normal termination of Gaussian 16 at Wed Dec  9 18:26:54 2020.

 ----------------------------------------------------------------------
 # B3LYP/6-311++G(d,p) empiricaldispersion=gd3bj scf=xqc pop=npa geom=c
 heck
 ----------------------------------------------------------------------

 --------------------------------------
 CID_91103158_JID_2980_Energie_neutraal
 --------------------------------------
 Structure from the checkpoint file:  "JID_2980.chk"
 Charge =  0 Multiplicity = 1

 SCF Done:  E(RB3LYP) =  -931.054380968     A.U. after   16 cycles
 Normal termination of Gaussian 16 at Wed Dec  9 18:28:36 2020.

 ----------------------------------------------------------------------
 # B3LYP/6-311++G(d,p) empiricaldispersion=gd3bj scf=xqc pop=npa geom=c
 heck
 ----------------------------------------------------------------------

 ------------------------------------
 CID_91103158_JID_2980_Energie_kation
 ------------------------------------
 Structure from the checkpoint file:  "JID_2980.chk"
 Charge =  1 Multiplicity = 2

 SCF Done:  E(UB3LYP) =  -930.745596689     A.U. after   25 cycles
 Normal termination of Gaussian 16 at Wed Dec  9 18:33:23 2020.
 Gaussian 16:  ES64L-G16RevA.03 25-Dec-2016

 ----------------------------------------------------------------------
 # B3LYP/6-311++G(d,p) empiricaldispersion=gd3bj scf=xqc pop=npa geom=c
 heck
 ----------------------------------------------------------------------

 -----------------------------------
 CID_91103158_JID_2980_Energie_anion
 -----------------------------------
 Structure from the checkpoint file:  "JID_2980.chk"
 Charge = -1 Multiplicity = 2

                         Standard orientation:
 ---------------------------------------------------------------------
 Center     Atomic      Atomic             Coordinates (Angstroms)
 Number     Number       Type             X           Y           Z
 ---------------------------------------------------------------------
      1          6           0       -3.802040    1.036241    0.000137
      2          6           0       -2.480087    0.335737   -0.000220
      3          7           0       -1.329552    0.933463   -0.000280
      4          6           0       -0.269599    0.034474   -0.000056
      5          6           0       -0.640350   -1.289644    0.000196
      6         16           0       -2.363147   -1.429111    0.000040
      7          6           0        1.080031    0.600594   -0.000066
      8          7           0        2.207675   -0.017925   -0.000020
      9          8           0        2.111995   -1.405177    0.000120
     10          6           0        3.426309   -1.955309   -0.000099
     11          6           0        1.208433    2.115670   -0.000319
     12          8           0        2.543878    2.560622    0.000579
     13          1           0       -4.395246    0.771551   -0.882240
     14          1           0       -4.390783    0.778630    0.887632
     15          1           0       -3.623904    2.113685   -0.004473
     16          1           0        0.000174   -2.154699    0.000272
     17          1           0        3.977203   -1.648240   -0.895888
     18          1           0        3.978257   -1.646320    0.894358
     19          1           0        3.288433   -3.038785    0.001122
     20          1           0        0.674652    2.505598   -0.879190
     21          1           0        0.673638    2.506201    0.877610
     22          1           0        3.097885    1.759258   -0.000766
 ---------------------------------------------------------------------

 SCF Done:  E(UB3LYP) =  -931.053529722     A.U. after   33 cycles
 SCF Done:  E(UB3LYP) =  -931.053529722     a.u. after    1 cycles

 The electronic state is 2-A.
 Alpha  occ. eigenvalues --  -88.71399 -19.02207 -18.97629 -14.18527 -14.16088
 Alpha  occ. eigenvalues --  -10.09850 -10.07843 -10.07470 -10.05535 -10.04769
 Alpha  occ. eigenvalues --  -10.03694 -10.01110  -7.80077  -5.76354  -5.76010
 Alpha  occ. eigenvalues --   -5.75717  -0.94676  -0.88415  -0.80773  -0.72536
 Alpha  occ. eigenvalues --   -0.63757  -0.63472  -0.58542  -0.54903  -0.53384
 Alpha  occ. eigenvalues --   -0.44815  -0.42296  -0.39700  -0.36684  -0.35613
 Alpha  occ. eigenvalues --   -0.34217  -0.31791  -0.31592  -0.30951  -0.30424
 Alpha  occ. eigenvalues --   -0.28519  -0.27779  -0.25332  -0.24726  -0.23267
 Alpha  occ. eigenvalues --   -0.22846  -0.22466  -0.18682  -0.14840  -0.13183
 Alpha  occ. eigenvalues --   -0.13132  -0.12705  -0.12022  -0.08038   0.06061
 Alpha virt. eigenvalues --    0.08366   0.08490   0.11063   0.11108   0.11570
 Alpha virt. eigenvalues --    0.12274   0.12278   0.13334   0.13769   0.14080
 Alpha virt. eigenvalues --    0.14775   0.14799   0.15734   0.16229   0.16877

  Beta  occ. eigenvalues --  -88.71339 -19.02137 -18.97623 -14.18143 -14.16154
  Beta  occ. eigenvalues --  -10.09848 -10.07683 -10.07483 -10.05545 -10.04597
  Beta  occ. eigenvalues --  -10.03673 -10.00444  -7.80023  -5.76332  -5.75991
  Beta  occ. eigenvalues --   -5.75504  -0.94406  -0.88402  -0.80636  -0.72108
  Beta  occ. eigenvalues --   -0.63501  -0.62912  -0.58364  -0.54621  -0.53238
  Beta  occ. eigenvalues --   -0.44077  -0.41994  -0.39484  -0.36495  -0.35429
  Beta  occ. eigenvalues --   -0.33919  -0.31706  -0.31332  -0.30758  -0.30214
  Beta  occ. eigenvalues --   -0.28365  -0.27726  -0.25211  -0.23957  -0.22948
  Beta  occ. eigenvalues --   -0.22533  -0.21645  -0.18482  -0.14331  -0.12862
  Beta  occ. eigenvalues --   -0.12598  -0.12248  -0.10934  -0.05899
  Beta virt. eigenvalues --    0.08308   0.08461   0.11047   0.11155   0.11540
  Beta virt. eigenvalues --    0.11745   0.12180   0.13301   0.13557   0.13998
  Beta virt. eigenvalues --    0.14601   0.14709   0.15137   0.15742   0.16109

 Mulliken charges and spin densities:
               1          2
     1  C   -0.076121  -0.010624
     2  C    0.618868   0.091516
     3  N    0.099799  -0.032249
     4  C   -1.386228  -0.031583
     5  C    0.848948   0.521739
     6  S   -0.855855   0.127649
     7  C   -0.207566   0.049060
     8  N   -0.608969   0.191348
     9  O    0.140204   0.000781
    10  C   -0.219939  -0.024859
    11  C   -0.622963  -0.010427
    12  O   -0.320256   0.000335
    13  H    0.090040   0.051476
    14  H    0.092098   0.049622
    15  H    0.139856  -0.000006
    16  H    0.318307  -0.026015
    17  H    0.105770   0.021213
    18  H    0.106330   0.020664
    19  H    0.112703  -0.000298
    20  H    0.166095   0.006929
    21  H    0.166179   0.006897
    22  H    0.292701  -0.003168
 Sum of Mulliken charges =  -1.00000   1.00000

 Dipole moment (field-independent basis, Debye):
    X=             -0.0789    Y=             -1.8143    Z=              0.0043  Tot=              1.8160
 Quadrupole moment (field-independent basis, Debye-Ang):
   XX=           -107.9622   YY=            -99.3177   ZZ=            -87.9603
   XY=            -14.1087   XZ=             -0.0293   YZ=             -0.0095

 Summary of Natural Population Analysis:

                                       Natural Population
                Natural  -----------------------------------------------
    Atom  No    Charge         Core      Valence    Rydberg      Total
 -----------------------------------------------------------------------
      C    1   -0.30436      0.99961     2.29948    0.00527     3.30436
      C    2    0.04609      0.99964     1.93756    0.01670     2.95391
      N    3   -0.26009      0.99963     2.74922    0.01123     3.76009
      C    4    0.00911      0.99947     1.97740    0.01403     2.99089
      C    5   -0.05115      0.99950     2.04168    0.00997     3.05115
      S    6    0.17204      4.99944     2.80770    0.02082     7.82796
      C    7    0.12450      0.99957     1.86099    0.01494     2.87550
      N    8   -0.08696      0.99955     2.57028    0.01712     3.58696
      O    9   -0.22079      0.99989     3.20541    0.01549     4.22079
      C   10   -0.09070      0.99963     2.08262    0.00845     3.09070
      C   11   -0.01431      0.99958     2.00322    0.01151     3.01431
      O   12   -0.38559      0.99990     3.37824    0.00746     4.38559
      H   13    0.10063      0.00000     0.39851    0.00086     0.39937
      H   14    0.10060      0.00000     0.39854    0.00086     0.39940
      H   15    0.10712      0.00000     0.39197    0.00091     0.39288
      H   16    0.10715      0.00000     0.39085    0.00200     0.39285
      H   17    0.07784      0.00000     0.42005    0.00211     0.42216
      H   18    0.07786      0.00000     0.42002    0.00211     0.42214
      H   19    0.08145      0.00000     0.41782    0.00074     0.41855
      H   20    0.08522      0.00000     0.41334    0.00144     0.41478
      H   21    0.08527      0.00000     0.41328    0.00144     0.41473
      H   22    0.23908      0.00000     0.25792    0.00300     0.26092
 =======================================================================
   * Total *   -0.00000     15.99542    32.83611    0.16847    49.00000

 Normal termination of Gaussian 16 at Wed Dec  9 18:38:00 2020.
