 Gaussian 16, Revision A.03,

 -----------------------------------------------------------
 # opt freq B3LYP/6-31G(d) empiricaldispersion=gd3bj scf=xqc
 -----------------------------------------------------------

 ------------------------------
 CID_81722614_JID_9935_neutraal
 ------------------------------
 Symbolic Z-matrix:
 Charge =  0 Multiplicity = 1

 SCF Done:  E(RB3LYP) =  -1186.49889497     A.U. after   15 cycles
 SCF Done:  E(RB3LYP) =  -1186.50674715     A.U. after   13 cycles
 SCF Done:  E(RB3LYP) =  -1186.50742610     A.U. after   13 cycles
 SCF Done:  E(RB3LYP) =  -1186.50822985     A.U. after   12 cycles
 SCF Done:  E(RB3LYP) =  -1186.50871025     A.U. after   12 cycles
 SCF Done:  E(RB3LYP) =  -1186.50941433     A.U. after   13 cycles
 SCF Done:  E(RB3LYP) =  -1186.51002286     A.U. after   13 cycles
 SCF Done:  E(RB3LYP) =  -1186.51058843     A.U. after   14 cycles
 SCF Done:  E(RB3LYP) =  -1186.51082618     A.U. after   13 cycles
 SCF Done:  E(RB3LYP) =  -1186.51106212     A.U. after   13 cycles
 SCF Done:  E(RB3LYP) =  -1186.51197394     A.U. after   10 cycles
 SCF Done:  E(RB3LYP) =  -1186.51197321     A.U. after   11 cycles
 SCF Done:  E(RB3LYP) =  -1186.51197473     A.U. after   11 cycles
 SCF Done:  E(RB3LYP) =  -1186.51197486     A.U. after    8 cycles
 SCF Done:  E(RB3LYP) =  -1186.51197491     A.U. after    7 cycles
 SCF Done:  E(RB3LYP) =  -1186.51197493     A.U. after    7 cycles
 Optimization completed.
    -- Stationary point found.
 Normal termination of Gaussian 16 at Sat Dec 12 10:34:13 2020.

 --------------------------------------------------------------------
 #N Geom=AllCheck Guess=TCheck SCRF=Check GenChk RB3LYP/6-31G(d) Freq
 --------------------------------------------------------------------

 Structure from the checkpoint file:  "JID_9935.chk"
 ------------------------------
 CID_81722614_JID_9935_neutraal
 ------------------------------
 Charge =  0 Multiplicity = 1

 SCF Done:  E(RB3LYP) =  -1186.51197493     A.U. after    1 cycles

  Exact polarizability: 250.628  -1.825 168.418   9.316   4.716 131.212
 Approx polarizability: 313.133 -13.030 303.545  26.248  11.644 204.426

                      1                      2                      3
                      A                      A                      A
 Frequencies --     24.4231                32.5052                37.5935
 Red. masses --      4.6078                 4.5143                 5.7061
 Frc consts  --      0.0016                 0.0028                 0.0048
 IR Inten    --      0.8269                 0.7628                 1.1003

                      4                      5                      6
                      A                      A                      A
 Frequencies --     57.5891                71.4279                90.0604
 Red. masses --      4.7925                 3.9682                 4.5190
 Frc consts  --      0.0094                 0.0119                 0.0216
 IR Inten    --      1.8294                 2.2255                 0.7408

                      7                      8                      9
                      A                      A                      A
 Frequencies --    117.3729               164.0336               184.2720
 Red. masses --      3.4982                 3.7616                 2.7626
 Frc consts  --      0.0284                 0.0596                 0.0553
 IR Inten    --      0.0254                 2.0642                 1.4357

                     10                     11                     12
                      A                      A                      A
 Frequencies --    196.8513               224.0531               250.0857
 Red. masses --      2.8351                 3.1709                 3.0290
 Frc consts  --      0.0647                 0.0938                 0.1116
 IR Inten    --      0.1241                 0.5425                 0.1376

                     13                     14                     15
                      A                      A                      A
 Frequencies --    296.2388               328.1797               343.6457
 Red. masses --      3.5049                 3.0039                 2.6134
 Frc consts  --      0.1812                 0.1906                 0.1818
 IR Inten    --      0.7764                 4.7039                 0.1457

                     16                     17                     18
                      A                      A                      A
 Frequencies --    352.0543               387.5500               406.9963
 Red. masses --      3.4014                 3.3706                 3.7015
 Frc consts  --      0.2484                 0.2983                 0.3613
 IR Inten    --     12.3233                 0.2748                 2.5596

                     19                     20                     21
                      A                      A                      A
 Frequencies --    425.8108               431.4013               452.7833
 Red. masses --      3.0545                 3.0089                 5.1635
 Frc consts  --      0.3263                 0.3299                 0.6237
 IR Inten    --      5.8016                 5.6696                10.1380

                     22                     23                     24
                      A                      A                      A
 Frequencies --    481.1680               497.9685               510.7815
 Red. masses --      3.0037                 2.9269                 3.0570
 Frc consts  --      0.4097                 0.4276                 0.4699
 IR Inten    --      1.8944                 5.0628                 3.1289

                     25                     26                     27
                      A                      A                      A
 Frequencies --    548.0410               585.1870               607.8770
 Red. masses --      4.7996                 3.1959                 3.3594
 Frc consts  --      0.8493                 0.6448                 0.7314
 IR Inten    --      5.8356                 1.6019                 3.4756

                     28                     29                     30
                      A                      A                      A
 Frequencies --    648.0093               658.7351               688.4022
 Red. masses --      5.3425                 4.0380                 2.9712
 Frc consts  --      1.3218                 1.0324                 0.8296
 IR Inten    --      2.2106                 3.9628                 2.9498

                     31                     32                     33
                      A                      A                      A
 Frequencies --    715.9802               756.2381               760.6744
 Red. masses --      2.9634                 7.3233                 2.2615
 Frc consts  --      0.8950                 2.4676                 0.7710
 IR Inten    --      7.3344                19.9481                 4.0463

                     34                     35                     36
                      A                      A                      A
 Frequencies --    790.5270               801.9939               823.2772
 Red. masses --      1.4912                 3.0836                 1.8493
 Frc consts  --      0.5491                 1.1686                 0.7385
 IR Inten    --      2.1182                 0.5487                 4.2705

                     37                     38                     39
                      A                      A                      A
 Frequencies --    853.2724               884.8992               897.2070
 Red. masses --      2.0837                 1.8672                 2.3475
 Frc consts  --      0.8938                 0.8615                 1.1134
 IR Inten    --      1.2244                 3.5996                 2.8383

                     40                     41                     42
                      A                      A                      A
 Frequencies --    909.8598               923.8409               941.1667
 Red. masses --      2.3582                 2.3235                 1.9814
 Frc consts  --      1.1502                 1.1684                 1.0341
 IR Inten    --      5.7279                11.7336                 4.1023

                     43                     44                     45
                      A                      A                      A
 Frequencies --    946.6179               987.5394               993.3872
 Red. masses --      2.2502                 2.0244                 2.3787
 Frc consts  --      1.1880                 1.1632                 1.3830
 IR Inten    --      1.5544                 9.1643                46.4907

                     46                     47                     48
                      A                      A                      A
 Frequencies --   1025.2713              1041.0532              1056.0195
 Red. masses --      2.0365                 2.1188                 1.9460
 Frc consts  --      1.2613                 1.3530                 1.2786
 IR Inten    --      1.9259                20.6389                 2.1651

                     49                     50                     51
                      A                      A                      A
 Frequencies --   1075.7209              1099.6479              1109.7451
 Red. masses --      2.2494                 2.0596                 2.3138
 Frc consts  --      1.5336                 1.4674                 1.6789
 IR Inten    --     18.1505                 5.6695                 1.0382

                     52                     53                     54
                      A                      A                      A
 Frequencies --   1139.5782              1160.6707              1179.6897
 Red. masses --      2.0416                 2.1938                 2.1215
 Frc consts  --      1.5621                 1.7412                 1.7395
 IR Inten    --     14.5700                23.7469                19.2761

                     55                     56                     57
                      A                      A                      A
 Frequencies --   1196.9847              1208.0902              1211.5598
 Red. masses --      1.5053                 1.5120                 1.7173
 Frc consts  --      1.2707                 1.3002                 1.4852
 IR Inten    --      6.3530                44.6812                 5.6225

                     58                     59                     60
                      A                      A                      A
 Frequencies --   1232.6995              1244.5826              1251.3195
 Red. masses --      2.9130                 1.3757                 2.0066
 Frc consts  --      2.6080                 1.2555                 1.8512
 IR Inten    --      6.8665                 6.7649               270.9285

                     61                     62                     63
                      A                      A                      A
 Frequencies --   1269.2414              1289.4072              1291.8996
 Red. masses --      1.2788                 1.7551                 1.2915
 Frc consts  --      1.2138                 1.7192                 1.2700
 IR Inten    --      1.6806                88.5893                 1.6737

                     64                     65                     66
                      A                      A                      A
 Frequencies --   1306.9484              1321.9122              1352.4577
 Red. masses --      1.2964                 1.1455                 1.4784
 Frc consts  --      1.3046                 1.1794                 1.5932
 IR Inten    --      8.0469                12.0019                11.3231

                     67                     68                     69
                      A                      A                      A
 Frequencies --   1357.7751              1369.1841              1369.3917
 Red. masses --      1.6887                 1.4040                 1.4084
 Frc consts  --      1.8342                 1.5508                 1.5561
 IR Inten    --     35.3030                 2.6752                 2.5944

                     70                     71                     72
                      A                      A                      A
 Frequencies --   1388.6840              1395.7008              1406.9525
 Red. masses --      1.3347                 1.5114                 1.4421
 Frc consts  --      1.5165                 1.7347                 1.6819
 IR Inten    --      1.9442                 4.7239                14.2451

                     73                     74                     75
                      A                      A                      A
 Frequencies --   1410.4225              1412.8807              1432.2156
 Red. masses --      1.3455                 1.3994                 2.1965
 Frc consts  --      1.5769                 1.6458                 2.6546
 IR Inten    --      9.3858                 7.5777                41.4824

                     76                     77                     78
                      A                      A                      A
 Frequencies --   1448.1085              1470.4445              1489.0283
 Red. masses --      2.3745                 1.1371                 1.0867
 Frc consts  --      2.9337                 1.4486                 1.4196
 IR Inten    --    155.8062                40.9836                 4.6717

                     79                     80                     81
                      A                      A                      A
 Frequencies --   1505.0724              1512.5078              1513.9905
 Red. masses --      1.5254                 1.0820                 1.4082
 Frc consts  --      2.0359                 1.4584                 1.9017
 IR Inten    --     18.2524                 1.6024                47.7624

                     82                     83                     84
                      A                      A                      A
 Frequencies --   1517.6813              1522.3498              1525.8417
 Red. masses --      1.1213                 1.1564                 1.4822
 Frc consts  --      1.5218                 1.5790                 2.0332
 IR Inten    --     21.6627                 7.6298                59.0683

                     85                     86                     87
                      A                      A                      A
 Frequencies --   1533.7476              1543.6781              1622.0003
 Red. masses --      1.1130                 1.0853                 5.9507
 Frc consts  --      1.5426                 1.5237                 9.2240
 IR Inten    --      9.3652                 3.7537                12.6027

                     88                     89                     90
                      A                      A                      A
 Frequencies --   1729.7413              1832.8547              3014.1054
 Red. masses --     11.8544                11.4624                 1.0703
 Frc consts  --     20.8974                22.6873                 5.7291
 IR Inten    --    198.7385               210.3064                 1.7305

                     91                     92                     93
                      A                      A                      A
 Frequencies --   3022.2732              3023.6395              3040.0012
 Red. masses --      1.0718                 1.0614                 1.0648
 Frc consts  --      5.7678                 5.7174                 5.7978
 IR Inten    --     39.8235                26.2657                16.7381

                     94                     95                     96
                      A                      A                      A
 Frequencies --   3042.3589              3043.5045              3049.1486
 Red. masses --      1.0705                 1.0732                 1.0766
 Frc consts  --      5.8378                 5.8570                 5.8972
 IR Inten    --     19.4443                34.1685                 6.6258

                     97                     98                     99
                      A                      A                      A
 Frequencies --   3052.1302              3052.2451              3057.6020
 Red. masses --      1.0616                 1.0707                 1.0737
 Frc consts  --      5.8265                 5.8771                 5.9140
 IR Inten    --     23.4554                36.2224                46.4572

                    100                    101                    102
                      A                      A                      A
 Frequencies --   3076.9948              3086.1354              3090.4084
 Red. masses --      1.0979                 1.1003                 1.1002
 Frc consts  --      6.1242                 6.1742                 6.1907
 IR Inten    --     14.6785                58.4306                49.9585

                    103                    104                    105
                      A                      A                      A
 Frequencies --   3093.8199              3098.6080              3121.5520
 Red. masses --      1.1039                 1.1036                 1.0928
 Frc consts  --      6.2257                 6.2430                 6.2736
 IR Inten    --     41.2341                60.4436                15.7703

                    106                    107                    108
                      A                      A                      A
 Frequencies --   3181.1157              3191.8643              3227.6932
 Red. masses --      1.0909                 1.0915                 1.0927
 Frc consts  --      6.5041                 6.5518                 6.7074
 IR Inten    --      5.5341                 1.6524                 0.8006

 - Thermochemistry -
 -------------------
 Temperature   298.150 Kelvin.  Pressure   1.00000 Atm.
 Atom     1 has atomic number  6 and mass  12.00000

 Molecular mass:   277.11365 amu.
 Principal axes and moments of inertia in atomic units:
                           1         2         3
     Eigenvalues --  1809.91501********************
           X            0.99994   0.01063  -0.00316
           Y           -0.01060   0.99990   0.00981
           Z            0.00326  -0.00977   0.99995
 This molecule is an asymmetric top.
 Rotational symmetry number  1.
 Warning -- assumption of classical behavior for rotation
           may cause significant error
 Rotational temperatures (Kelvin)      0.04786     0.00744     0.00709
 Rotational constants (GHZ):           0.99714     0.15494     0.14772
 Zero-point vibrational energy     843532.0 (Joules/Mol)
                                  201.60898 (Kcal/Mol)
 Warning -- explicit consideration of  27 degrees of freedom as
           vibrations may cause significant error
 Vibrational temperatures:     35.14    46.77    54.09    82.86   102.77
          (Kelvin)            129.58   168.87   236.01   265.13   283.23
                              322.36   359.82   426.22   472.18   494.43
                              506.53   557.60   585.58   612.65   620.69
                              651.45   692.29   716.47   734.90   788.51
                              841.95   874.60   932.34   947.77   990.46
                             1030.14  1088.06  1094.44  1137.39  1153.89
                             1184.51  1227.67  1273.17  1290.88  1309.09
                             1329.20  1354.13  1361.97  1420.85  1429.26
                             1475.14  1497.84  1519.38  1547.72  1582.15
                             1596.68  1639.60  1669.95  1697.31  1722.19
                             1738.17  1743.16  1773.58  1790.68  1800.37
                             1826.16  1855.17  1858.76  1880.41  1901.94
                             1945.89  1953.54  1969.95  1970.25  1998.01
                             2008.10  2024.29  2029.28  2032.82  2060.64
                             2083.51  2115.64  2142.38  2165.46  2176.16
                             2178.29  2183.60  2190.32  2195.35  2206.72
                             2221.01  2333.70  2488.71  2637.07  4336.63
                             4348.38  4350.34  4373.88  4377.28  4378.92
                             4387.04  4391.33  4391.50  4399.21  4427.11
                             4440.26  4446.41  4451.32  4458.21  4491.22
                             4576.92  4592.38  4643.93

 Zero-point correction=                           0.321284 (Hartree/Particle)
 Thermal correction to Energy=                    0.338635
 Thermal correction to Enthalpy=                  0.339579
 Thermal correction to Gibbs Free Energy=         0.274080
 Sum of electronic and zero-point Energies=          -1186.190691
 Sum of electronic and thermal Energies=             -1186.173340
 Sum of electronic and thermal Enthalpies=           -1186.172396
 Sum of electronic and thermal Free Energies=        -1186.237895

                     E (Thermal)             CV                S
                      KCal/Mol        Cal/Mol-Kelvin    Cal/Mol-Kelvin
 Total                  212.496             67.012            137.853
 Electronic               0.000              0.000              0.000
 Translational            0.889              2.981             42.756
 Rotational               0.889              2.981             33.909
 Vibrational            210.719             61.050             61.188
 Vibration     1          0.593              1.985              6.238
 Vibration     2          0.594              1.983              5.670
 Vibration     3          0.594              1.982              5.382
 Vibration     4          0.596              1.974              4.538
 Vibration     5          0.598              1.968              4.114
 Vibration     6          0.602              1.956              3.659
 Vibration     7          0.608              1.935              3.143
 Vibration     8          0.623              1.887              2.503
 Vibration     9          0.631              1.861              2.285
 Vibration    10          0.636              1.844              2.162
 Vibration    11          0.649              1.804              1.926
 Vibration    12          0.663              1.763              1.730
 Vibration    13          0.690              1.681              1.438
 Vibration    14          0.711              1.619              1.269
 Vibration    15          0.722              1.588              1.195
 Vibration    16          0.729              1.571              1.157
 Vibration    17          0.756              1.497              1.010
 Vibration    18          0.772              1.455              0.937
 Vibration    19          0.788              1.414              0.872
 Vibration    20          0.792              1.402              0.854
 Vibration    21          0.811              1.355              0.787
 Vibration    22          0.837              1.292              0.707
 Vibration    23          0.853              1.255              0.663
 Vibration    24          0.866              1.226              0.632
 Vibration    25          0.903              1.144              0.548
 Vibration    26          0.942              1.063              0.476
 Vibration    27          0.967              1.015              0.436

 Optimization completed.
    -- Stationary point found.
 Normal termination of Gaussian 16 at Sat Dec 12 10:53:50 2020.

 ----------------------------------------------------------------------
 # B3LYP/6-311++G(d,p) empiricaldispersion=gd3bj scf=xqc pop=npa geom=c
 heck
 ----------------------------------------------------------------------

 --------------------------------------
 CID_81722614_JID_9935_Energie_neutraal
 --------------------------------------
 Structure from the checkpoint file:  "JID_9935.chk"
 Charge =  0 Multiplicity = 1

 SCF Done:  E(RB3LYP) =  -1186.75178220     A.U. after   16 cycles
 Normal termination of Gaussian 16 at Sat Dec 12 11:04:11 2020.

 ----------------------------------------------------------------------
 # B3LYP/6-311++G(d,p) empiricaldispersion=gd3bj scf=xqc pop=npa geom=c
 heck
 ----------------------------------------------------------------------

 ------------------------------------
 CID_81722614_JID_9935_Energie_kation
 ------------------------------------
 Structure from the checkpoint file:  "JID_9935.chk"
 Charge =  1 Multiplicity = 2

 SCF Done:  E(UB3LYP) =  -1186.46411210     A.U. after   29 cycles
 Normal termination of Gaussian 16 at Sat Dec 12 11:30:50 2020.
 Gaussian 16:  ES64L-G16RevA.03 25-Dec-2016

 ----------------------------------------------------------------------
 # B3LYP/6-311++G(d,p) empiricaldispersion=gd3bj scf=xqc pop=npa geom=c
 heck
 ----------------------------------------------------------------------

 -----------------------------------
 CID_81722614_JID_9935_Energie_anion
 -----------------------------------
 Structure from the checkpoint file:  "JID_9935.chk"
 Charge = -1 Multiplicity = 2

                         Standard orientation:
 ---------------------------------------------------------------------
 Center     Atomic      Atomic             Coordinates (Angstroms)
 Number     Number       Type             X           Y           Z
 ---------------------------------------------------------------------
      1          6           0        5.013924    0.519299   -0.584397
      2          6           0        4.785118    1.037122    0.846774
      3          6           0        3.343245    1.528178    1.088322
      4          6           0        2.231529    0.675827    0.514347
      5          6           0        2.341016   -0.631854    0.093947
      6          6           0        3.556999   -1.514993    0.107363
      7          6           0        4.715620   -0.984526   -0.762687
      8         16           0        0.826783   -1.233404   -0.525048
      9          6           0        0.022425    0.287282   -0.205939
     10          6           0        0.913303    1.187866    0.321811
     11          6           0       -1.360511    0.645616   -0.609474
     12          8           0       -1.611604    1.797987   -0.950552
     13          7           0       -2.321387   -0.357311   -0.647995
     14          6           0       -2.391157   -1.423167    0.357243
     15          6           0       -3.221722   -0.968418    1.562695
     16          6           0       -4.633850   -0.533888    1.138299
     17          6           0       -4.639659    0.383064   -0.077518
     18          8           0       -5.434120    1.289859   -0.210584
     19          6           0       -3.632347    0.028605   -1.174732
     20          1           0        6.049863    0.704892   -0.890777
     21          1           0        4.385530    1.100389   -1.270346
     22          1           0        5.052819    0.260721    1.573980
     23          1           0        5.457708    1.877932    1.051124
     24          1           0        3.244313    2.528012    0.644322
     25          1           0        3.179349    1.669224    2.166283
     26          1           0        3.292650   -2.525318   -0.223337
     27          1           0        3.899216   -1.621805    1.144130
     28          1           0        4.496438   -1.184670   -1.818086
     29          1           0        5.609017   -1.570903   -0.512002
     30          1           0        0.619440    2.207189    0.547035
     31          1           0       -1.387103   -1.698160    0.672602
     32          1           0       -2.843078   -2.306583   -0.113358
     33          1           0       -2.702178   -0.129747    2.042658
     34          1           0       -3.281072   -1.777327    2.300867
     35          1           0       -5.184721   -0.045929    1.947118
     36          1           0       -5.209019   -1.427494    0.847322
     37          1           0       -4.037014   -0.825027   -1.739487
     38          1           0       -3.518781    0.881394   -1.840560
 ---------------------------------------------------------------------

 SCF Done:  E(UB3LYP) =  -1186.75610172     A.U. after   32 cycles

 The electronic state is 2-A.
 Alpha  occ. eigenvalues --  -88.74970 -19.00580 -18.95918 -14.22532 -10.14896
 Alpha  occ. eigenvalues --  -10.14336 -10.10300 -10.09738 -10.08015 -10.07923
 Alpha  occ. eigenvalues --  -10.07828 -10.07784 -10.07763 -10.07697 -10.07578
 Alpha  occ. eigenvalues --  -10.07550 -10.06889 -10.06147 -10.04666  -7.83623
 Alpha  occ. eigenvalues --   -5.79915  -5.79555  -5.79218  -0.93987  -0.91512
 Alpha  occ. eigenvalues --   -0.82593  -0.76723  -0.71708  -0.69543  -0.67510
 Alpha  occ. eigenvalues --   -0.65084  -0.63371  -0.60781  -0.58942  -0.55817
 Alpha  occ. eigenvalues --   -0.53274  -0.52527  -0.48853  -0.46583  -0.44121
 Alpha  occ. eigenvalues --   -0.42586  -0.40735  -0.38307  -0.37836  -0.37492
 Alpha  occ. eigenvalues --   -0.37164  -0.36052  -0.34792  -0.34373  -0.33824
 Alpha  occ. eigenvalues --   -0.32140  -0.32023  -0.31027  -0.30901  -0.30419
 Alpha  occ. eigenvalues --   -0.28686  -0.28452  -0.28249  -0.26775  -0.26339
 Alpha  occ. eigenvalues --   -0.25856  -0.25499  -0.24516  -0.24372  -0.24172
 Alpha  occ. eigenvalues --   -0.23463  -0.22588  -0.22000  -0.21355  -0.16818
 Alpha  occ. eigenvalues --   -0.14311  -0.13142  -0.11890  -0.10976   0.03605
 Alpha virt. eigenvalues --    0.05544   0.06246   0.07537   0.07615   0.07998
 Alpha virt. eigenvalues --    0.08699   0.08767   0.09541   0.10042   0.10443
 Alpha virt. eigenvalues --    0.10651   0.10786   0.11377   0.11805   0.12593

  Beta  occ. eigenvalues --  -88.74939 -19.00493 -18.95748 -14.22535 -10.14797
  Beta  occ. eigenvalues --  -10.14183 -10.10287 -10.09744 -10.08015 -10.07912
  Beta  occ. eigenvalues --  -10.07822 -10.07791 -10.07757 -10.07559 -10.07539
  Beta  occ. eigenvalues --  -10.07474 -10.06767 -10.06201 -10.04530  -7.83594
  Beta  occ. eigenvalues --   -5.79901  -5.79543  -5.79119  -0.93814  -0.91219
  Beta  occ. eigenvalues --   -0.82498  -0.76523  -0.71639  -0.69481  -0.67432
  Beta  occ. eigenvalues --   -0.64935  -0.63230  -0.60562  -0.58799  -0.55710
  Beta  occ. eigenvalues --   -0.53180  -0.52461  -0.48581  -0.46499  -0.43916
  Beta  occ. eigenvalues --   -0.42466  -0.40579  -0.38191  -0.37767  -0.37440
  Beta  occ. eigenvalues --   -0.37078  -0.35901  -0.34644  -0.34241  -0.33788
  Beta  occ. eigenvalues --   -0.31995  -0.31930  -0.30925  -0.30822  -0.30313
  Beta  occ. eigenvalues --   -0.28539  -0.28267  -0.27773  -0.26602  -0.26101
  Beta  occ. eigenvalues --   -0.25789  -0.25262  -0.24450  -0.24225  -0.23949
  Beta  occ. eigenvalues --   -0.23329  -0.22542  -0.21677  -0.21223  -0.16600
  Beta  occ. eigenvalues --   -0.14036  -0.12598  -0.11610  -0.10049
  Beta virt. eigenvalues --    0.05912   0.06333   0.07388   0.07723   0.08222
  Beta virt. eigenvalues --    0.08460   0.08797   0.09216   0.09613   0.10066
  Beta virt. eigenvalues --    0.10475   0.10684   0.10790   0.11422   0.11814

 Mulliken charges and spin densities:
               1          2
     1  C   -0.205572   0.009614
     2  C   -0.067521  -0.094010
     3  C   -0.851560  -0.114498
     4  C    0.080822   0.100778
     5  C    0.161460   0.311086
     6  C   -0.278458  -0.149853
     7  C   -0.123740  -0.303260
     8  S   -0.072541  -0.290314
     9  C    0.205278   0.049211
    10  C    0.059612   0.172528
    11  C   -0.151870   0.053445
    12  O   -0.350603   0.066171
    13  N    0.208370   0.011993
    14  C   -0.141805  -0.068679
    15  C   -0.027161  -0.255846
    16  C    0.063471  -0.449714
    17  C    0.090991   0.076143
    18  O   -0.306614   0.041901
    19  C   -0.295757  -0.116632
    20  H    0.046249   0.112445
    21  H    0.126896  -0.016208
    22  H    0.097477   0.035368
    23  H    0.103453   0.057082
    24  H    0.146230  -0.008675
    25  H    0.128967   0.033138
    26  H    0.000963   0.149691
    27  H   -0.007147   0.183879
    28  H    0.130758   0.015678
    29  H   -0.107436   0.235908
    30  H    0.180795   0.000002
    31  H   -0.140106   0.215052
    32  H   -0.003160   0.175472
    33  H    0.182053  -0.042297
    34  H   -0.178289   0.356469
    35  H    0.129134   0.044986
    36  H   -0.084465   0.249596
    37  H    0.004841   0.165658
    38  H    0.245984  -0.013309
 Sum of Mulliken charges =  -1.00000   1.00000

 Dipole moment (field-independent basis, Debye):
    X=              4.5647    Y=             -1.1214    Z=              0.9825  Tot=              4.8020
 Quadrupole moment (field-independent basis, Debye-Ang):
   XX=           -212.9750   YY=           -153.8780   ZZ=           -137.9808
   XY=             15.6821   XZ=             -2.8494   YZ=              7.2680

 Summary of Natural Population Analysis:

                                       Natural Population
                Natural  -----------------------------------------------
    Atom  No    Charge         Core      Valence    Rydberg      Total
 -----------------------------------------------------------------------
      C    1   -0.19521      0.99964     2.18646    0.00911     3.19521
      C    2   -0.19140      0.99964     2.18338    0.00838     3.19140
      C    3   -0.18819      0.99960     2.18118    0.00741     3.18819
      C    4   -0.06609      0.99942     2.05627    0.01041     3.06609
      C    5   -0.05631      0.99943     2.04495    0.01194     3.05631
      C    6   -0.20946      0.99958     2.19944    0.01043     3.20946
      C    7   -0.18110      0.99963     2.17270    0.00878     3.18110
      S    8    0.21076      4.99939     2.77027    0.01958     7.78924
      C    9   -0.13085      0.99943     2.11928    0.01214     3.13085
      C   10   -0.07073      0.99945     2.06120    0.01008     3.07073
      C   11    0.34970      0.99955     1.62845    0.02229     2.65030
      O   12   -0.30340      0.99988     3.29885    0.00466     4.30340
      N   13   -0.26431      0.99967     2.75466    0.00997     3.76431
      C   14   -0.08710      0.99960     2.07658    0.01091     3.08710
      C   15   -0.19614      0.99963     2.18835    0.00817     3.19614
      C   16   -0.23964      0.99959     2.23102    0.00903     3.23964
      C   17    0.30319      0.99967     1.67561    0.02154     2.69681
      O   18   -0.27839      0.99987     3.27150    0.00702     4.27839
      C   19   -0.13574      0.99957     2.12402    0.01215     3.13574
      H   20    0.09625      0.00000     0.40292    0.00082     0.40375
      H   21    0.09840      0.00000     0.40056    0.00104     0.40160
      H   22    0.09430      0.00000     0.40447    0.00123     0.40570
      H   23    0.09575      0.00000     0.40345    0.00080     0.40425
      H   24    0.09684      0.00000     0.40188    0.00129     0.40316
      H   25    0.09927      0.00000     0.39961    0.00112     0.40073
      H   26    0.10481      0.00000     0.39428    0.00091     0.39519
      H   27    0.10358      0.00000     0.39485    0.00156     0.39642
      H   28    0.09582      0.00000     0.40322    0.00096     0.40418
      H   29    0.09294      0.00000     0.40565    0.00141     0.40706
      H   30    0.10692      0.00000     0.39193    0.00116     0.39308
      H   31    0.11226      0.00000     0.38613    0.00161     0.38774
      H   32    0.09056      0.00000     0.40819    0.00125     0.40944
      H   33    0.09963      0.00000     0.39922    0.00115     0.40037
      H   34    0.10013      0.00000     0.39850    0.00138     0.39987
      H   35    0.10772      0.00000     0.39126    0.00102     0.39228
      H   36    0.10931      0.00000     0.38877    0.00192     0.39069
      H   37    0.10153      0.00000     0.39725    0.00123     0.39847
      H   38    0.12441      0.00000     0.37426    0.00134     0.37559
 =======================================================================
   * Total *   -0.00000     22.99223    50.77058    0.23720    74.00000

 Normal termination of Gaussian 16 at Sat Dec 12 11:59:10 2020.
