 Gaussian 16, Revision A.03,

 -----------------------------------------------------------
 # opt freq B3LYP/6-31G(d) empiricaldispersion=gd3bj scf=xqc
 -----------------------------------------------------------

 -----------------------------
 CID_85443196_JID_608_neutraal
 -----------------------------
 Symbolic Z-matrix:
 Charge =  0 Multiplicity = 1

 SCF Done:  E(RB3LYP) =  -483.312210307     A.U. after   15 cycles
 SCF Done:  E(RB3LYP) =  -483.321811202     A.U. after   14 cycles
 SCF Done:  E(RB3LYP) =  -483.323558645     A.U. after   13 cycles
 SCF Done:  E(RB3LYP) =  -483.324183105     A.U. after   12 cycles
 SCF Done:  E(RB3LYP) =  -483.324221431     A.U. after   13 cycles
 SCF Done:  E(RB3LYP) =  -483.324547506     A.U. after   12 cycles
 SCF Done:  E(RB3LYP) =  -483.324556483     A.U. after   11 cycles
 SCF Done:  E(RB3LYP) =  -483.324569774     A.U. after   11 cycles
 SCF Done:  E(RB3LYP) =  -483.324571989     A.U. after    9 cycles
 SCF Done:  E(RB3LYP) =  -483.324572683     A.U. after    8 cycles
 Optimization completed.
    -- Stationary point found.
 Normal termination of Gaussian 16 at Tue Dec  8 12:17:23 2020.

 --------------------------------------------------------------------
 #N Geom=AllCheck Guess=TCheck SCRF=Check GenChk RB3LYP/6-31G(d) Freq
 --------------------------------------------------------------------

 Structure from the checkpoint file:  "JID_608.chk"
 -----------------------------
 CID_85443196_JID_608_neutraal
 -----------------------------
 Charge =  0 Multiplicity = 1

 SCF Done:  E(RB3LYP) =  -483.324572683     A.U. after    1 cycles

  Exact polarizability: 138.860  -1.220  70.100  -0.001  -0.000  30.756
 Approx polarizability: 221.745 -12.477 117.756  -0.000  -0.001  46.857

                      1                      2                      3
                      A                      A                      A
 Frequencies --     63.5335               116.3902               135.7713
 Red. masses --      7.9448                 8.8360                10.2071
 Frc consts  --      0.0189                 0.0705                 0.1109
 IR Inten    --      0.2447                 4.3812                 5.9987

                      4                      5                      6
                      A                      A                      A
 Frequencies --    240.4290               246.1075               354.1157
 Red. masses --      7.9946                 3.8882                 6.8121
 Frc consts  --      0.2723                 0.1388                 0.5033
 IR Inten    --     13.5822                 0.2328                 3.3214

                      7                      8                      9
                      A                      A                      A
 Frequencies --    497.6296               505.4659               537.4710
 Red. masses --      5.4063                 6.9663                 7.4821
 Frc consts  --      0.7888                 1.0487                 1.2734
 IR Inten    --      1.1514                12.4595                 3.0840

                     10                     11                     12
                      A                      A                      A
 Frequencies --    579.4751               669.6838               695.2348
 Red. masses --      1.4291                 7.5035                 2.7721
 Frc consts  --      0.2827                 1.9827                 0.7894
 IR Inten    --     62.9807                 1.5219                51.1005

                     13                     14                     15
                      A                      A                      A
 Frequencies --    741.7665               767.5402               787.3651
 Red. masses --      1.9774                 9.5048                 2.0530
 Frc consts  --      0.6410                 3.2991                 0.7499
 IR Inten    --     24.9648                11.3292                79.6131

                     16                     17                     18
                      A                      A                      A
 Frequencies --    890.6588               966.5975               986.3923
 Red. masses --      1.3590                 1.3417                 6.5168
 Frc consts  --      0.6352                 0.7386                 3.7358
 IR Inten    --      9.7066                10.2644                34.8098

                     19                     20                     21
                      A                      A                      A
 Frequencies --   1059.2852              1126.0595              1133.4474
 Red. masses --      4.4713                 4.2009                 4.1008
 Frc consts  --      2.9560                 3.1384                 3.1040
 IR Inten    --     28.8704                 5.1773                47.1736

                     22                     23                     24
                      A                      A                      A
 Frequencies --   1219.1699              1273.7860              1302.3024
 Red. masses --      2.1978                 3.0820                 2.1210
 Frc consts  --      1.9247                 2.9463                 2.1194
 IR Inten    --      9.2978               166.3478                13.5911

                     25                     26                     27
                      A                      A                      A
 Frequencies --   1326.3839              1377.5880              1431.7920
 Red. masses --      3.6421                 1.9437                 2.0317
 Frc consts  --      3.7752                 2.1733                 2.4540
 IR Inten    --     33.5579                50.8663                 9.8196

                     28                     29                     30
                      A                      A                      A
 Frequencies --   1480.8733              1540.5443              1587.9585
 Red. masses --      2.3354                 2.9869                 3.9750
 Frc consts  --      3.0175                 4.1766                 5.9057
 IR Inten    --     55.7811                11.8410                77.4852

                     31                     32                     33
                      A                      A                      A
 Frequencies --   1722.7036              2366.6265              3201.6251
 Red. masses --      4.3941                12.5207                 1.0931
 Frc consts  --      7.6832                41.3178                 6.6015
 IR Inten    --    750.6661               200.1746                34.8312

                     34                     35                     36
                      A                      A                      A
 Frequencies --   3235.0765              3286.0892              3659.1914
 Red. masses --      1.0803                 1.0979                 1.0822
 Frc consts  --      6.6615                 6.9850                 8.5377
 IR Inten    --    304.3151                 1.1568               111.7197

 - Thermochemistry -
 -------------------
 Temperature   298.150 Kelvin.  Pressure   1.00000 Atm.
 Atom     1 has atomic number  6 and mass  12.00000

 Molecular mass:   136.04974 amu.
 Principal axes and moments of inertia in atomic units:
                           1         2         3
     Eigenvalues --   393.229942550.638412943.86833
           X            0.99998   0.00657  -0.00000
           Y           -0.00657   0.99998  -0.00000
           Z            0.00000   0.00000   1.00000
 This molecule is an asymmetric top.
 Rotational symmetry number  1.
 Rotational temperatures (Kelvin)      0.22026     0.03396     0.02942
 Rotational constants (GHZ):           4.58953     0.70756     0.61305
 Zero-point vibrational energy     257867.8 (Joules/Mol)
                                   61.63188 (Kcal/Mol)
 Warning -- explicit consideration of  10 degrees of freedom as
           vibrations may cause significant error
 Vibrational temperatures:     91.41   167.46   195.34   345.92   354.09
          (Kelvin)            509.49   715.98   727.25   773.30   833.74
                              963.53  1000.29  1067.24  1104.32  1132.84
                             1281.46  1390.72  1419.20  1524.08  1620.15
                             1630.78  1754.11  1832.69  1873.72  1908.37
                             1982.04  2060.03  2130.65  2216.50  2284.72
                             2478.59  3405.05  4606.42  4654.55  4727.95
                             5264.76

 Zero-point correction=                           0.098217 (Hartree/Particle)
 Thermal correction to Energy=                    0.106189
 Thermal correction to Enthalpy=                  0.107133
 Thermal correction to Gibbs Free Energy=         0.064543
 Sum of electronic and zero-point Energies=           -483.226356
 Sum of electronic and thermal Energies=              -483.218384
 Sum of electronic and thermal Enthalpies=            -483.217440
 Sum of electronic and thermal Free Energies=         -483.260030

                     E (Thermal)             CV                S
                      KCal/Mol        Cal/Mol-Kelvin    Cal/Mol-Kelvin
 Total                   66.634             28.724             89.638
 Electronic               0.000              0.000              0.000
 Translational            0.889              2.981             40.636
 Rotational               0.889              2.981             29.469
 Vibrational             64.857             22.762             19.533
 Vibration     1          0.597              1.972              4.344
 Vibration     2          0.608              1.936              3.159
 Vibration     3          0.614              1.918              2.863
 Vibration     4          0.658              1.779              1.800
 Vibration     5          0.661              1.769              1.758
 Vibration     6          0.730              1.567              1.148
 Vibration     7          0.853              1.255              0.664
 Vibration     8          0.861              1.238              0.645
 Vibration     9          0.892              1.167              0.571
 Vibration    10          0.936              1.076              0.486

 Optimization completed.
    -- Stationary point found.
 Normal termination of Gaussian 16 at Tue Dec  8 12:21:07 2020.

 ----------------------------------------------------------------------
 # B3LYP/6-311++G(d,p) empiricaldispersion=gd3bj scf=xqc pop=npa geom=c
 heck
 ----------------------------------------------------------------------

 -------------------------------------
 CID_85443196_JID_608_Energie_neutraal
 -------------------------------------
 Structure from the checkpoint file:  "JID_608.chk"
 Charge =  0 Multiplicity = 1

 SCF Done:  E(RB3LYP) =  -483.462277046     A.U. after   14 cycles
 Normal termination of Gaussian 16 at Tue Dec  8 12:23:36 2020.

 ----------------------------------------------------------------------
 # B3LYP/6-311++G(d,p) empiricaldispersion=gd3bj scf=xqc pop=npa geom=c
 heck
 ----------------------------------------------------------------------

 -----------------------------------
 CID_85443196_JID_608_Energie_kation
 -----------------------------------
 Structure from the checkpoint file:  "JID_608.chk"
 Charge =  1 Multiplicity = 2

 SCF Done:  E(UB3LYP) =  -483.122794291     A.U. after   20 cycles
 Normal termination of Gaussian 16 at Tue Dec  8 12:25:06 2020.
 Gaussian 16:  ES64L-G16RevA.03 25-Dec-2016

 ----------------------------------------------------------------------
 # B3LYP/6-311++G(d,p) empiricaldispersion=gd3bj scf=xqc pop=npa geom=c
 heck
 ----------------------------------------------------------------------

 ----------------------------------
 CID_85443196_JID_608_Energie_anion
 ----------------------------------
 Structure from the checkpoint file:  "JID_608.chk"
 Charge = -1 Multiplicity = 2

                         Standard orientation:
 ---------------------------------------------------------------------
 Center     Atomic      Atomic             Coordinates (Angstroms)
 Number     Number       Type             X           Y           Z
 ---------------------------------------------------------------------
      1          6           0       -2.163441   -1.338381   -0.000105
      2          7           0       -3.089482   -0.391133   -0.000028
      3          7           0       -2.338271    0.738443    0.000113
      4          6           0       -1.017136    0.447621   -0.000030
      5          7           0       -0.878596   -0.886785   -0.000030
      6          7           0       -0.069426    1.441258   -0.000082
      7          6           0        1.179331    1.127932   -0.000105
      8          7           0        1.690282   -0.153533    0.000285
      9          6           0        3.006104   -0.411591   -0.000069
     10          7           0        4.149286   -0.637120   -0.000056
     11          1           0       -2.421569   -2.387854   -0.000106
     12          1           0       -2.769376    1.651991    0.000241
     13          1           0        1.925567    1.919018   -0.000194
     14          1           0        0.989683   -0.914544    0.000503
 ---------------------------------------------------------------------

 SCF Done:  E(UB3LYP) =  -483.472171083     A.U. after   19 cycles

 The electronic state is 2-A.
 Alpha  occ. eigenvalues --  -14.22569 -14.21812 -14.18794 -14.16348 -14.15189
 Alpha  occ. eigenvalues --  -14.13617 -10.09866 -10.09638 -10.07961 -10.05828
 Alpha  occ. eigenvalues --   -0.92774  -0.84135  -0.77499  -0.74587  -0.73558
 Alpha  occ. eigenvalues --   -0.66665  -0.52633  -0.48888  -0.47171  -0.45829
 Alpha  occ. eigenvalues --   -0.40004  -0.35197  -0.32448  -0.30581  -0.28788
 Alpha  occ. eigenvalues --   -0.28457  -0.23460  -0.21176  -0.20677  -0.18844
 Alpha  occ. eigenvalues --   -0.15976  -0.14792  -0.14760  -0.12481  -0.09043
 Alpha  occ. eigenvalues --    0.05794
 Alpha virt. eigenvalues --    0.09822   0.10750   0.11424   0.13368   0.14722
 Alpha virt. eigenvalues --    0.15484   0.16073   0.16343   0.16629   0.18378
 Alpha virt. eigenvalues --    0.18554   0.19268   0.19441   0.20125   0.21536

  Beta  occ. eigenvalues --  -14.22268 -14.21760 -14.18625 -14.16244 -14.15031
  Beta  occ. eigenvalues --  -14.13540 -10.09627 -10.09589 -10.08034 -10.05009
  Beta  occ. eigenvalues --   -0.92405  -0.83634  -0.77075  -0.74275  -0.73181
  Beta  occ. eigenvalues --   -0.66236  -0.51553  -0.48783  -0.46739  -0.45631
  Beta  occ. eigenvalues --   -0.39721  -0.34909  -0.31310  -0.30499  -0.28296
  Beta  occ. eigenvalues --   -0.27282  -0.23256  -0.20542  -0.19511  -0.18578
  Beta  occ. eigenvalues --   -0.14824  -0.14576  -0.13562  -0.12281  -0.07566
  Beta virt. eigenvalues --    0.09820   0.10749   0.11422   0.13282   0.13347
  Beta virt. eigenvalues --    0.15165   0.15474   0.16390   0.16521   0.16639
  Beta virt. eigenvalues --    0.18532   0.18695   0.19198   0.19445   0.20248

 Mulliken charges and spin densities:
               1          2
     1  C   -0.016111  -0.043793
     2  N   -0.246484   0.086917
     3  N   -0.143623   0.106017
     4  C   -0.161842   0.139467
     5  N   -0.401038   0.076403
     6  N   -0.252241  -0.016784
     7  C   -0.247981   0.640987
     8  N   -0.161187  -0.016809
     9  C    0.066554   0.024628
    10  N   -0.405448   0.061158
    11  H    0.131269   0.002595
    12  H    0.281734  -0.006604
    13  H    0.152276  -0.049993
    14  H    0.404122  -0.004190
 Sum of Mulliken charges =  -1.00000   1.00000

 Dipole moment (field-independent basis, Debye):
    X=             -3.8801    Y=             -0.0316    Z=              0.0009  Tot=              3.8802
 Quadrupole moment (field-independent basis, Debye-Ang):
   XX=           -112.9956   YY=            -64.1640   ZZ=            -63.8483
   XY=              0.6515   XZ=             -0.0000   YZ=             -0.0002

 Summary of Natural Population Analysis:

                                       Natural Population
                Natural  -----------------------------------------------
    Atom  No    Charge         Core      Valence    Rydberg      Total
 -----------------------------------------------------------------------
      C    1    0.06628      0.99973     1.91308    0.02090     2.93372
      N    2   -0.16202      0.99974     2.64819    0.01409     3.66202
      N    3   -0.15130      0.99965     2.63875    0.01290     3.65130
      C    4    0.30358      0.99963     1.68018    0.01660     2.69642
      N    5   -0.30763      0.99967     2.79719    0.01078     3.80763
      N    6   -0.29240      0.99966     2.78330    0.00945     3.79240
      C    7    0.30451      0.99966     1.67336    0.02247     2.69549
      N    8   -0.34254      0.99962     2.83434    0.00859     3.84254
      C    9    0.24025      0.99966     1.74338    0.01672     2.75975
      N   10   -0.22676      0.99978     2.71801    0.00897     3.72676
      H   11    0.08217      0.00000     0.41675    0.00108     0.41783
      H   12    0.19087      0.00000     0.30708    0.00205     0.30913
      H   13    0.06601      0.00000     0.43297    0.00102     0.43399
      H   14    0.22899      0.00000     0.26908    0.00193     0.27101
 =======================================================================
   * Total *    0.00000      9.99680    24.85565    0.14755    35.00000

 Normal termination of Gaussian 16 at Tue Dec  8 12:26:38 2020.
