 Gaussian 16, Revision A.03,

 -----------------------------------------------------------
 # opt freq B3LYP/6-31G(d) empiricaldispersion=gd3bj scf=xqc
 -----------------------------------------------------------

 -------------------------------
 CID_136822415_JID_5274_neutraal
 -------------------------------
 Symbolic Z-matrix:
 Charge =  0 Multiplicity = 1

 SCF Done:  E(RB3LYP) =  -687.581616213     A.U. after   15 cycles
 SCF Done:  E(RB3LYP) =  -687.585588233     A.U. after   12 cycles
 SCF Done:  E(RB3LYP) =  -687.586067309     A.U. after   12 cycles
 SCF Done:  E(RB3LYP) =  -687.586194564     A.U. after   11 cycles
 SCF Done:  E(RB3LYP) =  -687.586301041     A.U. after   12 cycles
 SCF Done:  E(RB3LYP) =  -687.586374266     A.U. after   11 cycles
 SCF Done:  E(RB3LYP) =  -687.586441797     A.U. after   11 cycles
 SCF Done:  E(RB3LYP) =  -687.586515651     A.U. after   11 cycles
 SCF Done:  E(RB3LYP) =  -687.586559669     A.U. after   11 cycles
 SCF Done:  E(RB3LYP) =  -687.586567345     A.U. after   10 cycles
 SCF Done:  E(RB3LYP) =  -687.586569554     A.U. after    8 cycles
 SCF Done:  E(RB3LYP) =  -687.586570165     A.U. after    9 cycles
 SCF Done:  E(RB3LYP) =  -687.586570302     A.U. after    8 cycles
 SCF Done:  E(RB3LYP) =  -687.586570362     A.U. after    7 cycles
 Optimization completed.
    -- Stationary point found.
 Normal termination of Gaussian 16 at Thu Dec 10 15:19:50 2020.

 --------------------------------------------------------------------
 #N Geom=AllCheck Guess=TCheck SCRF=Check GenChk RB3LYP/6-31G(d) Freq
 --------------------------------------------------------------------

 Structure from the checkpoint file:  "JID_5274.chk"
 -------------------------------
 CID_136822415_JID_5274_neutraal
 -------------------------------
 Charge =  0 Multiplicity = 1

 SCF Done:  E(RB3LYP) =  -687.586570362     A.U. after    1 cycles

  Exact polarizability: 195.660   0.734 143.824   0.682   6.081  73.981
 Approx polarizability: 286.542  -3.992 226.119   1.738  15.022 111.292

                      1                      2                      3
                      A                      A                      A
 Frequencies --     31.1262                60.8223                73.1623
 Red. masses --      3.6252                 3.9381                 3.8951
 Frc consts  --      0.0021                 0.0086                 0.0123
 IR Inten    --      0.1636                 2.5247                 0.8946

                      4                      5                      6
                      A                      A                      A
 Frequencies --     88.5340               129.7608               164.5416
 Red. masses --      4.2066                 3.0065                 2.1587
 Frc consts  --      0.0194                 0.0298                 0.0344
 IR Inten    --      0.3734                 0.1342                 4.0153

                      7                      8                      9
                      A                      A                      A
 Frequencies --    189.1740               195.5513               247.9883
 Red. masses --      3.5287                 1.4186                 2.1810
 Frc consts  --      0.0744                 0.0320                 0.0790
 IR Inten    --      2.1251                 2.2654                 1.7164

                     10                     11                     12
                      A                      A                      A
 Frequencies --    263.6402               314.3742               324.9620
 Red. masses --      4.0539                 5.3527                 4.4825
 Frc consts  --      0.1660                 0.3117                 0.2789
 IR Inten    --      0.2408                 2.2426                 5.0853

                     13                     14                     15
                      A                      A                      A
 Frequencies --    355.1513               401.2209               448.3968
 Red. masses --      4.7205                 4.1661                 3.0613
 Frc consts  --      0.3508                 0.3951                 0.3626
 IR Inten    --      2.9613                 7.1760                10.2112

                     16                     17                     18
                      A                      A                      A
 Frequencies --    474.1266               493.8738               540.4656
 Red. masses --      3.0122                 1.2213                 5.2600
 Frc consts  --      0.3990                 0.1755                 0.9053
 IR Inten    --      8.2605                91.6571                 1.7221

                     19                     20                     21
                      A                      A                      A
 Frequencies --    562.9893               579.9535               611.0681
 Red. masses --      4.1500                 2.4193                 2.5947
 Frc consts  --      0.7750                 0.4794                 0.5708
 IR Inten    --      8.2796                54.2214                36.9293

                     22                     23                     24
                      A                      A                      A
 Frequencies --    656.6531               690.6512               716.9775
 Red. masses --      5.5002                 4.3108                 3.8430
 Frc consts  --      1.3973                 1.2115                 1.1640
 IR Inten    --      8.1630                 8.9209                 4.7508

                     25                     26                     27
                      A                      A                      A
 Frequencies --    778.0205               802.4776               833.4473
 Red. masses --      2.8418                 1.9689                 1.6892
 Frc consts  --      1.0135                 0.7470                 0.6913
 IR Inten    --     51.4964                22.0994                 5.8315

                     28                     29                     30
                      A                      A                      A
 Frequencies --    847.7545               863.1914               873.4370
 Red. masses --      1.4000                 4.1587                 1.6887
 Frc consts  --      0.5928                 1.8257                 0.7591
 IR Inten    --     11.9866                 2.1217                 2.7314

                     31                     32                     33
                      A                      A                      A
 Frequencies --    883.9836               915.7996               939.5913
 Red. masses --      1.4771                 2.8746                 3.0794
 Frc consts  --      0.6800                 1.4205                 1.6017
 IR Inten    --     17.7443                 3.3485                 3.0161

                     34                     35                     36
                      A                      A                      A
 Frequencies --    961.6727               989.3389              1022.2799
 Red. masses --      1.2834                 2.9089                 4.6447
 Frc consts  --      0.6993                 1.6775                 2.8599
 IR Inten    --      0.3114                14.1931                53.6332

                     37                     38                     39
                      A                      A                      A
 Frequencies --   1058.9483              1073.1989              1111.9895
 Red. masses --      2.8080                 3.7103                 2.2737
 Frc consts  --      1.8552                 2.5178                 1.6565
 IR Inten    --      1.4052                41.9711                 8.9823

                     40                     41                     42
                      A                      A                      A
 Frequencies --   1121.4296              1124.9522              1153.7321
 Red. masses --      1.8752                 1.9867                 1.5461
 Frc consts  --      1.3895                 1.4813                 1.2125
 IR Inten    --     12.7501                13.4019                54.6218

                     43                     44                     45
                      A                      A                      A
 Frequencies --   1200.0519              1214.2034              1229.3464
 Red. masses --      1.7048                 1.1459                 2.0774
 Frc consts  --      1.4465                 0.9954                 1.8497
 IR Inten    --     13.1188                 8.1974               143.6141

                     46                     47                     48
                      A                      A                      A
 Frequencies --   1253.7418              1263.0218              1303.2227
 Red. masses --      1.1656                 1.6119                 2.0954
 Frc consts  --      1.0795                 1.5150                 2.0968
 IR Inten    --     19.2448               174.3555                53.5465

                     49                     50                     51
                      A                      A                      A
 Frequencies --   1324.4757              1329.6948              1332.9987
 Red. masses --      1.4057                 1.7194                 2.3846
 Frc consts  --      1.4529                 1.7911                 2.4965
 IR Inten    --     13.0269                82.1289                73.1317

                     52                     53                     54
                      A                      A                      A
 Frequencies --   1342.0845              1371.2114              1410.6150
 Red. masses --      1.2654                 1.7191                 1.4883
 Frc consts  --      1.3429                 1.9044                 1.7448
 IR Inten    --      9.7169               173.0171                24.1610

                     55                     56                     57
                      A                      A                      A
 Frequencies --   1436.8810              1446.5380              1473.2287
 Red. masses --      1.5028                 1.4713                 2.4189
 Frc consts  --      1.8281                 1.8140                 3.0933
 IR Inten    --     55.8405                34.3999                97.4146

                     58                     59                     60
                      A                      A                      A
 Frequencies --   1479.6257              1515.8229              1527.1012
 Red. masses --      3.1534                 1.0470                 1.1049
 Frc consts  --      4.0676                 1.4175                 1.5182
 IR Inten    --     25.6264                 3.4319                 8.1657

                     61                     62                     63
                      A                      A                      A
 Frequencies --   1530.7308              1547.1004              1553.1686
 Red. masses --      1.0535                 1.0915                 1.1135
 Frc consts  --      1.4544                 1.5392                 1.5826
 IR Inten    --      2.4995                 5.1569                 1.2365

                     64                     65                     66
                      A                      A                      A
 Frequencies --   1570.6595              1655.7497              1668.4756
 Red. masses --      3.5304                 5.7549                 6.4063
 Frc consts  --      5.1315                 9.2955                10.5074
 IR Inten    --    213.8959                88.6256                41.5363

                     67                     68                     69
                      A                      A                      A
 Frequencies --   1699.9656              3020.2983              3034.9810
 Red. masses --      8.1783                 1.0723                 1.0684
 Frc consts  --     13.9250                 5.7631                 5.7980
 IR Inten    --     95.1547                63.6039                64.3849

                     70                     71                     72
                      A                      A                      A
 Frequencies --   3055.1309              3063.1717              3089.5774
 Red. masses --      1.0670                 1.0360                 1.0932
 Frc consts  --      5.8678                 5.7271                 6.1480
 IR Inten    --     35.8559                13.3690                53.5332

                     73                     74                     75
                      A                      A                      A
 Frequencies --   3104.6176              3117.4802              3132.8997
 Red. masses --      1.0986                 1.0993                 1.1016
 Frc consts  --      6.2387                 6.2944                 6.3702
 IR Inten    --     51.1534                11.7819                26.1845

                     76                     77                     78
                      A                      A                      A
 Frequencies --   3147.0696              3215.1569              3227.9820
 Red. masses --      1.1033                 1.0893                 1.0891
 Frc consts  --      6.4384                 6.6345                 6.6865
 IR Inten    --     42.4909                 7.1168                 5.5019

                     79                     80                     81
                      A                      A                      A
 Frequencies --   3235.9718              3559.7779              3690.3128
 Red. masses --      1.0935                 1.0760                 1.0645
 Frc consts  --      6.7464                 8.0339                 8.5409
 IR Inten    --      1.6421                 3.3886               101.2399

 - Thermochemistry -
 -------------------
 Temperature   298.150 Kelvin.  Pressure   1.00000 Atm.
 Atom     1 has atomic number  6 and mass  12.00000

 Molecular mass:   206.10553 amu.
 Principal axes and moments of inertia in atomic units:
                           1         2         3
     Eigenvalues --  1796.263794949.869096525.58144
           X            0.99989  -0.01497   0.00034
           Y            0.01498   0.99987  -0.00602
           Z           -0.00025   0.00602   0.99998
 This molecule is an asymmetric top.
 Rotational symmetry number  1.
 Warning -- assumption of classical behavior for rotation
           may cause significant error
 Rotational temperatures (Kelvin)      0.04822     0.01750     0.01327
 Rotational constants (GHZ):           1.00472     0.36460     0.27656
 Zero-point vibrational energy     636081.7 (Joules/Mol)
                                  152.02717 (Kcal/Mol)
 Warning -- explicit consideration of  21 degrees of freedom as
           vibrations may cause significant error
 Vibrational temperatures:     44.78    87.51   105.26   127.38   186.70
          (Kelvin)            236.74   272.18   281.35   356.80   379.32
                              452.31   467.55   510.98   577.27   645.14
                              682.16   710.57   777.61   810.02   834.42
                              879.19   944.78   993.69  1031.57  1119.40
                             1154.59  1199.14  1219.73  1241.94  1256.68
                             1271.86  1317.63  1351.86  1383.63  1423.44
                             1470.83  1523.59  1544.09  1599.90  1613.49
                             1618.56  1659.96  1726.61  1746.97  1768.76
                             1803.85  1817.21  1875.05  1905.63  1913.13
                             1917.89  1930.96  1972.87  2029.56  2067.35
                             2081.25  2119.65  2128.85  2180.93  2197.16
                             2202.38  2225.93  2234.66  2259.83  2382.25
                             2400.56  2445.87  4345.54  4366.66  4395.65
                             4407.22  4445.21  4466.85  4485.36  4507.54
                             4527.93  4625.89  4644.35  4655.84  5121.73
                             5309.54

 Zero-point correction=                           0.242271 (Hartree/Particle)
 Thermal correction to Energy=                    0.256016
 Thermal correction to Enthalpy=                  0.256960
 Thermal correction to Gibbs Free Energy=         0.200890
 Sum of electronic and zero-point Energies=           -687.344300
 Sum of electronic and thermal Energies=              -687.330554
 Sum of electronic and thermal Enthalpies=            -687.329610
 Sum of electronic and thermal Free Energies=         -687.385681

                     E (Thermal)             CV                S
                      KCal/Mol        Cal/Mol-Kelvin    Cal/Mol-Kelvin
 Total                  160.652             52.552            118.011
 Electronic               0.000              0.000              0.000
 Translational            0.889              2.981             41.874
 Rotational               0.889              2.981             32.428
 Vibrational            158.875             46.590             43.708
 Vibration     1          0.594              1.983              5.756
 Vibration     2          0.597              1.973              4.430
 Vibration     3          0.599              1.967              4.066
 Vibration     4          0.601              1.957              3.692
 Vibration     5          0.612              1.924              2.950
 Vibration     6          0.623              1.886              2.497
 Vibration     7          0.633              1.855              2.236
 Vibration     8          0.636              1.846              2.175
 Vibration     9          0.662              1.766              1.745
 Vibration    10          0.670              1.740              1.638
 Vibration    11          0.702              1.646              1.339
 Vibration    12          0.709              1.626              1.285
 Vibration    13          0.731              1.565              1.143
 Vibration    14          0.767              1.467              0.958
 Vibration    15          0.807              1.364              0.801
 Vibration    16          0.831              1.307              0.726
 Vibration    17          0.850              1.264              0.674
 Vibration    18          0.896              1.161              0.564
 Vibration    19          0.919              1.111              0.518
 Vibration    20          0.937              1.075              0.485
 Vibration    21          0.970              1.008              0.431

 Optimization completed.
    -- Stationary point found.
 Normal termination of Gaussian 16 at Thu Dec 10 15:27:59 2020.

 ----------------------------------------------------------------------
 # B3LYP/6-311++G(d,p) empiricaldispersion=gd3bj scf=xqc pop=npa geom=c
 heck
 ----------------------------------------------------------------------

 ---------------------------------------
 CID_136822415_JID_5274_Energie_neutraal
 ---------------------------------------
 Structure from the checkpoint file:  "JID_5274.chk"
 Charge =  0 Multiplicity = 1

 SCF Done:  E(RB3LYP) =  -687.784266702     A.U. after   16 cycles
 Normal termination of Gaussian 16 at Thu Dec 10 15:31:23 2020.

 ----------------------------------------------------------------------
 # B3LYP/6-311++G(d,p) empiricaldispersion=gd3bj scf=xqc pop=npa geom=c
 heck
 ----------------------------------------------------------------------

 -------------------------------------
 CID_136822415_JID_5274_Energie_kation
 -------------------------------------
 Structure from the checkpoint file:  "JID_5274.chk"
 Charge =  1 Multiplicity = 2

 SCF Done:  E(UB3LYP) =  -687.510965451     A.U. after   24 cycles
 Normal termination of Gaussian 16 at Thu Dec 10 15:40:56 2020.
 Gaussian 16:  ES64L-G16RevA.03 25-Dec-2016

 ----------------------------------------------------------------------
 # B3LYP/6-311++G(d,p) empiricaldispersion=gd3bj scf=xqc pop=npa geom=c
 heck
 ----------------------------------------------------------------------

 ------------------------------------
 CID_136822415_JID_5274_Energie_anion
 ------------------------------------
 Structure from the checkpoint file:  "JID_5274.chk"
 Charge = -1 Multiplicity = 2

                         Standard orientation:
 ---------------------------------------------------------------------
 Center     Atomic      Atomic             Coordinates (Angstroms)
 Number     Number       Type             X           Y           Z
 ---------------------------------------------------------------------
      1          6           0       -2.443604    2.708625   -0.771623
      2          6           0       -2.685044    2.026112    0.568546
      3          8           0       -2.811273    0.607350    0.442499
      4          6           0       -1.685449   -0.148919    0.208653
      5          6           0       -1.971138   -1.499814   -0.073038
      6          6           0       -0.928558   -2.397134   -0.289233
      7          6           0        0.391327   -1.957880   -0.236243
      8          6           0        0.682034   -0.615790    0.029724
      9          6           0       -0.369273    0.290644    0.258164
     10          6           0        2.081595   -0.164385    0.065482
     11          7           0        3.089261   -0.951900    0.203300
     12          6           0        4.289524   -0.104559    0.216783
     13          6           0        3.822965    1.299171   -0.253198
     14          7           0        2.372733    1.210328   -0.013876
     15          8           0       -3.262787   -1.920920   -0.125347
     16          1           0       -1.505183    2.377667   -1.225634
     17          1           0       -2.397443    3.794959   -0.636541
     18          1           0       -3.257795    2.479384   -1.466059
     19          1           0       -1.896973    2.263716    1.293862
     20          1           0       -3.637411    2.345746    0.999309
     21          1           0       -1.171768   -3.433260   -0.500333
     22          1           0        1.214016   -2.643495   -0.403344
     23          1           0       -0.139419    1.319070    0.509040
     24          1           0        5.073519   -0.527765   -0.419930
     25          1           0        4.686748   -0.065805    1.240534
     26          1           0        4.272103    2.117209    0.317500
     27          1           0        4.040924    1.459496   -1.318942
     28          1           0        1.787217    1.736553   -0.653176
     29          1           0       -3.816281   -1.140344    0.056430
 ---------------------------------------------------------------------

 SCF Done:  E(UB3LYP) =  -687.776054093     A.U. after   33 cycles
 SCF Done:  E(UB3LYP) =  -687.776054093     a.u. after    1 cycles

 The electronic state is 2-A.
 Alpha  occ. eigenvalues --  -19.06312 -19.05783 -14.21806 -14.17560 -10.13596
 Alpha  occ. eigenvalues --  -10.13382 -10.13171 -10.12797 -10.10242 -10.09519
 Alpha  occ. eigenvalues --  -10.07799 -10.07547 -10.07396 -10.07197 -10.06141
 Alpha  occ. eigenvalues --   -0.98686  -0.95820  -0.87553  -0.75799  -0.74979
 Alpha  occ. eigenvalues --   -0.68284  -0.66798  -0.64201  -0.61947  -0.55923
 Alpha  occ. eigenvalues --   -0.52876  -0.51872  -0.49983  -0.46064  -0.45522
 Alpha  occ. eigenvalues --   -0.43421  -0.40580  -0.39401  -0.38269  -0.36534
 Alpha  occ. eigenvalues --   -0.35938  -0.33931  -0.33492  -0.31844  -0.31676
 Alpha  occ. eigenvalues --   -0.29851  -0.29681  -0.29184  -0.28562  -0.28016
 Alpha  occ. eigenvalues --   -0.27401  -0.26209  -0.24955  -0.24572  -0.23523
 Alpha  occ. eigenvalues --   -0.21356  -0.16507  -0.14786  -0.13097  -0.11039
 Alpha  occ. eigenvalues --    0.04220
 Alpha virt. eigenvalues --    0.06364   0.06563   0.07750   0.08250   0.08848
 Alpha virt. eigenvalues --    0.09088   0.09233   0.09408   0.10206   0.10896
 Alpha virt. eigenvalues --    0.11703   0.12242   0.12694   0.13463   0.14192

  Beta  occ. eigenvalues --  -19.06312 -19.05769 -14.21768 -14.17499 -10.13610
  Beta  occ. eigenvalues --  -10.13327 -10.13149 -10.12764 -10.10219 -10.09517
  Beta  occ. eigenvalues --  -10.07752 -10.07478 -10.07383 -10.07204 -10.06076
  Beta  occ. eigenvalues --   -0.98664  -0.95797  -0.87480  -0.75728  -0.74879
  Beta  occ. eigenvalues --   -0.68218  -0.66721  -0.64122  -0.61879  -0.55836
  Beta  occ. eigenvalues --   -0.52760  -0.51822  -0.49900  -0.46001  -0.45466
  Beta  occ. eigenvalues --   -0.43346  -0.40525  -0.39360  -0.38209  -0.36483
  Beta  occ. eigenvalues --   -0.35865  -0.33881  -0.33433  -0.31741  -0.31584
  Beta  occ. eigenvalues --   -0.29799  -0.29634  -0.29141  -0.28494  -0.27948
  Beta  occ. eigenvalues --   -0.27280  -0.26089  -0.24920  -0.24493  -0.23481
  Beta  occ. eigenvalues --   -0.21243  -0.16412  -0.14540  -0.12927  -0.10809
  Beta virt. eigenvalues --    0.06741   0.07124   0.07229   0.08306   0.08579
  Beta virt. eigenvalues --    0.09015   0.09264   0.09452   0.09772   0.10576
  Beta virt. eigenvalues --    0.11419   0.11985   0.12433   0.13149   0.13628

 Mulliken charges and spin densities:
               1          2
     1  C    1.829445  -2.215642
     2  C   -0.727239   0.521678
     3  O   -0.179713  -0.020130
     4  C   -1.977255   1.718028
     5  C   -1.620107   1.161602
     6  C   -0.025472  -0.322504
     7  C   -0.616303   0.119731
     8  C    1.934160  -1.111913
     9  C    0.961066  -0.525856
    10  C    0.966185  -1.436925
    11  N   -0.092204   0.029221
    12  C   -0.193977  -0.021209
    13  C    0.661625  -0.936078
    14  N   -0.117137   0.095736
    15  O   -0.271013   0.003101
    16  H   -0.422378   0.581483
    17  H   -0.509541   0.647142
    18  H   -0.147394   0.296998
    19  H    0.005020   0.131172
    20  H   -0.852154   1.052815
    21  H    0.156914   0.003558
    22  H    0.116404   0.061813
    23  H    0.278498  -0.110313
    24  H    0.116485   0.022718
    25  H    0.085042   0.045020
    26  H   -0.146620   0.304245
    27  H   -0.222142   0.367040
    28  H   -0.203529   0.451900
    29  H    0.213332   0.085567
 Sum of Mulliken charges =  -1.00000   1.00000

 Dipole moment (field-independent basis, Debye):
    X=              1.8832    Y=             -5.7382    Z=              1.5119  Tot=              6.2257
 Quadrupole moment (field-independent basis, Debye-Ang):
   XX=           -153.4011   YY=           -147.6113   ZZ=           -113.9902
   XY=             11.8805   XZ=             -0.4302   YZ=              5.9814

 Summary of Natural Population Analysis:

                                       Natural Population
                Natural  -----------------------------------------------
    Atom  No    Charge         Core      Valence    Rydberg      Total
 -----------------------------------------------------------------------
      C    1   -0.30046      0.99966     2.29576    0.00503     3.30046
      C    2   -0.00843      0.99958     1.99668    0.01217     3.00843
      O    3   -0.29434      0.99986     3.28333    0.01116     4.29434
      C    4    0.12818      0.99935     1.86024    0.01222     2.87182
      C    5    0.15058      0.99936     1.83564    0.01441     2.84942
      C    6   -0.12445      0.99954     2.11668    0.00823     3.12445
      C    7   -0.08697      0.99954     2.07772    0.00971     3.08697
      C    8   -0.05034      0.99948     2.04085    0.01001     3.05034
      C    9   -0.11393      0.99950     2.10645    0.00799     3.11393
      C   10    0.22185      0.99956     1.76043    0.01816     2.77815
      N   11   -0.26203      0.99968     2.75314    0.00921     3.76203
      C   12   -0.10383      0.99964     2.09263    0.01156     3.10383
      C   13   -0.09469      0.99965     2.08490    0.01014     3.09469
      N   14   -0.32949      0.99969     2.81842    0.01138     3.82949
      O   15   -0.34113      0.99988     3.33467    0.00658     4.34113
      H   16    0.10475      0.00000     0.39326    0.00199     0.39525
      H   17    0.10714      0.00000     0.38968    0.00318     0.39286
      H   18    0.10100      0.00000     0.39741    0.00159     0.39900
      H   19    0.08324      0.00000     0.41522    0.00155     0.41676
      H   20    0.09318      0.00000     0.40509    0.00173     0.40682
      H   21    0.10294      0.00000     0.39625    0.00081     0.39706
      H   22    0.11069      0.00000     0.38821    0.00111     0.38931
      H   23    0.10973      0.00000     0.38846    0.00182     0.39027
      H   24    0.09097      0.00000     0.40770    0.00133     0.40903
      H   25    0.08848      0.00000     0.41021    0.00131     0.41152
      H   26    0.09375      0.00000     0.40486    0.00138     0.40625
      H   27    0.08672      0.00000     0.41184    0.00144     0.41328
      H   28    0.19343      0.00000     0.30176    0.00481     0.30657
      H   29    0.24346      0.00000     0.25360    0.00294     0.25654
 =======================================================================
   * Total *   -0.00000     14.99396    39.82110    0.18494    55.00000

 Normal termination of Gaussian 16 at Thu Dec 10 15:55:25 2020.
