 Gaussian 16, Revision A.03,

 -----------------------------------------------------------
 # opt freq B3LYP/6-31G(d) empiricaldispersion=gd3bj scf=xqc
 -----------------------------------------------------------

 -------------------------------
 CID_104523155_JID_5032_neutraal
 -------------------------------
 Symbolic Z-matrix:
 Charge =  0 Multiplicity = 1

 SCF Done:  E(RB3LYP) =  -672.563469292     A.U. after   14 cycles
 SCF Done:  E(RB3LYP) =  -672.568415288     A.U. after   12 cycles
 SCF Done:  E(RB3LYP) =  -672.569315339     A.U. after   12 cycles
 SCF Done:  E(RB3LYP) =  -672.570052794     A.U. after   11 cycles
 SCF Done:  E(RB3LYP) =  -672.570303103     A.U. after   11 cycles
 SCF Done:  E(RB3LYP) =  -672.570520824     A.U. after   11 cycles
 SCF Done:  E(RB3LYP) =  -672.570556729     A.U. after   10 cycles
 SCF Done:  E(RB3LYP) =  -672.570618708     A.U. after   11 cycles
 SCF Done:  E(RB3LYP) =  -672.570828995     A.U. after   13 cycles
 SCF Done:  E(RB3LYP) =  -672.569746928     A.U. after   15 cycles
 SCF Done:  E(RB3LYP) =  -672.571881354     A.U. after   10 cycles
 SCF Done:  E(RB3LYP) =  -672.571883319     A.U. after    8 cycles
 SCF Done:  E(RB3LYP) =  -672.571886259     A.U. after    9 cycles
 SCF Done:  E(RB3LYP) =  -672.571888288     A.U. after    9 cycles
 SCF Done:  E(RB3LYP) =  -672.571889460     A.U. after    8 cycles
 SCF Done:  E(RB3LYP) =  -672.571889879     A.U. after    8 cycles
 Optimization completed.
    -- Stationary point found.
 Normal termination of Gaussian 16 at Thu Dec 10 14:58:51 2020.

 --------------------------------------------------------------------
 #N Geom=AllCheck Guess=TCheck SCRF=Check GenChk RB3LYP/6-31G(d) Freq
 --------------------------------------------------------------------

 Structure from the checkpoint file:  "JID_5032.chk"
 -------------------------------
 CID_104523155_JID_5032_neutraal
 -------------------------------
 Charge =  0 Multiplicity = 1

 SCF Done:  E(RB3LYP) =  -672.571889879     A.U. after    1 cycles

  Exact polarizability: 151.077  -6.154 136.614   2.891   1.085 114.198
 Approx polarizability: 194.436  -9.136 203.378   5.788   2.626 173.298

                      1                      2                      3
                      A                      A                      A
 Frequencies --     35.3420                55.5570                67.0731
 Red. masses --      6.1175                 3.8975                 4.2696
 Frc consts  --      0.0045                 0.0071                 0.0113
 IR Inten    --      6.1493                 1.2338                 2.3694

                      4                      5                      6
                      A                      A                      A
 Frequencies --     93.1432               131.4480               161.5623
 Red. masses --      3.2125                 3.0032                 4.0785
 Frc consts  --      0.0164                 0.0306                 0.0627
 IR Inten    --      0.5723                 1.4178                 6.1167

                      7                      8                      9
                      A                      A                      A
 Frequencies --    192.7904               216.1846               219.2536
 Red. masses --      2.4252                 1.3550                 1.0836
 Frc consts  --      0.0531                 0.0373                 0.0307
 IR Inten    --     33.9268               115.0715                 0.3987

                     10                     11                     12
                      A                      A                      A
 Frequencies --    228.6002               252.5653               275.0952
 Red. masses --      2.1636                 3.0543                 1.8791
 Frc consts  --      0.0666                 0.1148                 0.0838
 IR Inten    --     44.2729                 4.3682                 4.3003

                     13                     14                     15
                      A                      A                      A
 Frequencies --    280.0180               311.5880               323.6780
 Red. masses --      1.1940                 1.7324                 2.2482
 Frc consts  --      0.0552                 0.0991                 0.1388
 IR Inten    --      0.6476                16.1480                 0.9950

                     16                     17                     18
                      A                      A                      A
 Frequencies --    328.5719               349.6137               368.4687
 Red. masses --      1.6395                 2.1291                 1.6042
 Frc consts  --      0.1043                 0.1533                 0.1283
 IR Inten    --     15.5120                 1.1235                 2.2747

                     19                     20                     21
                      A                      A                      A
 Frequencies --    377.5031               412.6485               446.1460
 Red. masses --      1.7517                 2.3968                 2.6356
 Frc consts  --      0.1471                 0.2405                 0.3091
 IR Inten    --      6.6856                 1.9090                 3.9879

                     22                     23                     24
                      A                      A                      A
 Frequencies --    471.0907               485.9303               495.4417
 Red. masses --      2.2585                 2.7301                 2.4554
 Frc consts  --      0.2953                 0.3798                 0.3551
 IR Inten    --      2.0228                 3.2371                 7.0522

                     25                     26                     27
                      A                      A                      A
 Frequencies --    500.8644               554.8714               579.6324
 Red. masses --      2.9142                 2.1120                 2.4086
 Frc consts  --      0.4307                 0.3831                 0.4768
 IR Inten    --     11.8745                10.5313                 4.5496

                     28                     29                     30
                      A                      A                      A
 Frequencies --    604.7370               625.6423               709.5865
 Red. masses --      1.8112                 2.9296                 2.3611
 Frc consts  --      0.3903                 0.6756                 0.7005
 IR Inten    --     14.9221                18.7780                18.6956

                     31                     32                     33
                      A                      A                      A
 Frequencies --    740.1200               805.5712               832.4804
 Red. masses --      3.5528                 2.6771                 1.8756
 Frc consts  --      1.1466                 1.0236                 0.7658
 IR Inten    --      2.2593                 4.9192                 0.8203

                     34                     35                     36
                      A                      A                      A
 Frequencies --    840.9274               866.8330               896.5846
 Red. masses --      2.1558                 1.6391                 1.7042
 Frc consts  --      0.8982                 0.7256                 0.8072
 IR Inten    --      0.8179                 5.2195                33.3480

                     37                     38                     39
                      A                      A                      A
 Frequencies --    921.5161               936.3426               946.1792
 Red. masses --      2.3588                 1.5790                 2.0935
 Frc consts  --      1.1802                 0.8156                 1.1043
 IR Inten    --      6.8519                15.1173                21.8221

                     40                     41                     42
                      A                      A                      A
 Frequencies --    956.2298               968.2784               999.8339
 Red. masses --      1.8925                 1.5075                 1.8855
 Frc consts  --      1.0196                 0.8327                 1.1105
 IR Inten    --     71.0019               147.9772                11.3603

                     43                     44                     45
                      A                      A                      A
 Frequencies --   1029.7051              1039.4744              1048.8113
 Red. masses --      1.4774                 1.6570                 1.6449
 Frc consts  --      0.9230                 1.0549                 1.0661
 IR Inten    --      2.2249                16.0364                 8.2534

                     46                     47                     48
                      A                      A                      A
 Frequencies --   1055.5622              1090.8716              1108.3861
 Red. masses --      2.0386                 2.0578                 2.0224
 Frc consts  --      1.3383                 1.4428                 1.4638
 IR Inten    --     11.5823                16.9953                14.1902

                     49                     50                     51
                      A                      A                      A
 Frequencies --   1119.8542              1132.7130              1151.5689
 Red. masses --      1.7077                 2.2776                 1.6653
 Frc consts  --      1.2618                 1.7217                 1.3012
 IR Inten    --      4.9166                 1.4426                21.5397

                     52                     53                     54
                      A                      A                      A
 Frequencies --   1180.8718              1191.1612              1217.5275
 Red. masses --      3.0350                 2.3113                 2.2932
 Frc consts  --      2.4936                 1.9322                 2.0029
 IR Inten    --     31.1225                 7.0535                15.6810

                     55                     56                     57
                      A                      A                      A
 Frequencies --   1225.8953              1250.8334              1274.7368
 Red. masses --      1.5830                 1.6322                 1.7267
 Frc consts  --      1.4016                 1.5046                 1.6532
 IR Inten    --      1.6986                36.4948                26.5880

                     58                     59                     60
                      A                      A                      A
 Frequencies --   1303.6564              1306.3396              1334.3936
 Red. masses --      2.5213                 1.4629                 1.3238
 Frc consts  --      2.5247                 1.4709                 1.3889
 IR Inten    --     12.3427                19.1376                 9.0104

                     61                     62                     63
                      A                      A                      A
 Frequencies --   1343.9935              1366.7082              1374.0329
 Red. masses --      1.2418                 1.4136                 2.6530
 Frc consts  --      1.3216                 1.5558                 2.9511
 IR Inten    --      4.5748                 3.2316               160.8221

                     64                     65                     66
                      A                      A                      A
 Frequencies --   1394.3754              1396.6165              1399.5755
 Red. masses --      1.3026                 1.4652                 1.3163
 Frc consts  --      1.4921                 1.6838                 1.5191
 IR Inten    --      4.7649                 4.1640                 3.8354

                     67                     68                     69
                      A                      A                      A
 Frequencies --   1409.0056              1420.0885              1426.7371
 Red. masses --      1.2858                 1.3580                 1.2702
 Frc consts  --      1.5040                 1.6136                 1.5233
 IR Inten    --      5.2995                 0.4571                 9.4833

                     70                     71                     72
                      A                      A                      A
 Frequencies --   1435.1527              1440.9143              1449.3034
 Red. masses --      1.3171                 1.3398                 1.2361
 Frc consts  --      1.5983                 1.6390                 1.5298
 IR Inten    --      7.4683                19.5573                12.1058

                     73                     74                     75
                      A                      A                      A
 Frequencies --   1509.5129              1514.6193              1520.6490
 Red. masses --      1.0687                 1.0706                 1.0712
 Frc consts  --      1.4347                 1.4471                 1.4595
 IR Inten    --      3.0722                 0.5113                 0.9004

                     76                     77                     78
                      A                      A                      A
 Frequencies --   1521.7401              1529.1375              1531.3441
 Red. masses --      1.0484                 1.0637                 1.0670
 Frc consts  --      1.4304                 1.4654                 1.4742
 IR Inten    --      0.8442                 3.8869                 4.6459

                     79                     80                     81
                      A                      A                      A
 Frequencies --   1534.3928              1539.8341              1545.1361
 Red. masses --      1.0606                 1.0804                 1.0534
 Frc consts  --      1.4713                 1.5093                 1.4818
 IR Inten    --      7.7359                 7.1719                12.9202

                     82                     83                     84
                      A                      A                      A
 Frequencies --   1559.9192              1643.2267              1705.9676
 Red. masses --      1.0648                 1.2694                 1.0840
 Frc consts  --      1.5266                 2.0195                 1.8587
 IR Inten    --      2.7420               143.7754                15.0547

                     85                     86                     87
                      A                      A                      A
 Frequencies --   1787.4336              3020.6520              3022.7705
 Red. masses --      8.6934                 1.0621                 1.0715
 Frc consts  --     16.3643                 5.7097                 5.7685
 IR Inten    --    259.4750                19.9614                35.9938

                     88                     89                     90
                      A                      A                      A
 Frequencies --   3042.2389              3047.8039              3050.7985
 Red. masses --      1.0601                 1.0748                 1.0480
 Frc consts  --      5.7808                 5.8824                 5.7470
 IR Inten    --     29.2216                 7.6219                35.7864

                     91                     92                     93
                      A                      A                      A
 Frequencies --   3052.3932              3058.3423              3060.0091
 Red. masses --      1.0586                 1.0474                 1.0381
 Frc consts  --      5.8110                 5.7719                 5.7271
 IR Inten    --      6.8604                52.2262                 2.6718

                     94                     95                     96
                      A                      A                      A
 Frequencies --   3065.5350              3083.8508              3095.6569
 Red. masses --      1.0936                 1.0993                 1.0921
 Frc consts  --      6.0551                 6.1599                 6.1662
 IR Inten    --     47.7177                26.7127                21.7910

                     97                     98                     99
                      A                      A                      A
 Frequencies --   3099.5025              3114.1815              3121.0292
 Red. masses --      1.0961                 1.0996                 1.0994
 Frc consts  --      6.2044                 6.2833                 6.3098
 IR Inten    --     49.8678                18.0684                41.8967

                    100                    101                    102
                      A                      A                      A
 Frequencies --   3124.7398              3129.2588              3133.4145
 Red. masses --      1.1014                 1.1024                 1.1023
 Frc consts  --      6.3361                 6.3601                 6.3766
 IR Inten    --     45.6588                30.2494                10.5213

                    103                    104                    105
                      A                      A                      A
 Frequencies --   3134.1204              3199.6209              3446.5906
 Red. masses --      1.1019                 1.0876                 1.0496
 Frc consts  --      6.3769                 6.5603                 7.3464
 IR Inten    --     56.8032                 5.3340                 7.4262

                    106                    107                    108
                      A                      A                      A
 Frequencies --   3535.2937              3597.1736              3725.7930
 Red. masses --      1.0904                 1.0454                 1.1039
 Frc consts  --      8.0297                 7.9702                 9.0287
 IR Inten    --      1.9279                28.3347                33.4065

 - Thermochemistry -
 -------------------
 Temperature   298.150 Kelvin.  Pressure   1.00000 Atm.
 Atom     1 has atomic number  6 and mass  12.00000

 Molecular mass:   213.18411 amu.
 Principal axes and moments of inertia in atomic units:
                           1         2         3
     Eigenvalues --  2024.588924381.747495165.12667
           X            0.99956  -0.02965   0.00232
           Y            0.02969   0.99942  -0.01674
           Z           -0.00182   0.01680   0.99986
 This molecule is an asymmetric top.
 Rotational symmetry number  1.
 Warning -- assumption of classical behavior for rotation
           may cause significant error
 Rotational temperatures (Kelvin)      0.04278     0.01977     0.01677
 Rotational constants (GHZ):           0.89141     0.41188     0.34941
 Zero-point vibrational energy     910286.9 (Joules/Mol)
                                  217.56380 (Kcal/Mol)
 Warning -- explicit consideration of  28 degrees of freedom as
           vibrations may cause significant error
 Vibrational temperatures:     50.85    79.93    96.50   134.01   189.12
          (Kelvin)            232.45   277.38   311.04   315.46   328.90
                              363.39   395.80   402.88   448.31   465.70
                              472.74   503.02   530.14   543.14   593.71
                              641.90   677.79   699.15   712.83   720.63
                              798.34   833.96   870.08   900.16  1020.94
                             1064.87  1159.04  1197.75  1209.91  1247.18
                             1289.99  1325.86  1347.19  1361.34  1375.80
                             1393.14  1438.54  1481.52  1495.57  1509.01
                             1518.72  1569.52  1594.72  1611.22  1629.72
                             1656.85  1699.01  1713.82  1751.75  1763.79
                             1799.67  1834.06  1875.67  1879.53  1919.89
                             1933.71  1966.39  1976.93  2006.20  2009.42
                             2013.68  2027.24  2043.19  2052.76  2064.86
                             2073.15  2085.22  2171.85  2179.20  2187.87
                             2189.44  2200.09  2203.26  2207.65  2215.48
                             2223.11  2244.38  2364.24  2454.51  2571.72
                             4346.04  4349.09  4377.10  4385.11  4389.42
                             4391.71  4400.27  4402.67  4410.62  4436.97
                             4453.96  4459.49  4480.61  4490.46  4495.80
                             4502.31  4508.28  4509.30  4603.54  4958.88
                             5086.50  5175.53  5360.59

 Zero-point correction=                           0.346710 (Hartree/Particle)
 Thermal correction to Energy=                    0.363294
 Thermal correction to Enthalpy=                  0.364238
 Thermal correction to Gibbs Free Energy=         0.303743
 Sum of electronic and zero-point Energies=           -672.225180
 Sum of electronic and thermal Energies=              -672.208596
 Sum of electronic and thermal Enthalpies=            -672.207652
 Sum of electronic and thermal Free Energies=         -672.268147

                     E (Thermal)             CV                S
                      KCal/Mol        Cal/Mol-Kelvin    Cal/Mol-Kelvin
 Total                  227.970             65.046            127.323
 Electronic               0.000              0.000              0.000
 Translational            0.889              2.981             41.974
 Rotational               0.889              2.981             32.194
 Vibrational            226.193             59.084             53.155
 Vibration     1          0.594              1.982              5.504
 Vibration     2          0.596              1.975              4.609
 Vibration     3          0.598              1.970              4.237
 Vibration     4          0.602              1.954              3.593
 Vibration     5          0.612              1.922              2.925
 Vibration     6          0.622              1.890              2.531
 Vibration     7          0.635              1.850              2.201
 Vibration     8          0.645              1.816              1.991
 Vibration     9          0.647              1.812              1.965
 Vibration    10          0.651              1.797              1.890
 Vibration    11          0.664              1.758              1.713
 Vibration    12          0.677              1.719              1.564
 Vibration    13          0.680              1.711              1.534
 Vibration    14          0.700              1.652              1.354
 Vibration    15          0.708              1.628              1.291
 Vibration    16          0.712              1.618              1.267
 Vibration    17          0.727              1.576              1.168
 Vibration    18          0.741              1.537              1.086
 Vibration    19          0.748              1.518              1.049
 Vibration    20          0.776              1.443              0.917
 Vibration    21          0.805              1.369              0.808
 Vibration    22          0.828              1.314              0.735
 Vibration    23          0.842              1.281              0.694
 Vibration    24          0.851              1.260              0.670
 Vibration    25          0.856              1.248              0.656
 Vibration    26          0.910              1.129              0.534
 Vibration    27          0.936              1.075              0.486
 Vibration    28          0.963              1.022              0.442

 Optimization completed.
    -- Stationary point found.
 Normal termination of Gaussian 16 at Thu Dec 10 15:14:01 2020.

 ----------------------------------------------------------------------
 # B3LYP/6-311++G(d,p) empiricaldispersion=gd3bj scf=xqc pop=npa geom=c
 heck
 ----------------------------------------------------------------------

 ---------------------------------------
 CID_104523155_JID_5032_Energie_neutraal
 ---------------------------------------
 Structure from the checkpoint file:  "JID_5032.chk"
 Charge =  0 Multiplicity = 1

 SCF Done:  E(RB3LYP) =  -672.776950677     A.U. after   15 cycles
 Normal termination of Gaussian 16 at Thu Dec 10 15:22:30 2020.

 ----------------------------------------------------------------------
 # B3LYP/6-311++G(d,p) empiricaldispersion=gd3bj scf=xqc pop=npa geom=c
 heck
 ----------------------------------------------------------------------

 -------------------------------------
 CID_104523155_JID_5032_Energie_kation
 -------------------------------------
 Structure from the checkpoint file:  "JID_5032.chk"
 Charge =  1 Multiplicity = 2

 SCF Done:  E(UB3LYP) =  -672.502001658     A.U. after   23 cycles
 Normal termination of Gaussian 16 at Thu Dec 10 15:38:58 2020.
 Gaussian 16:  ES64L-G16RevA.03 25-Dec-2016

 ----------------------------------------------------------------------
 # B3LYP/6-311++G(d,p) empiricaldispersion=gd3bj scf=xqc pop=npa geom=c
 heck
 ----------------------------------------------------------------------

 ------------------------------------
 CID_104523155_JID_5032_Energie_anion
 ------------------------------------
 Structure from the checkpoint file:  "JID_5032.chk"
 Charge = -1 Multiplicity = 2

                         Standard orientation:
 ---------------------------------------------------------------------
 Center     Atomic      Atomic             Coordinates (Angstroms)
 Number     Number       Type             X           Y           Z
 ---------------------------------------------------------------------
      1          6           0        0.674085    2.493784   -1.157765
      2          6           0        0.727188    1.591505    0.084669
      3          6           0       -0.417551    1.908398    1.078660
      4          6           0       -1.776253    1.354130    0.627017
      5          6           0       -1.651055   -0.141279    0.315683
      6          6           0       -0.522619   -0.332283   -0.727550
      7          7           0        0.776064    0.170373   -0.306587
      8          6           0        1.708157   -0.708938    0.449265
      9          6           0        1.614059   -0.580055    1.984502
     10          6           0        1.480821   -2.183230    0.083876
     11          6           0        3.152318   -0.314638    0.011333
     12          7           0        3.417379   -0.362563   -1.422976
     13          6           0       -2.897221   -0.866546   -0.183466
     14          8           0       -2.868370   -2.067354   -0.426385
     15          7           0       -4.019935   -0.114726   -0.387632
     16          1           0        0.695842    3.550189   -0.866525
     17          1           0       -0.232490    2.333821   -1.750236
     18          1           0        1.535433    2.296343   -1.802873
     19          1           0        1.666453    1.820838    0.593739
     20          1           0       -0.174661    1.474768    2.054591
     21          1           0       -0.482932    2.993961    1.222705
     22          1           0       -2.110826    1.885355   -0.275573
     23          1           0       -2.524793    1.540230    1.408854
     24          1           0       -1.356247   -0.676134    1.227578
     25          1           0       -0.823383    0.203219   -1.639309
     26          1           0       -0.460962   -1.382006   -0.999267
     27          1           0        0.620943   -0.859081    2.350536
     28          1           0        2.343279   -1.244968    2.461953
     29          1           0        1.832200    0.437183    2.324754
     30          1           0        1.519392   -2.342525   -0.998042
     31          1           0        2.270879   -2.787540    0.542234
     32          1           0        0.522054   -2.561602    0.450537
     33          1           0        3.364931    0.703389    0.361715
     34          1           0        3.868601   -0.966448    0.525480
     35          1           0        3.465155   -1.332991   -1.729435
     36          1           0        2.598192    0.033352   -1.887195
     37          1           0       -4.093079    0.841934   -0.080210
     38          1           0       -4.863152   -0.599134   -0.661910
 ---------------------------------------------------------------------

 SCF Done:  E(UB3LYP) =  -672.768289057     A.U. after   32 cycles

 The electronic state is 2-A.
 Alpha  occ. eigenvalues --  -18.98678 -14.23075 -14.20686 -14.20043 -10.17290
 Alpha  occ. eigenvalues --  -10.12192 -10.10600 -10.09881 -10.09594 -10.08101
 Alpha  occ. eigenvalues --  -10.07380 -10.07107 -10.07071 -10.06785 -10.06404
 Alpha  occ. eigenvalues --   -0.93706  -0.83915  -0.80365  -0.78989  -0.71686
 Alpha  occ. eigenvalues --   -0.68682  -0.67325  -0.60898  -0.60292  -0.57508
 Alpha  occ. eigenvalues --   -0.54716  -0.53498  -0.49044  -0.47882  -0.44386
 Alpha  occ. eigenvalues --   -0.43399  -0.41840  -0.39418  -0.38045  -0.37188
 Alpha  occ. eigenvalues --   -0.36817  -0.35776  -0.34541  -0.32969  -0.32388
 Alpha  occ. eigenvalues --   -0.31969  -0.30812  -0.30419  -0.29769  -0.29393
 Alpha  occ. eigenvalues --   -0.29226  -0.28122  -0.27652  -0.27450  -0.26099
 Alpha  occ. eigenvalues --   -0.25263  -0.24688  -0.23635  -0.22811  -0.22133
 Alpha  occ. eigenvalues --   -0.17363  -0.15796  -0.15389  -0.11367   0.04033
 Alpha virt. eigenvalues --    0.05848   0.06907   0.07180   0.08369   0.08765
 Alpha virt. eigenvalues --    0.09009   0.09611   0.10140   0.10684   0.11145
 Alpha virt. eigenvalues --    0.11320   0.11740   0.11914   0.12504   0.13079

  Beta  occ. eigenvalues --  -18.98673 -14.23012 -14.20685 -14.20036 -10.17283
  Beta  occ. eigenvalues --  -10.12191 -10.10595 -10.09870 -10.09588 -10.08093
  Beta  occ. eigenvalues --  -10.07366 -10.07068 -10.07054 -10.06765 -10.06382
  Beta  occ. eigenvalues --   -0.93691  -0.83907  -0.80281  -0.78973  -0.71658
  Beta  occ. eigenvalues --   -0.68656  -0.67297  -0.60866  -0.60257  -0.57474
  Beta  occ. eigenvalues --   -0.54679  -0.53434  -0.48991  -0.47804  -0.44334
  Beta  occ. eigenvalues --   -0.43357  -0.41816  -0.39393  -0.38016  -0.37157
  Beta  occ. eigenvalues --   -0.36795  -0.35751  -0.34518  -0.32939  -0.32368
  Beta  occ. eigenvalues --   -0.31940  -0.30785  -0.30392  -0.29744  -0.29368
  Beta  occ. eigenvalues --   -0.29198  -0.28091  -0.27632  -0.27422  -0.26080
  Beta  occ. eigenvalues --   -0.25241  -0.24658  -0.23605  -0.22788  -0.22098
  Beta  occ. eigenvalues --   -0.17314  -0.15775  -0.15379  -0.11358
  Beta virt. eigenvalues --    0.05961   0.07069   0.07307   0.07824   0.08757
  Beta virt. eigenvalues --    0.09202   0.09358   0.09927   0.10279   0.11095
  Beta virt. eigenvalues --    0.11280   0.11783   0.12066   0.12152   0.12688

 Mulliken charges and spin densities:
               1          2
     1  C    0.841362  -1.400222
     2  C   -0.473983   0.491401
     3  C    0.984320  -1.470687
     4  C    0.107077  -0.697522
     5  C   -0.029634   1.081339
     6  C   -0.502929  -0.424661
     7  N    0.433765  -0.012022
     8  C   -1.412255   1.000216
     9  C    0.522580  -1.068251
    10  C   -0.189252  -0.206228
    11  C   -0.106170  -0.367328
    12  N   -0.276549   0.020825
    13  C    0.383098  -0.748198
    14  O   -0.327479   0.000147
    15  N   -0.304572  -0.090391
    16  H   -0.171907   0.312127
    17  H   -0.004347   0.158016
    18  H    0.130812   0.005645
    19  H    0.122937   0.031780
    20  H    0.220750  -0.096546
    21  H   -0.587670   0.795412
    22  H    0.119814   0.040215
    23  H   -0.802627   1.005642
    24  H    0.253729  -0.042763
    25  H   -0.013534   0.188790
    26  H    0.355365  -0.153044
    27  H   -0.064723   0.222588
    28  H    0.066352   0.084795
    29  H   -0.124847   0.291215
    30  H    0.083927   0.070436
    31  H   -0.002734   0.164560
    32  H    0.091564   0.109948
    33  H   -0.038510   0.192434
    34  H    0.019843   0.136978
    35  H    0.177696   0.045026
    36  H    0.188140   0.047502
    37  H   -0.526874   0.819934
    38  H   -0.142538   0.460892
 Sum of Mulliken charges =  -1.00000   1.00000

 Dipole moment (field-independent basis, Debye):
    X=              6.6883    Y=             -3.2918    Z=             -1.0224  Tot=              7.5243
 Quadrupole moment (field-independent basis, Debye-Ang):
   XX=           -183.7632   YY=           -146.8519   ZZ=           -128.2441
   XY=              3.7231   XZ=              3.9961   YZ=             -4.0157

 Summary of Natural Population Analysis:

                                       Natural Population
                Natural  -----------------------------------------------
    Atom  No    Charge         Core      Valence    Rydberg      Total
 -----------------------------------------------------------------------
      C    1   -0.28689      0.99964     2.28148    0.00578     3.28689
      C    2   -0.00692      0.99958     1.99454    0.01280     3.00692
      C    3   -0.19295      0.99960     2.18368    0.00966     3.19295
      C    4   -0.19862      0.99961     2.18827    0.01073     3.19862
      C    5   -0.15775      0.99954     2.14749    0.01072     3.15775
      C    6   -0.07990      0.99958     2.06879    0.01153     3.07990
      N    7   -0.29911      0.99968     2.78432    0.01511     3.79911
      C    8    0.06600      0.99956     1.91962    0.01482     2.93400
      C    9   -0.29820      0.99961     2.29118    0.00742     3.29820
      C   10   -0.29708      0.99962     2.29101    0.00645     3.29708
      C   11   -0.09107      0.99957     2.07877    0.01273     3.09107
      N   12   -0.42008      0.99978     2.91114    0.00917     3.92008
      C   13    0.34399      0.99966     1.63275    0.02360     2.65601
      O   14   -0.33175      0.99988     3.32612    0.00575     4.33175
      N   15   -0.39839      0.99970     2.89042    0.00827     3.89839
      H   16    0.10036      0.00000     0.39881    0.00083     0.39964
      H   17    0.09820      0.00000     0.40085    0.00095     0.40180
      H   18    0.09934      0.00000     0.39975    0.00091     0.40066
      H   19    0.09654      0.00000     0.40116    0.00230     0.40346
      H   20    0.09783      0.00000     0.40061    0.00156     0.40217
      H   21    0.10301      0.00000     0.39552    0.00147     0.39699
      H   22    0.09760      0.00000     0.40025    0.00215     0.40240
      H   23    0.10587      0.00000     0.39157    0.00256     0.39413
      H   24    0.10619      0.00000     0.39179    0.00203     0.39381
      H   25    0.09234      0.00000     0.40639    0.00127     0.40766
      H   26    0.11026      0.00000     0.38838    0.00136     0.38974
      H   27    0.10216      0.00000     0.39672    0.00112     0.39784
      H   28    0.09985      0.00000     0.39930    0.00085     0.40015
      H   29    0.10147      0.00000     0.39754    0.00099     0.39853
      H   30    0.10149      0.00000     0.39739    0.00112     0.39851
      H   31    0.10153      0.00000     0.39772    0.00075     0.39847
      H   32    0.10800      0.00000     0.39120    0.00080     0.39200
      H   33    0.09009      0.00000     0.40867    0.00124     0.40991
      H   34    0.09074      0.00000     0.40843    0.00083     0.40926
      H   35    0.16814      0.00000     0.32989    0.00196     0.33186
      H   36    0.17890      0.00000     0.31880    0.00230     0.32110
      H   37    0.20226      0.00000     0.28876    0.00899     0.29774
      H   38    0.19654      0.00000     0.30071    0.00275     0.30346
 =======================================================================
   * Total *    0.00000     14.99460    43.79977    0.20564    59.00000

 Normal termination of Gaussian 16 at Thu Dec 10 16:04:44 2020.
