 Gaussian 16, Revision A.03,

 -----------------------------------------------------------
 # opt freq B3LYP/6-31G(d) empiricaldispersion=gd3bj scf=xqc
 -----------------------------------------------------------

 ------------------------------
 CID_61346764_JID_7915_neutraal
 ------------------------------
 Symbolic Z-matrix:
 Charge =  0 Multiplicity = 1

 SCF Done:  E(RB3LYP) =  -1412.15153693     A.U. after   15 cycles
 SCF Done:  E(RB3LYP) =  -1412.15667778     A.U. after   12 cycles
 SCF Done:  E(RB3LYP) =  -1412.15743685     A.U. after   12 cycles
 SCF Done:  E(RB3LYP) =  -1412.15773999     A.U. after   12 cycles
 SCF Done:  E(RB3LYP) =  -1412.15805576     A.U. after   11 cycles
 SCF Done:  E(RB3LYP) =  -1412.15871208     A.U. after   13 cycles
 SCF Done:  E(RB3LYP) =  -1412.15950163     A.U. after   15 cycles
 SCF Done:  E(RB3LYP) =  -1412.16039153     A.U. after   12 cycles
 SCF Done:  E(RB3LYP) =  -1412.16193460     A.U. after   15 cycles
 SCF Done:  E(RB3LYP) =  -1412.16213622     A.U. after   12 cycles
 SCF Done:  E(RB3LYP) =  -1412.16247894     A.U. after    7 cycles
 SCF Done:  E(RB3LYP) =  -1412.16247900     A.U. after    7 cycles
 SCF Done:  E(RB3LYP) =  -1412.16247902     A.U. after    7 cycles
 SCF Done:  E(RB3LYP) =  -1412.16247904     A.U. after    7 cycles
 SCF Done:  E(RB3LYP) =  -1412.16247905     A.U. after    6 cycles
 Optimization completed.
    -- Stationary point found.
 Normal termination of Gaussian 16 at Fri Dec 11 13:14:45 2020.

 --------------------------------------------------------------------
 #N Geom=AllCheck Guess=TCheck SCRF=Check GenChk RB3LYP/6-31G(d) Freq
 --------------------------------------------------------------------

 Structure from the checkpoint file:  "JID_7915.chk"
 ------------------------------
 CID_61346764_JID_7915_neutraal
 ------------------------------
 Charge =  0 Multiplicity = 1

 SCF Done:  E(RB3LYP) =  -1412.16247905     A.U. after    1 cycles

  Exact polarizability: 203.048  12.309 192.582   0.947   3.256 139.838
 Approx polarizability: 266.754  32.539 313.914   3.087  13.749 247.127

                      1                      2                      3
                      A                      A                      A
 Frequencies --     17.0721                24.4685                41.4936
 Red. masses --      4.7272                 4.8519                 2.8809
 Frc consts  --      0.0008                 0.0017                 0.0029
 IR Inten    --      0.1185                 0.0361                 0.1467

                      4                      5                      6
                      A                      A                      A
 Frequencies --     50.2817                59.8846                84.4728
 Red. masses --      3.4190                 3.3562                 2.9720
 Frc consts  --      0.0051                 0.0071                 0.0125
 IR Inten    --      0.6715                 0.4430                 1.1398

                      7                      8                      9
                      A                      A                      A
 Frequencies --     89.6420                98.3965               135.5555
 Red. masses --      1.5534                 1.6437                 4.2044
 Frc consts  --      0.0074                 0.0094                 0.0455
 IR Inten    --      0.5979                 0.7199                 0.1022

                     10                     11                     12
                      A                      A                      A
 Frequencies --    163.1091               183.7305               210.5110
 Red. masses --      3.3022                 4.0606                 1.6990
 Frc consts  --      0.0518                 0.0808                 0.0444
 IR Inten    --      0.5292                 0.2036                 1.6274

                     13                     14                     15
                      A                      A                      A
 Frequencies --    236.6231               246.9018               259.1941
 Red. masses --      1.9966                 2.0971                 2.4001
 Frc consts  --      0.0659                 0.0753                 0.0950
 IR Inten    --      0.5495                 0.2043                 1.4941

                     16                     17                     18
                      A                      A                      A
 Frequencies --    287.1435               306.8484               316.9925
 Red. masses --      3.6446                 2.4525                 2.2266
 Frc consts  --      0.1770                 0.1361                 0.1318
 IR Inten    --      0.1919                 0.7893                 3.6456

                     19                     20                     21
                      A                      A                      A
 Frequencies --    368.7678               387.1865               447.5848
 Red. masses --      2.9584                 4.4705                 4.3678
 Frc consts  --      0.2370                 0.3949                 0.5155
 IR Inten    --      1.1299                 3.3229                 5.1910

                     22                     23                     24
                      A                      A                      A
 Frequencies --    471.4923               510.5925               532.6901
 Red. masses --      2.8374                 5.2676                 5.6344
 Frc consts  --      0.3716                 0.8091                 0.9420
 IR Inten    --      2.8907                 5.7921                 3.3480

                     25                     26                     27
                      A                      A                      A
 Frequencies --    542.9015               584.7108               599.0958
 Red. masses --      5.2559                 3.3486                 6.1677
 Frc consts  --      0.9127                 0.6745                 1.3043
 IR Inten    --      0.4659                 4.4005                 3.1182

                     28                     29                     30
                      A                      A                      A
 Frequencies --    650.2797               697.2386               704.9459
 Red. masses --      3.9697                 1.2232                 4.6464
 Frc consts  --      0.9890                 0.3503                 1.3604
 IR Inten    --      9.6798                41.7395                 4.6084

                     31                     32                     33
                      A                      A                      A
 Frequencies --    709.5823               724.8089               749.8750
 Red. masses --      2.7195                 3.7746                 6.6055
 Frc consts  --      0.8068                 1.1683                 2.1884
 IR Inten    --     31.8034                 4.7713                 0.6426

                     34                     35                     36
                      A                      A                      A
 Frequencies --    770.1534               793.9475               805.8008
 Red. masses --      2.7641                 1.2734                 1.3299
 Frc consts  --      0.9660                 0.4729                 0.5088
 IR Inten    --     68.5409                15.0080                 7.6183

                     37                     38                     39
                      A                      A                      A
 Frequencies --    825.5622               844.7036               867.1187
 Red. masses --      1.8306                 2.6612                 4.0086
 Frc consts  --      0.7351                 1.1187                 1.7758
 IR Inten    --     24.7741                39.0148                 8.5194

                     40                     41                     42
                      A                      A                      A
 Frequencies --    880.4021               903.3950               913.1033
 Red. masses --      2.6624                 1.3642                 1.7813
 Frc consts  --      1.2159                 0.6560                 0.8750
 IR Inten    --      1.5819                 0.2879                12.0768

                     43                     44                     45
                      A                      A                      A
 Frequencies --    988.5491              1023.4083              1063.5756
 Red. masses --      2.1024                 2.5555                 1.8423
 Frc consts  --      1.2105                 1.5769                 1.2279
 IR Inten    --      2.7878                 4.0067                 8.7411

                     46                     47                     48
                      A                      A                      A
 Frequencies --   1069.6167              1072.2581              1092.9803
 Red. masses --      1.4979                 1.6519                 2.1746
 Frc consts  --      1.0097                 1.1190                 1.5306
 IR Inten    --      0.5649                 2.3051                20.2750

                     49                     50                     51
                      A                      A                      A
 Frequencies --   1099.0670              1111.9752              1127.1897
 Red. masses --      1.9494                 1.3967                 1.9953
 Frc consts  --      1.3874                 1.0175                 1.4937
 IR Inten    --      9.7150                 9.7323                 1.3643

                     52                     53                     54
                      A                      A                      A
 Frequencies --   1142.9162              1166.9911              1189.5065
 Red. masses --      1.8470                 2.5657                 2.8020
 Frc consts  --      1.4215                 2.0587                 2.3358
 IR Inten    --      6.4452                22.1287                33.4205

                     55                     56                     57
                      A                      A                      A
 Frequencies --   1191.9506              1205.3804              1266.8671
 Red. masses --      3.5347                 2.5268                 1.5648
 Frc consts  --      2.9588                 2.1630                 1.4797
 IR Inten    --     64.7840                29.1616                20.1030

                     58                     59                     60
                      A                      A                      A
 Frequencies --   1299.7034              1303.2676              1330.9424
 Red. masses --      1.4676                 1.3237                 1.4532
 Frc consts  --      1.4606                 1.3246                 1.5167
 IR Inten    --      4.8684                14.0212                 3.6016

                     61                     62                     63
                      A                      A                      A
 Frequencies --   1345.3094              1380.2028              1382.5894
 Red. masses --      2.2126                 1.8654                 1.4213
 Frc consts  --      2.3594                 2.0937                 1.6007
 IR Inten    --     14.8153                 1.1801                 3.7090

                     64                     65                     66
                      A                      A                      A
 Frequencies --   1403.9901              1415.0883              1432.0665
 Red. masses --      1.3435                 1.6232                 1.2317
 Frc consts  --      1.5603                 1.9151                 1.4883
 IR Inten    --     13.9127                 1.9832                 2.6122

                     67                     68                     69
                      A                      A                      A
 Frequencies --   1440.6976              1445.4597              1493.8950
 Red. masses --      1.2471                 1.2524                 5.7025
 Frc consts  --      1.5251                 1.5417                 7.4982
 IR Inten    --      9.4054                 0.4587                 4.7842

                     70                     71                     72
                      A                      A                      A
 Frequencies --   1506.1185              1508.8252              1511.5110
 Red. masses --      1.0764                 1.0735                 1.0457
 Frc consts  --      1.4386                 1.4399                 1.4076
 IR Inten    --     11.3114                 0.0672                 6.0623

                     73                     74                     75
                      A                      A                      A
 Frequencies --   1515.8225              1521.2052              1524.9916
 Red. masses --      1.1472                 1.1327                 1.0989
 Frc consts  --      1.5530                 1.5444                 1.5057
 IR Inten    --     11.1272                 4.4173                 3.1599

                     76                     77                     78
                      A                      A                      A
 Frequencies --   1525.3008              1534.8948              1538.9647
 Red. masses --      1.0545                 1.0998                 1.0872
 Frc consts  --      1.4454                 1.5266                 1.5171
 IR Inten    --      6.9732                11.6881                 6.4576

                     79                     80                     81
                      A                      A                      A
 Frequencies --   1567.6927              1601.8753              1615.6145
 Red. masses --      6.1919                 5.0450                 6.3916
 Frc consts  --      8.9660                 7.6273                 9.8296
 IR Inten    --     19.0623                 0.8326                23.8374

                     82                     83                     84
                      A                      A                      A
 Frequencies --   3030.1291              3044.9600              3045.5852
 Red. masses --      1.0828                 1.0595                 1.0400
 Frc consts  --      5.8578                 5.7878                 5.6834
 IR Inten    --      6.3567                34.7382                45.0758

                     85                     86                     87
                      A                      A                      A
 Frequencies --   3049.4643              3050.3024              3052.0323
 Red. masses --      1.0392                 1.0605                 1.0381
 Frc consts  --      5.6940                 5.8136                 5.6971
 IR Inten    --     30.5109                19.8853                37.0778

                     88                     89                     90
                      A                      A                      A
 Frequencies --   3081.1503              3094.0711              3096.0136
 Red. masses --      1.1041                 1.1017                 1.0974
 Frc consts  --      6.1758                 6.2141                 6.1978
 IR Inten    --     24.6527                16.4455                16.3974

                     91                     92                     93
                      A                      A                      A
 Frequencies --   3112.1681              3118.1945              3136.1331
 Red. masses --      1.1020                 1.1033                 1.1013
 Frc consts  --      6.2885                 6.3203                 6.3818
 IR Inten    --     45.1526                43.3291                12.7731

                     94                     95                     96
                      A                      A                      A
 Frequencies --   3139.2790              3143.4295              3205.7916
 Red. masses --      1.0988                 1.1004                 1.0897
 Frc consts  --      6.3804                 6.4063                 6.5981
 IR Inten    --     35.5861                28.6374                 9.0918

                     97                     98                     99
                      A                      A                      A
 Frequencies --   3225.8079              3272.0953              3505.7513
 Red. masses --      1.0939                 1.0969                 1.0737
 Frc consts  --      6.7067                 6.9196                 7.7750
 IR Inten    --      8.6926                 1.4553                 0.8026

 - Thermochemistry -
 -------------------
 Temperature   298.150 Kelvin.  Pressure   1.00000 Atm.
 Atom     1 has atomic number  6 and mass  12.00000

 Molecular mass:   266.09114 amu.
 Principal axes and moments of inertia in atomic units:
                           1         2         3
     Eigenvalues --  3279.276046817.362269041.50357
           X            0.99901  -0.04434  -0.00310
           Y            0.04433   0.99901  -0.00306
           Z            0.00323   0.00292   0.99999
 This molecule is an asymmetric top.
 Rotational symmetry number  1.
 Warning -- assumption of classical behavior for rotation
           may cause significant error
 Rotational temperatures (Kelvin)      0.02641     0.01270     0.00958
 Rotational constants (GHZ):           0.55035     0.26473     0.19961
 Zero-point vibrational energy     762373.4 (Joules/Mol)
                                  182.21162 (Kcal/Mol)
 Warning -- explicit consideration of  27 degrees of freedom as
           vibrations may cause significant error
 Vibrational temperatures:     24.56    35.20    59.70    72.34    86.16
          (Kelvin)            121.54   128.97   141.57   195.03   234.68
                              264.35   302.88   340.45   355.24   372.92
                              413.14   441.49   456.08   530.57   557.07
                              643.97   678.37   734.63   766.42   781.11
                              841.27   861.97   935.61  1003.17  1014.26
                             1020.93  1042.84  1078.90  1108.08  1142.31
                             1159.37  1187.80  1215.34  1247.59  1266.70
                             1299.78  1313.75  1422.30  1472.46  1530.25
                             1538.94  1542.74  1572.55  1581.31  1599.88
                             1621.77  1644.40  1679.04  1711.43  1714.95
                             1734.27  1822.74  1869.98  1875.11  1914.93
                             1935.60  1985.80  1989.24  2020.03  2036.00
                             2060.42  2072.84  2079.69  2149.38  2166.97
                             2170.86  2174.73  2180.93  2188.67  2194.12
                             2194.57  2208.37  2214.23  2255.56  2304.74
                             2324.51  4359.68  4381.02  4381.92  4387.50
                             4388.70  4391.19  4433.09  4451.68  4454.47
                             4477.72  4486.39  4512.20  4516.72  4522.69
                             4612.42  4641.22  4707.82  5043.99

 Zero-point correction=                           0.290373 (Hartree/Particle)
 Thermal correction to Energy=                    0.308788
 Thermal correction to Enthalpy=                  0.309732
 Thermal correction to Gibbs Free Energy=         0.240836
 Sum of electronic and zero-point Energies=          -1411.872106
 Sum of electronic and thermal Energies=             -1411.853691
 Sum of electronic and thermal Enthalpies=           -1411.852747
 Sum of electronic and thermal Free Energies=        -1411.921643

                     E (Thermal)             CV                S
                      KCal/Mol        Cal/Mol-Kelvin    Cal/Mol-Kelvin
 Total                  193.768             67.201            145.006
 Electronic               0.000              0.000              0.000
 Translational            0.889              2.981             42.635
 Rotational               0.889              2.981             33.669
 Vibrational            191.990             61.240             68.702
 Vibration     1          0.593              1.986              6.949
 Vibration     2          0.593              1.985              6.234
 Vibration     3          0.594              1.981              5.186
 Vibration     4          0.595              1.977              4.806
 Vibration     5          0.597              1.973              4.461
 Vibration     6          0.601              1.960              3.784
 Vibration     7          0.602              1.957              3.668
 Vibration     8          0.604              1.950              3.486
 Vibration     9          0.613              1.918              2.866
 Vibration    10          0.623              1.888              2.513
 Vibration    11          0.631              1.862              2.290
 Vibration    12          0.643              1.825              2.039
 Vibration    13          0.656              1.785              1.828
 Vibration    14          0.661              1.768              1.753
 Vibration    15          0.668              1.747              1.667
 Vibration    16          0.684              1.698              1.491
 Vibration    17          0.697              1.661              1.379
 Vibration    18          0.704              1.641              1.326
 Vibration    19          0.741              1.536              1.085
 Vibration    20          0.756              1.498              1.011
 Vibration    21          0.807              1.366              0.803
 Vibration    22          0.828              1.313              0.733
 Vibration    23          0.866              1.227              0.632
 Vibration    24          0.888              1.178              0.581
 Vibration    25          0.898              1.155              0.559
 Vibration    26          0.942              1.064              0.477
 Vibration    27          0.957              1.034              0.451

 Optimization completed.
    -- Stationary point found.
 Normal termination of Gaussian 16 at Fri Dec 11 13:26:37 2020.

 ----------------------------------------------------------------------
 # B3LYP/6-311++G(d,p) empiricaldispersion=gd3bj scf=xqc pop=npa geom=c
 heck
 ----------------------------------------------------------------------

 --------------------------------------
 CID_61346764_JID_7915_Energie_neutraal
 --------------------------------------
 Structure from the checkpoint file:  "JID_7915.chk"
 Charge =  0 Multiplicity = 1

 SCF Done:  E(RB3LYP) =  -1412.38092435     A.U. after   16 cycles
 Normal termination of Gaussian 16 at Fri Dec 11 13:32:37 2020.

 ----------------------------------------------------------------------
 # B3LYP/6-311++G(d,p) empiricaldispersion=gd3bj scf=xqc pop=npa geom=c
 heck
 ----------------------------------------------------------------------

 ------------------------------------
 CID_61346764_JID_7915_Energie_kation
 ------------------------------------
 Structure from the checkpoint file:  "JID_7915.chk"
 Charge =  1 Multiplicity = 2

 SCF Done:  E(UB3LYP) =  -1412.10012476     A.U. after   28 cycles
 Normal termination of Gaussian 16 at Fri Dec 11 13:46:52 2020.
 Gaussian 16:  ES64L-G16RevA.03 25-Dec-2016

 ----------------------------------------------------------------------
 # B3LYP/6-311++G(d,p) empiricaldispersion=gd3bj scf=xqc pop=npa geom=c
 heck
 ----------------------------------------------------------------------

 -----------------------------------
 CID_61346764_JID_7915_Energie_anion
 -----------------------------------
 Structure from the checkpoint file:  "JID_7915.chk"
 Charge = -1 Multiplicity = 2

                         Standard orientation:
 ---------------------------------------------------------------------
 Center     Atomic      Atomic             Coordinates (Angstroms)
 Number     Number       Type             X           Y           Z
 ---------------------------------------------------------------------
      1          6           0        3.448316   -2.487171   -1.158063
      2          6           0        3.396617   -1.777344    0.203359
      3          6           0        2.574770   -0.519443    0.153171
      4          6           0        3.012440    0.771538    0.310260
      5         16           0        1.663056    1.877767    0.136828
      6          6           0        0.618629    0.493331   -0.137702
      7          7           0        1.217648   -0.654486   -0.100033
      8          6           0       -0.851562    0.705223   -0.443091
      9          6           0       -1.676559   -0.433101    0.123172
     10          6           0       -2.050719   -0.640166    1.424190
     11          6           0       -2.819520   -1.829340    1.607754
     12          6           0       -3.015609   -2.517672    0.442355
     13         16           0       -2.254449   -1.718898   -0.896894
     14          7           0       -1.227040    2.048674   -0.007939
     15          6           0       -2.388879    2.652967   -0.661335
     16          6           0       -3.757464    2.013126   -0.393626
     17          6           0        4.390329    1.285525    0.597393
     18          1           0        2.434193   -2.705661   -1.506136
     19          1           0        4.003705   -3.429231   -1.089742
     20          1           0        3.934985   -1.854887   -1.909184
     21          1           0        2.951223   -2.453159    0.944595
     22          1           0        4.411085   -1.553869    0.549320
     23          1           0       -0.958608    0.700739   -1.536718
     24          1           0       -1.782872    0.031283    2.233609
     25          1           0       -3.208254   -2.155111    2.566322
     26          1           0       -3.554683   -3.442627    0.290479
     27          1           0       -1.335812    2.068257    1.003959
     28          1           0       -2.410802    3.703939   -0.348330
     29          1           0       -2.184360    2.657555   -1.739553
     30          1           0       -3.965287    1.968219    0.681816
     31          1           0       -4.548966    2.606340   -0.867279
     32          1           0       -3.814729    0.993249   -0.783286
     33          1           0        4.749503    1.948012   -0.199405
     34          1           0        4.424451    1.853553    1.535015
     35          1           0        5.098528    0.457329    0.684360
 ---------------------------------------------------------------------

 SCF Done:  E(UB3LYP) =  -1412.36747505     A.U. after   33 cycles
 SCF Done:  E(UB3LYP) =  -1412.36759749     a.u. after    4 cycles

 The electronic state is 2-A.
 Alpha  occ. eigenvalues --  -88.77996 -88.76439 -14.21152 -14.19776 -10.13041
 Alpha  occ. eigenvalues --  -10.12266 -10.10658 -10.10264 -10.10138 -10.09474
 Alpha  occ. eigenvalues --  -10.09271 -10.08379 -10.07955 -10.07824 -10.07530
 Alpha  occ. eigenvalues --  -10.06377 -10.06147  -7.86612  -7.85048  -5.82891
 Alpha  occ. eigenvalues --   -5.82527  -5.82222  -5.81316  -5.80966  -5.80664
 Alpha  occ. eigenvalues --   -0.85724  -0.82380  -0.78354  -0.70545  -0.69348
 Alpha  occ. eigenvalues --   -0.67136  -0.64157  -0.63520  -0.62798  -0.59945
 Alpha  occ. eigenvalues --   -0.56844  -0.51932  -0.51660  -0.47163  -0.46694
 Alpha  occ. eigenvalues --   -0.45276  -0.42805  -0.41906  -0.39142  -0.36863
 Alpha  occ. eigenvalues --   -0.35660  -0.34628  -0.33680  -0.33196  -0.32401
 Alpha  occ. eigenvalues --   -0.32011  -0.31408  -0.30991  -0.30575  -0.29528
 Alpha  occ. eigenvalues --   -0.29054  -0.28723  -0.27666  -0.27423  -0.26127
 Alpha  occ. eigenvalues --   -0.25834  -0.25133  -0.24964  -0.24605  -0.23375
 Alpha  occ. eigenvalues --   -0.16898  -0.16722  -0.15881  -0.15005  -0.13282
 Alpha  occ. eigenvalues --   -0.12529   0.04289
 Alpha virt. eigenvalues --    0.05764   0.06355   0.06653   0.07192   0.07430
 Alpha virt. eigenvalues --    0.07645   0.08581   0.08760   0.09004   0.09356
 Alpha virt. eigenvalues --    0.09912   0.10637   0.10980   0.11280   0.11484

  Beta  occ. eigenvalues --  -88.77993 -88.76425 -14.21141 -14.19743 -10.13042
  Beta  occ. eigenvalues --  -10.12178 -10.10629 -10.10230 -10.10116 -10.09485
  Beta  occ. eigenvalues --  -10.09187 -10.08368 -10.07933 -10.07814 -10.07520
  Beta  occ. eigenvalues --  -10.06362 -10.06123  -7.86608  -7.85034  -5.82889
  Beta  occ. eigenvalues --   -5.82526  -5.82214  -5.81311  -5.80960  -5.80623
  Beta  occ. eigenvalues --   -0.85635  -0.82347  -0.78316  -0.70444  -0.69276
  Beta  occ. eigenvalues --   -0.67096  -0.64123  -0.63461  -0.62734  -0.59875
  Beta  occ. eigenvalues --   -0.56808  -0.51859  -0.51594  -0.47101  -0.46582
  Beta  occ. eigenvalues --   -0.45224  -0.42749  -0.41858  -0.39074  -0.36786
  Beta  occ. eigenvalues --   -0.35625  -0.34582  -0.33606  -0.33091  -0.32357
  Beta  occ. eigenvalues --   -0.31950  -0.31363  -0.30936  -0.30516  -0.29454
  Beta  occ. eigenvalues --   -0.28987  -0.28655  -0.27615  -0.27382  -0.26054
  Beta  occ. eigenvalues --   -0.25739  -0.25092  -0.24926  -0.24566  -0.23323
  Beta  occ. eigenvalues --   -0.16775  -0.16542  -0.15821  -0.14913  -0.13171
  Beta  occ. eigenvalues --   -0.12190
  Beta virt. eigenvalues --    0.06200   0.06479   0.06771   0.07123   0.07483
  Beta virt. eigenvalues --    0.07920   0.08001   0.08907   0.09056   0.09255
  Beta virt. eigenvalues --    0.09550   0.10209   0.10716   0.11118   0.11457

 Mulliken charges and spin densities:
               1          2
     1  C   -0.054374  -0.518781
     2  C   -0.562245   0.160879
     3  C   -2.126212   0.907151
     4  C    0.663885   0.485161
     5  S    0.158111  -0.684701
     6  C   -0.839734   0.146520
     7  N    0.353570   0.027798
     8  C    0.456591  -1.086460
     9  C    1.519065  -0.204858
    10  C   -2.128626   1.879309
    11  C    0.981239  -1.399935
    12  C   -0.695966   0.474545
    13  S    0.290206  -0.397882
    14  N    0.029653   0.023205
    15  C    0.040455  -0.163772
    16  C    0.287830  -0.783277
    17  C    2.267693  -2.368068
    18  H    0.086541   0.068664
    19  H   -0.103371   0.230996
    20  H    0.048185   0.079542
    21  H    0.130656   0.020465
    22  H   -0.200367   0.333171
    23  H   -0.357958   0.567902
    24  H   -0.393418   0.548656
    25  H   -0.154261   0.302662
    26  H    0.007485   0.217031
    27  H    0.206292   0.025750
    28  H   -0.261652   0.438881
    29  H    0.048172   0.086457
    30  H   -0.056159   0.188047
    31  H   -0.232490   0.378921
    32  H   -0.082758   0.232675
    33  H   -0.330344   0.498061
    34  H   -0.006931   0.151776
    35  H    0.011237   0.133508
 Sum of Mulliken charges =  -1.00000   1.00000

 Dipole moment (field-independent basis, Debye):
    X=             -1.0210    Y=             -1.9036    Z=              0.4336  Tot=              2.2032
 Quadrupole moment (field-independent basis, Debye-Ang):
   XX=           -204.3238   YY=           -164.6647   ZZ=           -147.1666
   XY=              7.5580   XZ=              5.0499   YZ=              3.1591

 Summary of Natural Population Analysis:

                                       Natural Population
                Natural  -----------------------------------------------
    Atom  No    Charge         Core      Valence    Rydberg      Total
 -----------------------------------------------------------------------
      C    1   -0.28094      0.99966     2.27709    0.00419     3.28094
      C    2   -0.19911      0.99960     2.19034    0.00917     3.19911
      C    3    0.05386      0.99941     1.93143    0.01530     2.94614
      C    4   -0.09867      0.99944     2.08738    0.01186     3.09867
      S    5    0.19998      4.99939     2.78246    0.01817     7.80002
      C    6    0.05900      0.99959     1.92365    0.01777     2.94100
      N    7   -0.24410      0.99962     2.73378    0.01071     3.74410
      C    8   -0.04745      0.99947     2.03210    0.01589     3.04745
      C    9   -0.08957      0.99948     2.07501    0.01508     3.08957
      C   10   -0.12968      0.99944     2.11949    0.01075     3.12968
      C   11   -0.12430      0.99954     2.11349    0.01127     3.12430
      C   12   -0.19602      0.99954     2.18599    0.01049     3.19602
      S   13    0.21538      4.99937     2.76475    0.02050     7.78462
      N   14   -0.33298      0.99975     2.82154    0.01169     3.83298
      C   15   -0.08355      0.99964     2.07316    0.01076     3.08355
      C   16   -0.29635      0.99966     2.29234    0.00435     3.29635
      C   17   -0.29892      0.99962     2.29264    0.00666     3.29892
      H   18    0.10385      0.00000     0.39465    0.00150     0.39615
      H   19    0.09369      0.00000     0.40524    0.00107     0.40631
      H   20    0.09561      0.00000     0.40313    0.00125     0.40439
      H   21    0.10193      0.00000     0.39687    0.00121     0.39807
      H   22    0.09796      0.00000     0.40076    0.00128     0.40204
      H   23    0.11024      0.00000     0.38762    0.00213     0.38976
      H   24    0.10632      0.00000     0.39227    0.00141     0.39368
      H   25    0.10547      0.00000     0.39356    0.00097     0.39453
      H   26    0.10748      0.00000     0.39168    0.00084     0.39252
      H   27    0.17509      0.00000     0.32247    0.00244     0.32491
      H   28    0.09227      0.00000     0.40666    0.00107     0.40773
      H   29    0.09029      0.00000     0.40856    0.00115     0.40971
      H   30    0.09772      0.00000     0.40068    0.00159     0.40228
      H   31    0.09738      0.00000     0.40145    0.00118     0.40262
      H   32    0.10180      0.00000     0.39647    0.00173     0.39820
      H   33    0.10747      0.00000     0.39067    0.00186     0.39253
      H   34    0.10231      0.00000     0.39674    0.00095     0.39769
      H   35    0.10655      0.00000     0.39220    0.00126     0.39345
 =======================================================================
   * Total *   -0.00000     24.99221    45.77831    0.22948    71.00000

 Normal termination of Gaussian 16 at Fri Dec 11 14:49:41 2020.
