 Gaussian 16, Revision A.03,

 -----------------------------------------------------------
 # opt freq B3LYP/6-31G(d) empiricaldispersion=gd3bj scf=xqc
 -----------------------------------------------------------

 -----------------------------
 CID_8912715_JID_9021_neutraal
 -----------------------------
 Symbolic Z-matrix:
 Charge =  0 Multiplicity = 1

 SCF Done:  E(RB3LYP) =  -1182.68846673     A.U. after   15 cycles
 SCF Done:  E(RB3LYP) =  -1182.69432571     A.U. after   13 cycles
 SCF Done:  E(RB3LYP) =  -1182.69507162     A.U. after   13 cycles
 SCF Done:  E(RB3LYP) =  -1182.69589812     A.U. after   12 cycles
 SCF Done:  E(RB3LYP) =  -1182.69624000     A.U. after   13 cycles
 SCF Done:  E(RB3LYP) =  -1182.69631989     A.U. after   13 cycles
 SCF Done:  E(RB3LYP) =  -1182.69654542     A.U. after   12 cycles
 SCF Done:  E(RB3LYP) =  -1182.69656669     A.U. after   11 cycles
 SCF Done:  E(RB3LYP) =  -1182.69657402     A.U. after    9 cycles
 SCF Done:  E(RB3LYP) =  -1182.69657647     A.U. after    8 cycles
 SCF Done:  E(RB3LYP) =  -1182.69658068     A.U. after   10 cycles
 SCF Done:  E(RB3LYP) =  -1182.69658217     A.U. after   10 cycles
 SCF Done:  E(RB3LYP) =  -1182.69658376     A.U. after    9 cycles
 SCF Done:  E(RB3LYP) =  -1182.69658496     A.U. after   10 cycles
 Optimization completed.
    -- Stationary point found.
 Normal termination of Gaussian 16 at Mon Dec 14 13:23:58 2020.

 --------------------------------------------------------------------
 #N Geom=AllCheck Guess=TCheck SCRF=Check GenChk RB3LYP/6-31G(d) Freq
 --------------------------------------------------------------------

 Structure from the checkpoint file:  "JID_9021.chk"
 -----------------------------
 CID_8912715_JID_9021_neutraal
 -----------------------------
 Charge =  0 Multiplicity = 1

 SCF Done:  E(RB3LYP) =  -1182.69658496     A.U. after    1 cycles

  Exact polarizability: 275.906   4.349 174.740  13.238   3.371 112.082
 Approx polarizability: 368.717   4.270 317.286  25.914   8.761 177.394

                      1                      2                      3
                      A                      A                      A
 Frequencies --     19.6974                29.8273                37.3866
 Red. masses --      5.1637                 4.7105                 4.4190
 Frc consts  --      0.0012                 0.0025                 0.0036
 IR Inten    --      1.0459                 0.9849                 2.4460

                      4                      5                      6
                      A                      A                      A
 Frequencies --     47.3845                61.8982                74.4381
 Red. masses --      3.3488                 4.9748                 4.4247
 Frc consts  --      0.0044                 0.0112                 0.0144
 IR Inten    --      0.6462                 0.4348                 0.5935

                      7                      8                      9
                      A                      A                      A
 Frequencies --    101.0089               120.4855               163.4327
 Red. masses --      3.5921                 7.3524                 4.4558
 Frc consts  --      0.0216                 0.0629                 0.0701
 IR Inten    --      0.7217                 0.9294                 1.3959

                     10                     11                     12
                      A                      A                      A
 Frequencies --    202.6054               220.5015               234.9631
 Red. masses --      5.9283                 1.5586                 1.0291
 Frc consts  --      0.1434                 0.0446                 0.0335
 IR Inten    --      1.4940                 1.2185                 0.0757

                     13                     14                     15
                      A                      A                      A
 Frequencies --    242.6873               246.1892               277.7680
 Red. masses --      3.2935                 1.1798                 1.6294
 Frc consts  --      0.1143                 0.0421                 0.0741
 IR Inten    --      4.0659                 1.3317                 1.3980

                     16                     17                     18
                      A                      A                      A
 Frequencies --    312.8048               330.7450               348.9336
 Red. masses --      4.0933                 2.7014                 2.8712
 Frc consts  --      0.2360                 0.1741                 0.2060
 IR Inten    --      5.2011                 0.5944                 2.4688

                     19                     20                     21
                      A                      A                      A
 Frequencies --    384.2118               410.4964               425.2632
 Red. masses --      6.8238                 4.0022                 2.6700
 Frc consts  --      0.5935                 0.3973                 0.2845
 IR Inten    --      2.4611                 6.1183                 3.6514

                     22                     23                     24
                      A                      A                      A
 Frequencies --    443.0037               448.3262               453.3294
 Red. masses --      3.3518                 2.5001                 1.9040
 Frc consts  --      0.3876                 0.2961                 0.2305
 IR Inten    --      1.9025                 6.2371                 1.5170

                     25                     26                     27
                      A                      A                      A
 Frequencies --    502.3062               515.1414               528.2655
 Red. masses --      5.7080                 8.0994                 2.7588
 Frc consts  --      0.8485                 1.2664                 0.4536
 IR Inten    --      6.9979                 0.4003                11.0800

                     28                     29                     30
                      A                      A                      A
 Frequencies --    551.8079               577.4444               612.7636
 Red. masses --      2.9939                 4.3938                 4.9461
 Frc consts  --      0.5371                 0.8632                 1.0942
 IR Inten    --     48.7826                 0.0786                13.2360

                     31                     32                     33
                      A                      A                      A
 Frequencies --    626.4229               651.9131               709.3894
 Red. masses --      1.6698                 7.5994                 3.3216
 Frc consts  --      0.3861                 1.9029                 0.9848
 IR Inten    --     41.2001                 8.0847                50.0560

                     34                     35                     36
                      A                      A                      A
 Frequencies --    721.0971               729.8420               743.8234
 Red. masses --      6.4356                 5.9303                 2.3027
 Frc consts  --      1.9716                 1.8611                 0.7506
 IR Inten    --      0.3472                28.6991                15.5381

                     37                     38                     39
                      A                      A                      A
 Frequencies --    775.5858               848.5363               867.7452
 Red. masses --      1.7799                 2.9415                 3.3105
 Frc consts  --      0.6308                 1.2478                 1.4687
 IR Inten    --     35.9507                 0.2310                29.7376

                     40                     41                     42
                      A                      A                      A
 Frequencies --    870.6947               882.0989               896.5449
 Red. masses --      1.4935                 5.3731                 2.8106
 Frc consts  --      0.6671                 2.4633                 1.3311
 IR Inten    --      5.0085                 8.6920                 1.6542

                     43                     44                     45
                      A                      A                      A
 Frequencies --    939.1323               944.6270               959.1429
 Red. masses --      1.1954                 1.3542                 1.4578
 Frc consts  --      0.6212                 0.7119                 0.7902
 IR Inten    --      3.8571                 1.4425                 0.0529

                     46                     47                     48
                      A                      A                      A
 Frequencies --    983.3437               987.6264              1001.2041
 Red. masses --      1.2562                 2.2522                 1.9415
 Frc consts  --      0.7157                 1.2943                 1.1467
 IR Inten    --      0.0195                12.5910                18.0012

                     49                     50                     51
                      A                      A                      A
 Frequencies --   1041.1581              1047.7753              1062.6714
 Red. masses --      1.8912                 2.2469                 2.1313
 Frc consts  --      1.2078                 1.4534                 1.4180
 IR Inten    --      3.9029                 4.1373                20.4362

                     52                     53                     54
                      A                      A                      A
 Frequencies --   1078.4375              1118.0844              1155.2562
 Red. masses --      4.0845                 3.2462                 1.4495
 Frc consts  --      2.7989                 2.3910                 1.1398
 IR Inten    --      9.4344                69.1658                 1.4333

                     55                     56                     57
                      A                      A                      A
 Frequencies --   1158.7255              1160.7014              1191.1928
 Red. masses --      1.9538                 1.4995                 1.5310
 Frc consts  --      1.5456                 1.1903                 1.2799
 IR Inten    --      9.6121                21.6576                 5.6223

                     58                     59                     60
                      A                      A                      A
 Frequencies --   1197.2847              1202.6130              1210.8110
 Red. masses --      1.5055                 1.8799                 2.5551
 Frc consts  --      1.2716                 1.6019                 2.2070
 IR Inten    --      3.1339                17.0560                35.5856

                     61                     62                     63
                      A                      A                      A
 Frequencies --   1230.4497              1279.7847              1290.3977
 Red. masses --      1.7389                 2.4158                 1.7269
 Frc consts  --      1.5512                 2.3312                 1.6942
 IR Inten    --      5.8439                13.4050                12.0013

                     64                     65                     66
                      A                      A                      A
 Frequencies --   1318.0205              1347.2443              1361.3116
 Red. masses --      2.0969                 1.4035                 1.3575
 Frc consts  --      2.1463                 1.5009                 1.4822
 IR Inten    --      5.0363                 7.4512                48.1156

                     67                     68                     69
                      A                      A                      A
 Frequencies --   1366.4899              1368.9711              1388.9090
 Red. masses --      3.9595                 1.4025                 1.5797
 Frc consts  --      4.3561                 1.5486                 1.7954
 IR Inten    --     18.8225                 4.0823                44.2595

                     70                     71                     72
                      A                      A                      A
 Frequencies --   1396.9373              1424.4105              1430.8038
 Red. masses --      1.3884                 1.2732                 2.2580
 Frc consts  --      1.5963                 1.5220                 2.7236
 IR Inten    --     27.8531                 7.1240                78.9052

                     73                     74                     75
                      A                      A                      A
 Frequencies --   1446.6626              1481.7125              1482.3418
 Red. masses --      1.2600                 1.7664                 1.3959
 Frc consts  --      1.5537                 2.2849                 1.8072
 IR Inten    --     24.9179                11.0541                 8.6393

                     76                     77                     78
                      A                      A                      A
 Frequencies --   1496.9917              1501.3777              1506.3320
 Red. masses --      1.4522                 1.1618                 2.4886
 Frc consts  --      1.9174                 1.5429                 3.3270
 IR Inten    --     56.7064                20.5903                 4.0716

                     79                     80                     81
                      A                      A                      A
 Frequencies --   1512.7147              1514.3674              1518.3351
 Red. masses --      1.0592                 1.0785                 1.0455
 Frc consts  --      1.4281                 1.4573                 1.4201
 IR Inten    --      7.2235                10.3138                 1.5622

                     82                     83                     84
                      A                      A                      A
 Frequencies --   1531.8558              1536.3781              1538.4021
 Red. masses --      1.0793                 1.1453                 1.0483
 Frc consts  --      1.4922                 1.5928                 1.4618
 IR Inten    --      1.3867                14.2230                 6.2173

                     85                     86                     87
                      A                      A                      A
 Frequencies --   1546.2771              1574.7757              1616.1783
 Red. masses --      1.0837                 7.4615                 5.5843
 Frc consts  --      1.5267                10.9022                 8.5941
 IR Inten    --     15.3100                40.2597                 3.0037

                     88                     89                     90
                      A                      A                      A
 Frequencies --   1658.6348              1770.7982              3000.4172
 Red. masses --      6.2829                 7.6352                 1.0508
 Frc consts  --     10.1839                14.1061                 5.5738
 IR Inten    --      2.9191               415.3035                46.8423

                     91                     92                     93
                      A                      A                      A
 Frequencies --   3026.9806              3045.6060              3050.6578
 Red. masses --      1.0641                 1.0377                 1.0386
 Frc consts  --      5.7447                 5.6711                 5.6949
 IR Inten    --     29.9782                15.5750                35.4421

                     94                     95                     96
                      A                      A                      A
 Frequencies --   3079.9139              3082.9251              3084.4422
 Red. masses --      1.0976                 1.0656                 1.0788
 Frc consts  --      6.1345                 5.9670                 6.0473
 IR Inten    --     23.8183                13.4932                56.2847

                     97                     98                     99
                      A                      A                      A
 Frequencies --   3105.8841              3109.4433              3132.3313
 Red. masses --      1.0921                 1.1008                 1.1023
 Frc consts  --      6.2072                 6.2711                 6.3723
 IR Inten    --     14.4451                 1.9496                20.6905

                    100                    101                    102
                      A                      A                      A
 Frequencies --   3132.4290              3134.7169              3136.8547
 Red. masses --      1.0927                 1.1023                 1.1053
 Frc consts  --      6.3173                 6.3818                 6.4078
 IR Inten    --     42.8407                26.9451                12.6076

                    103                    104                    105
                      A                      A                      A
 Frequencies --   3152.3447              3189.8382              3202.1329
 Red. masses --      1.1004                 1.0857                 1.0896
 Frc consts  --      6.4425                 6.5088                 6.5824
 IR Inten    --     23.3413                 1.6367                10.4869

                    106                    107                    108
                      A                      A                      A
 Frequencies --   3212.8577              3220.4932              3563.5342
 Red. masses --      1.0944                 1.0959                 1.0750
 Frc consts  --      6.6558                 6.6969                 8.0429
 IR Inten    --     22.5063                17.2459                15.1399

 - Thermochemistry -
 -------------------
 Temperature   298.150 Kelvin.  Pressure   1.00000 Atm.
 Atom     1 has atomic number  6 and mass  12.00000

 Molecular mass:   277.12488 amu.
 Principal axes and moments of inertia in atomic units:
                           1         2         3
     Eigenvalues --  1800.88410********************
           X            0.99998   0.00581   0.00234
           Y           -0.00581   0.99998  -0.00155
           Z           -0.00235   0.00153   1.00000
 This molecule is an asymmetric top.
 Rotational symmetry number  1.
 Warning -- assumption of classical behavior for rotation
           may cause significant error
 Rotational temperatures (Kelvin)      0.04810     0.00761     0.00698
 Rotational constants (GHZ):           1.00214     0.15862     0.14537
 Zero-point vibrational energy     836131.5 (Joules/Mol)
                                  199.84022 (Kcal/Mol)
 Warning -- explicit consideration of  30 degrees of freedom as
           vibrations may cause significant error
 Vibrational temperatures:     28.34    42.91    53.79    68.18    89.06
          (Kelvin)            107.10   145.33   173.35   235.14   291.50
                              317.25   338.06   349.17   354.21   399.65
                              450.06   475.87   502.04   552.80   590.61
                              611.86   637.38   645.04   652.24   722.71
                              741.17   760.06   793.93   830.81   881.63
                              901.28   937.96  1020.65  1037.50  1050.08
                             1070.20  1115.89  1220.85  1248.49  1252.74
                             1269.14  1289.93  1351.20  1359.11  1379.99
                             1414.81  1420.97  1440.51  1497.99  1507.52
                             1528.95  1551.63  1608.67  1662.16  1667.15
                             1669.99  1713.86  1722.63  1730.29  1742.09
                             1770.34  1841.32  1856.59  1896.34  1938.38
                             1958.62  1966.07  1969.64  1998.33  2009.88
                             2049.41  2058.61  2081.42  2131.85  2132.76
                             2153.84  2160.15  2167.28  2176.46  2178.84
                             2184.55  2204.00  2210.51  2213.42  2224.75
                             2265.75  2325.32  2386.41  2547.78  4316.93
                             4355.15  4381.95  4389.22  4431.31  4435.64
                             4437.82  4468.67  4473.80  4506.73  4506.87
                             4510.16  4513.23  4535.52  4589.47  4607.16
                             4622.59  4633.57  5127.13

 Zero-point correction=                           0.318466 (Hartree/Particle)
 Thermal correction to Energy=                    0.337241
 Thermal correction to Enthalpy=                  0.338185
 Thermal correction to Gibbs Free Energy=         0.269339
 Sum of electronic and zero-point Energies=          -1182.378119
 Sum of electronic and thermal Energies=             -1182.359344
 Sum of electronic and thermal Enthalpies=           -1182.358400
 Sum of electronic and thermal Free Energies=        -1182.427246

                     E (Thermal)             CV                S
                      KCal/Mol        Cal/Mol-Kelvin    Cal/Mol-Kelvin
 Total                  211.622             71.059            144.900
 Electronic               0.000              0.000              0.000
 Translational            0.889              2.981             42.756
 Rotational               0.889              2.981             33.897
 Vibrational            209.845             65.098             68.247
 Vibration     1          0.593              1.986              6.664
 Vibration     2          0.594              1.984              5.841
 Vibration     3          0.594              1.982              5.393
 Vibration     4          0.595              1.979              4.924
 Vibration     5          0.597              1.972              4.396
 Vibration     6          0.599              1.966              4.032
 Vibration     7          0.604              1.948              3.435
 Vibration     8          0.609              1.932              3.093
 Vibration     9          0.623              1.887              2.510
 Vibration    10          0.639              1.836              2.109
 Vibration    11          0.647              1.810              1.955
 Vibration    12          0.655              1.787              1.841
 Vibration    13          0.659              1.775              1.783
 Vibration    14          0.661              1.769              1.758
 Vibration    15          0.679              1.715              1.547
 Vibration    16          0.701              1.649              1.347
 Vibration    17          0.713              1.614              1.256
 Vibration    18          0.726              1.577              1.171
 Vibration    19          0.753              1.504              1.023
 Vibration    20          0.775              1.447              0.925
 Vibration    21          0.787              1.415              0.874
 Vibration    22          0.803              1.376              0.817
 Vibration    23          0.807              1.365              0.801
 Vibration    24          0.812              1.354              0.786
 Vibration    25          0.858              1.245              0.652
 Vibration    26          0.870              1.216              0.621
 Vibration    27          0.883              1.187              0.591
 Vibration    28          0.907              1.136              0.540
 Vibration    29          0.934              1.080              0.490
 Vibration    30          0.972              1.005              0.428

                           ! Non-Optimized Parameters !
 Normal termination of Gaussian 16 at Mon Dec 14 13:41:52 2020.

 ----------------------------------------------------------------------
 # B3LYP/6-311++G(d,p) empiricaldispersion=gd3bj scf=xqc pop=npa geom=c
 heck
 ----------------------------------------------------------------------

 -------------------------------------
 CID_8912715_JID_9021_Energie_neutraal
 -------------------------------------
 Structure from the checkpoint file:  "JID_9021.chk"
 Charge =  0 Multiplicity = 1

 SCF Done:  E(RB3LYP) =  -1182.93676490     A.U. after   16 cycles
 Normal termination of Gaussian 16 at Mon Dec 14 13:51:07 2020.

 ----------------------------------------------------------------------
 # B3LYP/6-311++G(d,p) empiricaldispersion=gd3bj scf=xqc pop=npa geom=c
 heck
 ----------------------------------------------------------------------

 -----------------------------------
 CID_8912715_JID_9021_Energie_kation
 -----------------------------------
 Structure from the checkpoint file:  "JID_9021.chk"
 Charge =  1 Multiplicity = 2

 SCF Done:  E(UB3LYP) =  -1182.64446220     A.U. after   33 cycles
 SCF Done:  E(UB3LYP) =  -1182.64738922     a.u. after   11 cycles
 Normal termination of Gaussian 16 at Mon Dec 14 17:38:35 2020.
 Gaussian 16:  ES64L-G16RevA.03 25-Dec-2016

 ----------------------------------------------------------------------
 # B3LYP/6-311++G(d,p) empiricaldispersion=gd3bj scf=xqc pop=npa geom=c
 heck
 ----------------------------------------------------------------------

 ----------------------------------
 CID_8912715_JID_9021_Energie_anion
 ----------------------------------
 Structure from the checkpoint file:  "JID_9021.chk"
 Charge = -1 Multiplicity = 2

                         Standard orientation:
 ---------------------------------------------------------------------
 Center     Atomic      Atomic             Coordinates (Angstroms)
 Number     Number       Type             X           Y           Z
 ---------------------------------------------------------------------
      1          6           0        4.474840    1.067647    1.177743
      2          6           0        4.440762    0.217188   -0.096724
      3          6           0        5.842700   -0.186235   -0.561864
      4          7           0        3.629396   -0.986366    0.096722
      5          6           0        2.327454   -1.215298   -0.237151
      6          8           0        1.734246   -2.220913    0.147126
      7          6           0        1.623997   -0.163104   -1.093397
      8          7           0        1.336740    1.038206   -0.307899
      9          6           0        0.816650    2.117785   -1.140682
     10          6           0        0.516239    0.788659    0.885664
     11          6           0       -0.922841    0.417832    0.618649
     12          7           0       -1.872464    1.300213    0.557107
     13          6           0       -3.090303    0.713438    0.249206
     14          6           0       -4.306361    1.397459    0.114452
     15          6           0       -5.452223    0.676930   -0.196256
     16          6           0       -5.401677   -0.717101   -0.373421
     17          6           0       -4.204576   -1.414460   -0.243506
     18          6           0       -3.050780   -0.691244    0.068891
     19         16           0       -1.411182   -1.263383    0.292256
     20          1           0        4.904024    0.500449    2.012859
     21          1           0        3.461645    1.379062    1.442787
     22          1           0        5.087847    1.963705    1.027971
     23          1           0        3.961217    0.803428   -0.883019
     24          1           0        6.345172   -0.795009    0.200636
     25          1           0        5.795200   -0.769930   -1.486399
     26          1           0        6.460498    0.700618   -0.737898
     27          1           0        4.005713   -1.693083    0.720484
     28          1           0        2.257124    0.135441   -1.936712
     29          1           0        0.725791   -0.643567   -1.507591
     30          1           0       -0.128603    1.868182   -1.649336
     31          1           0        0.637415    2.999523   -0.518649
     32          1           0        1.564066    2.371498   -1.900480
     33          1           0        1.000073    0.011153    1.481950
     34          1           0        0.498714    1.711125    1.473818
     35          1           0       -4.328279    2.473301    0.254829
     36          1           0       -6.400731    1.194744   -0.303937
     37          1           0       -6.310962   -1.259878   -0.614830
     38          1           0       -4.169974   -2.490660   -0.380740
 ---------------------------------------------------------------------

 SCF Done:  E(UB3LYP) =  -1182.93345446     A.U. after   33 cycles
 SCF Done:  E(UB3LYP) =  -1182.93345446     a.u. after    1 cycles

 The electronic state is 2-A.
 Alpha  occ. eigenvalues --  -88.75430 -18.99176 -14.24127 -14.21684 -14.18899
 Alpha  occ. eigenvalues --  -10.17732 -10.12406 -10.10642 -10.10570 -10.10041
 Alpha  occ. eigenvalues --  -10.09325 -10.09173 -10.08925 -10.07324 -10.07085
 Alpha  occ. eigenvalues --  -10.07025 -10.06694 -10.06440 -10.06204  -7.84070
 Alpha  occ. eigenvalues --   -5.80361  -5.80013  -5.79638  -0.94269  -0.84905
 Alpha  occ. eigenvalues --   -0.83485  -0.82457  -0.74045  -0.68789  -0.68341
 Alpha  occ. eigenvalues --   -0.65327  -0.63298  -0.62703  -0.60112  -0.59944
 Alpha  occ. eigenvalues --   -0.53418  -0.52254  -0.50013  -0.48743  -0.48229
 Alpha  occ. eigenvalues --   -0.44838  -0.41071  -0.39875  -0.39098  -0.37847
 Alpha  occ. eigenvalues --   -0.37501  -0.36787  -0.35843  -0.34745  -0.33891
 Alpha  occ. eigenvalues --   -0.33366  -0.33133  -0.31162  -0.30399  -0.30260
 Alpha  occ. eigenvalues --   -0.30078  -0.29563  -0.28831  -0.28529  -0.28125
 Alpha  occ. eigenvalues --   -0.27569  -0.27245  -0.25941  -0.25496  -0.25407
 Alpha  occ. eigenvalues --   -0.23148  -0.22659  -0.19066  -0.16699  -0.16226
 Alpha  occ. eigenvalues --   -0.15959  -0.13426  -0.12799  -0.12320   0.03942
 Alpha virt. eigenvalues --    0.05339   0.07050   0.07283   0.07638   0.08250
 Alpha virt. eigenvalues --    0.08734   0.08949   0.09592   0.09783   0.10039
 Alpha virt. eigenvalues --    0.10334   0.10952   0.11262   0.11490   0.11872

  Beta  occ. eigenvalues --  -88.75410 -18.99168 -14.24117 -14.21630 -14.18835
  Beta  occ. eigenvalues --  -10.17730 -10.12396 -10.10636 -10.10216 -10.10064
  Beta  occ. eigenvalues --  -10.09332 -10.09165 -10.08875 -10.07279 -10.07074
  Beta  occ. eigenvalues --  -10.07019 -10.06663 -10.06306 -10.06073  -7.84053
  Beta  occ. eigenvalues --   -5.80355  -5.80009  -5.79566  -0.94255  -0.84655
  Beta  occ. eigenvalues --   -0.83427  -0.82370  -0.73863  -0.68751  -0.68184
  Beta  occ. eigenvalues --   -0.65122  -0.63231  -0.62503  -0.60033  -0.59851
  Beta  occ. eigenvalues --   -0.53263  -0.52163  -0.49836  -0.48647  -0.48139
  Beta  occ. eigenvalues --   -0.44638  -0.41002  -0.39795  -0.39026  -0.37733
  Beta  occ. eigenvalues --   -0.37359  -0.36679  -0.35746  -0.34677  -0.33835
  Beta  occ. eigenvalues --   -0.33323  -0.33050  -0.31014  -0.30248  -0.30068
  Beta  occ. eigenvalues --   -0.29930  -0.29491  -0.28775  -0.28428  -0.28081
  Beta  occ. eigenvalues --   -0.27495  -0.27156  -0.25888  -0.25437  -0.25325
  Beta  occ. eigenvalues --   -0.22609  -0.22417  -0.18612  -0.16650  -0.16155
  Beta  occ. eigenvalues --   -0.15933  -0.12771  -0.12378  -0.11798
  Beta virt. eigenvalues --    0.06153   0.07040   0.07571   0.07817   0.08038
  Beta virt. eigenvalues --    0.08692   0.08719   0.09191   0.09650   0.09927
  Beta virt. eigenvalues --    0.10140   0.10440   0.11064   0.11436   0.11640

 Mulliken charges and spin densities:
               1          2
     1  C    0.508319  -1.011746
     2  C   -1.062662   1.063145
     3  C    0.930515  -1.424857
     4  N   -0.029380   0.011479
     5  C    0.184139  -0.308051
     6  O   -0.264645  -0.001173
     7  C   -0.673964   0.115926
     8  N    0.488345  -0.010244
     9  C   -0.230396  -0.103067
    10  C   -0.587998  -0.024508
    11  C    0.291487   0.178555
    12  N    0.213896   0.019020
    13  C   -1.588986  -0.041092
    14  C   -0.781873   0.129118
    15  C   -0.372998  -0.030220
    16  C   -0.028084   0.109907
    17  C    0.092181   0.033613
    18  C    1.975981  -0.001763
    19  S   -0.742527   0.007517
    20  H   -0.057931   0.190714
    21  H    0.030765   0.152590
    22  H   -0.190596   0.325093
    23  H    0.261916  -0.092959
    24  H   -0.246927   0.383788
    25  H   -0.205280   0.359619
    26  H   -0.369898   0.524341
    27  H    0.274473  -0.000459
    28  H   -0.036417   0.188039
    29  H    0.146024  -0.029996
    30  H    0.155894   0.011859
    31  H    0.115063   0.035055
    32  H   -0.007646   0.130469
    33  H    0.190649   0.022393
    34  H    0.086695   0.104599
    35  H    0.141284  -0.007317
    36  H    0.126533   0.002660
    37  H    0.125680  -0.008778
    38  H    0.138366  -0.003269
 Sum of Mulliken charges =  -1.00000   1.00000

 Dipole moment (field-independent basis, Debye):
    X=             -4.4390    Y=             -0.0993    Z=             -0.7827  Tot=              4.5086
 Quadrupole moment (field-independent basis, Debye-Ang):
   XX=           -231.6926   YY=           -152.1118   ZZ=           -141.5707
   XY=             -3.3258   XZ=              4.5301   YZ=             -0.6747

 Summary of Natural Population Analysis:

                                       Natural Population
                Natural  -----------------------------------------------
    Atom  No    Charge         Core      Valence    Rydberg      Total
 -----------------------------------------------------------------------
      C    1   -0.28801      0.99964     2.28206    0.00632     3.28801
      C    2   -0.01540      0.99961     2.00469    0.01110     3.01540
      C    3   -0.28614      0.99965     2.28071    0.00578     3.28614
      N    4   -0.31562      0.99965     2.80557    0.01039     3.81562
      C    5    0.33857      0.99967     1.63791    0.02385     2.66143
      O    6   -0.32274      0.99988     3.31722    0.00564     4.32274
      C    7   -0.12969      0.99957     2.11986    0.01026     3.12969
      N    8   -0.27255      0.99974     2.76120    0.01162     3.77255
      C    9   -0.17741      0.99964     2.16947    0.00829     3.17741
      C   10   -0.11316      0.99954     2.10019    0.01342     3.11316
      C   11    0.10260      0.99960     1.88023    0.01757     2.89740
      N   12   -0.24539      0.99963     2.73474    0.01102     3.74539
      C   13    0.06206      0.99943     1.92570    0.01280     2.93794
      C   14   -0.07629      0.99952     2.06817    0.00860     3.07629
      C   15   -0.12280      0.99958     2.11411    0.00911     3.12280
      C   16   -0.08705      0.99958     2.07812    0.00936     3.08705
      C   17   -0.10332      0.99951     2.09412    0.00969     3.10332
      C   18   -0.10761      0.99941     2.09788    0.01032     3.10761
      S   19    0.18648      4.99944     2.79593    0.01815     7.81352
      H   20    0.09439      0.00000     0.40462    0.00099     0.40561
      H   21    0.10898      0.00000     0.38968    0.00134     0.39102
      H   22    0.10087      0.00000     0.39806    0.00107     0.39913
      H   23    0.10067      0.00000     0.39684    0.00249     0.39933
      H   24    0.09640      0.00000     0.40236    0.00124     0.40360
      H   25    0.10198      0.00000     0.39690    0.00112     0.39802
      H   26    0.10448      0.00000     0.39394    0.00158     0.39552
      H   27    0.19085      0.00000     0.30698    0.00217     0.30915
      H   28    0.09941      0.00000     0.39935    0.00124     0.40059
      H   29    0.10075      0.00000     0.39764    0.00161     0.39925
      H   30    0.08882      0.00000     0.40997    0.00121     0.41118
      H   31    0.09892      0.00000     0.40014    0.00094     0.40108
      H   32    0.09022      0.00000     0.40898    0.00079     0.40978
      H   33    0.10644      0.00000     0.39259    0.00097     0.39356
      H   34    0.10745      0.00000     0.39109    0.00146     0.39255
      H   35    0.09930      0.00000     0.39936    0.00134     0.40070
      H   36    0.09392      0.00000     0.40509    0.00098     0.40608
      H   37    0.09228      0.00000     0.40675    0.00097     0.40772
      H   38    0.09733      0.00000     0.40123    0.00144     0.40267
 =======================================================================
   * Total *    0.00000     22.99228    50.76945    0.23827    74.00000

 Normal termination of Gaussian 16 at Mon Dec 14 18:06:31 2020.
