 Gaussian 16, Revision A.03,

 -----------------------------------------------------------
 # opt freq B3LYP/6-31G(d) empiricaldispersion=gd3bj scf=xqc
 -----------------------------------------------------------

 -------------------------------
 CID_151492888_JID_5200_neutraal
 -------------------------------
 Symbolic Z-matrix:
 Charge =  0 Multiplicity = 1

 SCF Done:  E(RB3LYP) =  -670.370187623     A.U. after   14 cycles
 SCF Done:  E(RB3LYP) =  -670.379017489     A.U. after   13 cycles
 SCF Done:  E(RB3LYP) =  -670.380845988     A.U. after   13 cycles
 SCF Done:  E(RB3LYP) =  -670.382317471     A.U. after   13 cycles
 SCF Done:  E(RB3LYP) =  -670.383503345     A.U. after   13 cycles
 SCF Done:  E(RB3LYP) =  -670.384263698     A.U. after   13 cycles
 SCF Done:  E(RB3LYP) =  -670.384403055     A.U. after   12 cycles
 SCF Done:  E(RB3LYP) =  -670.384665346     A.U. after   11 cycles
 SCF Done:  E(RB3LYP) =  -670.384752904     A.U. after   12 cycles
 SCF Done:  E(RB3LYP) =  -670.384773919     A.U. after   11 cycles
 SCF Done:  E(RB3LYP) =  -670.384789550     A.U. after    8 cycles
 SCF Done:  E(RB3LYP) =  -670.384789758     A.U. after    8 cycles
 SCF Done:  E(RB3LYP) =  -670.384789893     A.U. after    8 cycles
 SCF Done:  E(RB3LYP) =  -670.384789974     A.U. after    8 cycles
 SCF Done:  E(RB3LYP) =  -670.384790010     A.U. after    7 cycles
 Optimization completed.
    -- Stationary point found.
 Normal termination of Gaussian 16 at Thu Dec 10 14:51:32 2020.

 --------------------------------------------------------------------
 #N Geom=AllCheck Guess=TCheck SCRF=Check GenChk RB3LYP/6-31G(d) Freq
 --------------------------------------------------------------------

 Structure from the checkpoint file:  "JID_5200.chk"
 -------------------------------
 CID_151492888_JID_5200_neutraal
 -------------------------------
 Charge =  0 Multiplicity = 1

 SCF Done:  E(RB3LYP) =  -670.384790010     A.U. after    1 cycles

  Exact polarizability: 183.755   5.789  96.324   1.496   9.728 107.898
 Approx polarizability: 256.582  10.626 145.585   6.472  23.897 186.858

                      1                      2                      3
                      A                      A                      A
 Frequencies --     24.3066                40.8091                78.9924
 Red. masses --      7.0324                 4.0744                 3.3284
 Frc consts  --      0.0024                 0.0040                 0.0122
 IR Inten    --      0.6631                 0.1383                 1.3825

                      4                      5                      6
                      A                      A                      A
 Frequencies --     86.3381               107.4975               170.3560
 Red. masses --      5.1064                 5.5258                 3.6484
 Frc consts  --      0.0224                 0.0376                 0.0624
 IR Inten    --      1.3067                 3.8088                 1.3192

                      7                      8                      9
                      A                      A                      A
 Frequencies --    225.1145               270.3899               295.8071
 Red. masses --      6.1011                 3.9681                 2.2148
 Frc consts  --      0.1822                 0.1709                 0.1142
 IR Inten    --      1.4116                 1.5828                 1.3719

                     10                     11                     12
                      A                      A                      A
 Frequencies --    343.8055               388.2062               399.7702
 Red. masses --      5.8364                 5.3301                 4.7111
 Frc consts  --      0.4065                 0.4733                 0.4436
 IR Inten    --      5.4414                15.7037                 0.5465

                     13                     14                     15
                      A                      A                      A
 Frequencies --    416.4813               447.3882               523.6118
 Red. masses --      2.9714                 2.3253                 3.8359
 Frc consts  --      0.3037                 0.2742                 0.6196
 IR Inten    --      0.2938                 4.0806                13.1365

                     16                     17                     18
                      A                      A                      A
 Frequencies --    550.4798               578.7238               626.0709
 Red. masses --      3.5090                 4.0508                 2.4594
 Frc consts  --      0.6265                 0.7994                 0.5680
 IR Inten    --      2.8223                12.6856                32.6422

                     19                     20                     21
                      A                      A                      A
 Frequencies --    629.6905               641.8383               707.5549
 Red. masses --      5.4697                 6.0466                 5.0852
 Frc consts  --      1.2778                 1.4676                 1.5000
 IR Inten    --      2.6264                 1.6039                 5.2430

                     22                     23                     24
                      A                      A                      A
 Frequencies --    713.7559               755.5588               773.1968
 Red. masses --      1.7716                 1.3784                 2.0039
 Frc consts  --      0.5318                 0.4636                 0.7058
 IR Inten    --     29.1917                83.7588                27.3927

                     25                     26                     27
                      A                      A                      A
 Frequencies --    784.9800               854.4002               865.7871
 Red. masses --      2.3574                 1.2536                 3.7852
 Frc consts  --      0.8559                 0.5392                 1.6717
 IR Inten    --      1.7668                 0.1219                39.3097

                     28                     29                     30
                      A                      A                      A
 Frequencies --    876.6058               905.1077               911.2060
 Red. masses --      2.4663                 2.0056                 1.6623
 Frc consts  --      1.1166                 0.9681                 0.8132
 IR Inten    --     19.2235                 2.6454                 2.2112

                     31                     32                     33
                      A                      A                      A
 Frequencies --    940.2471               961.9572               986.7849
 Red. masses --      2.1207                 1.3543                 2.7527
 Frc consts  --      1.1046                 0.7384                 1.5793
 IR Inten    --      1.1439                 0.0610                 9.7009

                     34                     35                     36
                      A                      A                      A
 Frequencies --    992.4106              1023.4016              1062.9218
 Red. masses --      1.2570                 6.1700                 2.1734
 Frc consts  --      0.7294                 3.8074                 1.4468
 IR Inten    --      0.3368                 1.2946                 2.5403

                     37                     38                     39
                      A                      A                      A
 Frequencies --   1072.8619              1087.3075              1113.7635
 Red. masses --      2.1736                 2.2736                 1.7769
 Frc consts  --      1.4741                 1.5837                 1.2986
 IR Inten    --     11.0898                 1.2308                 1.8204

                     40                     41                     42
                      A                      A                      A
 Frequencies --   1126.2016              1177.9166              1194.6357
 Red. masses --      2.1142                 1.2702                 1.0966
 Frc consts  --      1.5799                 1.0384                 0.9221
 IR Inten    --      2.0569                 5.1880                 0.0507

                     43                     44                     45
                      A                      A                      A
 Frequencies --   1218.7240              1229.9806              1246.0258
 Red. masses --      1.1441                 1.7369                 1.6538
 Frc consts  --      1.0012                 1.5482                 1.5129
 IR Inten    --      0.2779                42.0493               107.3830

                     46                     47                     48
                      A                      A                      A
 Frequencies --   1262.4677              1283.2995              1311.7518
 Red. masses --      2.2740                 1.4292                 1.8901
 Frc consts  --      2.1354                 1.3867                 1.9161
 IR Inten    --    119.5835               123.5365                75.5576

                     49                     50                     51
                      A                      A                      A
 Frequencies --   1351.2588              1362.6195              1371.4801
 Red. masses --      1.8625                 2.4748                 1.6388
 Frc consts  --      2.0037                 2.7073                 1.8162
 IR Inten    --     64.5349                11.3057                 5.1889

                     52                     53                     54
                      A                      A                      A
 Frequencies --   1379.7630              1399.9982              1410.9317
 Red. masses --      1.4931                 1.6738                 1.5634
 Frc consts  --      1.6747                 1.9328                 1.8337
 IR Inten    --      2.9188                42.5285                13.6280

                     55                     56                     57
                      A                      A                      A
 Frequencies --   1416.7826              1460.0630              1495.7834
 Red. masses --      1.5607                 1.6627                 1.0862
 Frc consts  --      1.8458                 2.0884                 1.4319
 IR Inten    --     37.7389                44.2917                 6.9733

                     58                     59                     60
                      A                      A                      A
 Frequencies --   1505.4049              1519.8345              1522.4733
 Red. masses --      2.1876                 1.0886                 1.0940
 Frc consts  --      2.9210                 1.4815                 1.4941
 IR Inten    --      6.5222                 9.2390                 3.2718

                     61                     62                     63
                      A                      A                      A
 Frequencies --   1550.3762              1649.5903              1670.1023
 Red. masses --      2.2458                 5.5533                 5.6347
 Frc consts  --      3.1806                 8.9033                 9.2599
 IR Inten    --      8.7654                 1.0503                 1.8924

                     64                     65                     66
                      A                      A                      A
 Frequencies --   1789.8470              1795.6348              3014.8629
 Red. masses --      8.8696                 9.7136                 1.0813
 Frc consts  --     16.7412                18.4529                 5.7906
 IR Inten    --    297.7319               276.3203                 8.2654

                     67                     68                     69
                      A                      A                      A
 Frequencies --   3029.8942              3042.2481              3049.2752
 Red. masses --      1.0712                 1.0657                 1.0630
 Frc consts  --      5.7940                 5.8113                 5.8234
 IR Inten    --      3.5462                17.9292                27.9036

                     70                     71                     72
                      A                      A                      A
 Frequencies --   3086.2192              3098.2806              3130.7023
 Red. masses --      1.1002                 1.0998                 1.0923
 Frc consts  --      6.1743                 6.2201                 6.3077
 IR Inten    --     34.3701                21.6601                11.8023

                     73                     74                     75
                      A                      A                      A
 Frequencies --   3174.3632              3185.3477              3194.7863
 Red. masses --      1.0872                 1.0861                 1.0902
 Frc consts  --      6.4544                 6.4928                 6.5558
 IR Inten    --      9.9349                 0.4043                17.5510

                     76                     77                     78
                      A                      A                      A
 Frequencies --   3203.6330              3212.7681              3553.3726
 Red. masses --      1.0940                 1.0980                 1.0751
 Frc consts  --      6.6152                 6.6775                 7.9977
 IR Inten    --     40.0152                16.1238                41.5895

 - Thermochemistry -
 -------------------
 Temperature   298.150 Kelvin.  Pressure   1.00000 Atm.
 Atom     1 has atomic number  6 and mass  12.00000

 Molecular mass:   203.09463 amu.
 Principal axes and moments of inertia in atomic units:
                           1         2         3
     Eigenvalues --  1201.777265459.073105958.54310
           X            0.99993   0.01131  -0.00347
           Y           -0.01127   0.99988   0.01040
           Z            0.00359  -0.01036   0.99994
 This molecule is an asymmetric top.
 Rotational symmetry number  1.
 Warning -- assumption of classical behavior for rotation
           may cause significant error
 Rotational temperatures (Kelvin)      0.07207     0.01587     0.01454
 Rotational constants (GHZ):           1.50173     0.33059     0.30288
 Zero-point vibrational energy     609582.2 (Joules/Mol)
                                  145.69365 (Kcal/Mol)
 Warning -- explicit consideration of  17 degrees of freedom as
           vibrations may cause significant error
 Vibrational temperatures:     34.97    58.72   113.65   124.22   154.66
          (Kelvin)            245.10   323.89   389.03   425.60   494.66
                              558.54   575.18   599.22   643.69   753.36
                              792.02   832.65   900.78   905.98   923.46
                             1018.01  1026.94  1087.08  1112.46  1129.41
                             1229.29  1245.67  1261.24  1302.25  1311.02
                             1352.81  1384.04  1419.76  1427.86  1472.45
                             1529.31  1543.61  1564.39  1602.46  1620.35
                             1694.76  1718.81  1753.47  1769.67  1792.75
                             1816.41  1846.38  1887.32  1944.16  1960.51
                             1973.25  1985.17  2014.29  2030.02  2038.43
                             2100.70  2152.10  2165.94  2186.70  2190.50
                             2230.65  2373.39  2402.90  2575.19  2583.52
                             4337.72  4359.34  4377.12  4387.23  4440.38
                             4457.73  4504.38  4567.20  4583.00  4596.58
                             4609.31  4622.46  5112.51

 Zero-point correction=                           0.232178 (Hartree/Particle)
 Thermal correction to Energy=                    0.244886
 Thermal correction to Enthalpy=                  0.245830
 Thermal correction to Gibbs Free Energy=         0.191306
 Sum of electronic and zero-point Energies=           -670.152612
 Sum of electronic and thermal Energies=              -670.139904
 Sum of electronic and thermal Enthalpies=            -670.138960
 Sum of electronic and thermal Free Energies=         -670.193484

                     E (Thermal)             CV                S
                      KCal/Mol        Cal/Mol-Kelvin    Cal/Mol-Kelvin
 Total                  153.668             49.126            114.755
 Electronic               0.000              0.000              0.000
 Translational            0.889              2.981             41.830
 Rotational               0.889              2.981             32.036
 Vibrational            151.891             43.164             40.889
 Vibration     1          0.593              1.985              6.247
 Vibration     2          0.594              1.981              5.219
 Vibration     3          0.600              1.963              3.916
 Vibration     4          0.601              1.959              3.741
 Vibration     5          0.606              1.943              3.314
 Vibration     6          0.625              1.879              2.432
 Vibration     7          0.650              1.803              1.918
 Vibration     8          0.674              1.728              1.594
 Vibration     9          0.690              1.682              1.441
 Vibration    10          0.723              1.588              1.194
 Vibration    11          0.756              1.495              1.007
 Vibration    12          0.766              1.471              0.963
 Vibration    13          0.780              1.434              0.904
 Vibration    14          0.807              1.367              0.804
 Vibration    15          0.879              1.198              0.602
 Vibration    16          0.906              1.139              0.543
 Vibration    17          0.935              1.077              0.488

 Optimization completed.
    -- Stationary point found.
 Normal termination of Gaussian 16 at Thu Dec 10 14:59:29 2020.

 ----------------------------------------------------------------------
 # B3LYP/6-311++G(d,p) empiricaldispersion=gd3bj scf=xqc pop=npa geom=c
 heck
 ----------------------------------------------------------------------

 ---------------------------------------
 CID_151492888_JID_5200_Energie_neutraal
 ---------------------------------------
 Structure from the checkpoint file:  "JID_5200.chk"
 Charge =  0 Multiplicity = 1

 SCF Done:  E(RB3LYP) =  -670.572638820     A.U. after   15 cycles
 Normal termination of Gaussian 16 at Thu Dec 10 15:02:31 2020.

 ----------------------------------------------------------------------
 # B3LYP/6-311++G(d,p) empiricaldispersion=gd3bj scf=xqc pop=npa geom=c
 heck
 ----------------------------------------------------------------------

 -------------------------------------
 CID_151492888_JID_5200_Energie_kation
 -------------------------------------
 Structure from the checkpoint file:  "JID_5200.chk"
 Charge =  1 Multiplicity = 2

 SCF Done:  E(UB3LYP) =  -670.252806033     A.U. after   29 cycles
 Normal termination of Gaussian 16 at Thu Dec 10 15:10:41 2020.
 Gaussian 16:  ES64L-G16RevA.03 25-Dec-2016

 ----------------------------------------------------------------------
 # B3LYP/6-311++G(d,p) empiricaldispersion=gd3bj scf=xqc pop=npa geom=c
 heck
 ----------------------------------------------------------------------

 ------------------------------------
 CID_151492888_JID_5200_Energie_anion
 ------------------------------------
 Structure from the checkpoint file:  "JID_5200.chk"
 Charge = -1 Multiplicity = 2

                         Standard orientation:
 ---------------------------------------------------------------------
 Center     Atomic      Atomic             Coordinates (Angstroms)
 Number     Number       Type             X           Y           Z
 ---------------------------------------------------------------------
      1          6           0        1.910724    1.957095   -0.048968
      2          6           0        0.522528    1.460638   -0.449551
      3          6           0        0.007611    0.249914    0.357634
      4          6           0        0.718501   -1.085082    0.116047
      5          8           0        0.108824   -2.131402   -0.006249
      6          7           0        2.116974   -1.162656    0.196376
      7          6           0        3.219136   -0.306998    0.078489
      8          8           0        4.317654   -0.752103    0.361889
      9          6           0        3.062684    1.073152   -0.526423
     10          6           0       -1.491247    0.103209    0.183521
     11          6           0       -2.040407   -0.298976   -1.040000
     12          6           0       -3.421088   -0.355937   -1.211979
     13          6           0       -4.275274   -0.009628   -0.162421
     14          6           0       -3.737684    0.390476    1.059634
     15          6           0       -2.352937    0.445630    1.227926
     16          1           0        1.959626    2.083788    1.041022
     17          1           0        2.063745    2.953357   -0.479782
     18          1           0       -0.201278    2.266871   -0.292031
     19          1           0        0.495459    1.231546   -1.523145
     20          1           0        0.205861    0.471591    1.417407
     21          1           0        2.416568   -2.124742    0.332091
     22          1           0        2.969593    0.922925   -1.612524
     23          1           0        4.023140    1.565137   -0.356539
     24          1           0       -1.383827   -0.587131   -1.855444
     25          1           0       -3.832139   -0.676451   -2.165154
     26          1           0       -5.352179   -0.056154   -0.297099
     27          1           0       -4.392601    0.657747    1.884203
     28          1           0       -1.937894    0.757179    2.183790
 ---------------------------------------------------------------------

 SCF Done:  E(UB3LYP) =  -670.573306344     A.U. after   33 cycles
 SCF Done:  E(UB3LYP) =  -670.573306344     a.u. after    1 cycles

 The electronic state is 2-A.
 Alpha  occ. eigenvalues --  -18.96795 -18.96632 -14.22574 -10.14768 -10.14607
 Alpha  occ. eigenvalues --  -10.08204 -10.08090 -10.07999 -10.07951 -10.07905
 Alpha  occ. eigenvalues --  -10.07442 -10.07330 -10.06463 -10.06373 -10.06292
 Alpha  occ. eigenvalues --   -0.93216  -0.91544  -0.79012  -0.76338  -0.71016
 Alpha  occ. eigenvalues --   -0.67223  -0.65021  -0.62407  -0.57135  -0.52722
 Alpha  occ. eigenvalues --   -0.51235  -0.49945  -0.47524  -0.44347  -0.41190
 Alpha  occ. eigenvalues --   -0.39395  -0.36595  -0.35849  -0.34955  -0.33442
 Alpha  occ. eigenvalues --   -0.33078  -0.32892  -0.32252  -0.30872  -0.30615
 Alpha  occ. eigenvalues --   -0.29610  -0.27020  -0.26394  -0.25594  -0.25403
 Alpha  occ. eigenvalues --   -0.24529  -0.23476  -0.22507  -0.22086  -0.16279
 Alpha  occ. eigenvalues --   -0.15702  -0.15557  -0.14830  -0.12692   0.04258
 Alpha virt. eigenvalues --    0.06491   0.07607   0.07984   0.08268   0.08415
 Alpha virt. eigenvalues --    0.08901   0.09263   0.09987   0.11082   0.11678
 Alpha virt. eigenvalues --    0.12017   0.12533   0.13152   0.13721   0.14573

  Beta  occ. eigenvalues --  -18.96531 -18.96383 -14.22663 -10.14525 -10.14387
  Beta  occ. eigenvalues --  -10.08199 -10.08103 -10.07995 -10.07947 -10.07901
  Beta  occ. eigenvalues --  -10.07428 -10.07327 -10.06420 -10.06376 -10.06240
  Beta  occ. eigenvalues --   -0.92800  -0.91071  -0.78879  -0.76321  -0.70965
  Beta  occ. eigenvalues --   -0.67138  -0.65006  -0.62280  -0.56981  -0.52280
  Beta  occ. eigenvalues --   -0.51199  -0.49865  -0.47378  -0.44248  -0.41131
  Beta  occ. eigenvalues --   -0.39227  -0.36508  -0.35812  -0.34697  -0.33343
  Beta  occ. eigenvalues --   -0.32933  -0.32411  -0.32087  -0.30703  -0.30225
  Beta  occ. eigenvalues --   -0.29408  -0.26884  -0.26296  -0.25521  -0.24705
  Beta  occ. eigenvalues --   -0.24407  -0.23303  -0.22104  -0.21881  -0.16139
  Beta  occ. eigenvalues --   -0.15496  -0.15078  -0.14681  -0.12480
  Beta virt. eigenvalues --    0.06418   0.07662   0.07888   0.08271   0.08437
  Beta virt. eigenvalues --    0.09200   0.09560   0.09871   0.10318   0.11527
  Beta virt. eigenvalues --    0.11943   0.12224   0.12680   0.13445   0.13900

 Mulliken charges and spin densities:
               1          2
     1  C    0.309853  -0.394135
     2  C   -0.384553  -0.182808
     3  C    1.660008  -1.271308
     4  C   -0.567479   0.192520
     5  O   -0.310528   0.088089
     6  N   -0.281356  -0.011562
     7  C    0.079979  -0.139887
     8  O   -0.383241   0.099013
     9  C    0.375971  -0.558169
    10  C    0.593533   0.182035
    11  C   -0.259459   0.111596
    12  C   -0.300060   0.054030
    13  C    0.038126  -0.359427
    14  C   -0.167723  -0.189550
    15  C   -0.687429   0.330572
    16  H   -0.051538   0.188672
    17  H   -0.628099   0.809883
    18  H   -0.157634   0.334551
    19  H   -0.095817   0.227159
    20  H   -0.017866   0.253189
    21  H    0.275019   0.043074
    22  H   -0.161993   0.332845
    23  H    0.176569   0.009644
    24  H    0.113423   0.087861
    25  H    0.061315   0.084536
    26  H    0.059199   0.077764
    27  H   -0.053932   0.208742
    28  H   -0.234288   0.391072
 Sum of Mulliken charges =  -1.00000   1.00000

 Dipole moment (field-independent basis, Debye):
    X=             -4.9442    Y=             -0.4769    Z=             -0.4995  Tot=              4.9922
 Quadrupole moment (field-independent basis, Debye-Ang):
   XX=           -149.1366   YY=           -126.6690   ZZ=           -108.0025
   XY=              0.6842   XZ=              1.7418   YZ=              3.1859

 Summary of Natural Population Analysis:

                                       Natural Population
                Natural  -----------------------------------------------
    Atom  No    Charge         Core      Valence    Rydberg      Total
 -----------------------------------------------------------------------
      C    1   -0.18825      0.99962     2.17981    0.00881     3.18825
      C    2   -0.18313      0.99961     2.17383    0.00969     3.18313
      C    3   -0.15838      0.99952     2.14744    0.01143     3.15838
      C    4    0.38334      0.99966     1.59474    0.02226     2.61666
      O    5   -0.28525      0.99988     3.27988    0.00549     4.28525
      N    6   -0.34481      0.99965     2.83709    0.00807     3.84481
      C    7    0.37634      0.99968     1.60238    0.02161     2.62366
      O    8   -0.29424      0.99988     3.28862    0.00574     4.29424
      C    9   -0.23437      0.99959     2.22535    0.00943     3.23437
      C   10    0.00280      0.99951     1.98458    0.01311     2.99720
      C   11   -0.08904      0.99950     2.08142    0.00812     3.08904
      C   12   -0.10273      0.99957     2.09356    0.00960     3.10273
      C   13   -0.11189      0.99957     2.10252    0.00981     3.11189
      C   14   -0.10240      0.99956     2.09359    0.00925     3.10240
      C   15   -0.09968      0.99950     2.09016    0.01002     3.09968
      H   16    0.09695      0.00000     0.40157    0.00148     0.40305
      H   17    0.10265      0.00000     0.39549    0.00186     0.39735
      H   18    0.10447      0.00000     0.39405    0.00148     0.39553
      H   19    0.09815      0.00000     0.40018    0.00167     0.40185
      H   20    0.11331      0.00000     0.38438    0.00231     0.38669
      H   21    0.19933      0.00000     0.29736    0.00331     0.30067
      H   22    0.10928      0.00000     0.38901    0.00171     0.39072
      H   23    0.10954      0.00000     0.38946    0.00099     0.39046
      H   24    0.10475      0.00000     0.39397    0.00128     0.39525
      H   25    0.09744      0.00000     0.40178    0.00077     0.40256
      H   26    0.09691      0.00000     0.40233    0.00076     0.40309
      H   27    0.09800      0.00000     0.40120    0.00080     0.40200
      H   28    0.10091      0.00000     0.39764    0.00145     0.39909
 =======================================================================
   * Total *   -0.00000     14.99428    38.82340    0.18231    54.00000

 Normal termination of Gaussian 16 at Thu Dec 10 15:20:30 2020.
