 Gaussian 16, Revision A.03,

 -----------------------------------------------------------
 # opt freq B3LYP/6-31G(d) empiricaldispersion=gd3bj scf=xqc
 -----------------------------------------------------------

 ------------------------------
 CID_61338387_JID_6801_neutraal
 ------------------------------
 Symbolic Z-matrix:
 Charge =  0 Multiplicity = 1

 SCF Done:  E(RB3LYP) =  -747.744821783     A.U. after   14 cycles
 SCF Done:  E(RB3LYP) =  -747.755218128     A.U. after   14 cycles
 SCF Done:  E(RB3LYP) =  -747.754534910     A.U. after   14 cycles
 SCF Done:  E(RB3LYP) =  -747.758457608     A.U. after   12 cycles
 SCF Done:  E(RB3LYP) =  -747.760141752     A.U. after   12 cycles
 SCF Done:  E(RB3LYP) =  -747.761690786     A.U. after   12 cycles
 SCF Done:  E(RB3LYP) =  -747.762963751     A.U. after   14 cycles
 SCF Done:  E(RB3LYP) =  -747.764934631     A.U. after   12 cycles
 SCF Done:  E(RB3LYP) =  -747.765886809     A.U. after   12 cycles
 SCF Done:  E(RB3LYP) =  -747.766544742     A.U. after   12 cycles
 SCF Done:  E(RB3LYP) =  -747.769502348     A.U. after   10 cycles
 SCF Done:  E(RB3LYP) =  -747.769504871     A.U. after    9 cycles
 SCF Done:  E(RB3LYP) =  -747.769503974     A.U. after    9 cycles
 SCF Done:  E(RB3LYP) =  -747.769506743     A.U. after    9 cycles
 SCF Done:  E(RB3LYP) =  -747.769506318     A.U. after    9 cycles
 SCF Done:  E(RB3LYP) =  -747.769506971     A.U. after    8 cycles
 Optimization completed.
    -- Stationary point found.
 Normal termination of Gaussian 16 at Fri Dec 11 00:51:45 2020.

 --------------------------------------------------------------------
 #N Geom=AllCheck Guess=TCheck SCRF=Check GenChk RB3LYP/6-31G(d) Freq
 --------------------------------------------------------------------

 Structure from the checkpoint file:  "JID_6801.chk"
 ------------------------------
 CID_61338387_JID_6801_neutraal
 ------------------------------
 Charge =  0 Multiplicity = 1

 SCF Done:  E(RB3LYP) =  -747.769506971     A.U. after    1 cycles

  Exact polarizability: 157.408  -3.516 136.811  -6.372  -4.059 126.012
 Approx polarizability: 198.878  -3.946 185.789 -12.957  -8.098 197.017

                      1                      2                      3
                      A                      A                      A
 Frequencies --     17.9065                33.6566                61.4254
 Red. masses --      4.0851                 3.2166                 3.9758
 Frc consts  --      0.0008                 0.0021                 0.0088
 IR Inten    --      0.8912                 0.5549                 1.1406

                      4                      5                      6
                      A                      A                      A
 Frequencies --     74.9124                98.6505               107.7361
 Red. masses --      4.2903                 4.0724                 2.9325
 Frc consts  --      0.0142                 0.0234                 0.0201
 IR Inten    --      1.2391                 0.7502                 1.4637

                      7                      8                      9
                      A                      A                      A
 Frequencies --    157.5425               175.4684               214.7477
 Red. masses --      3.6649                 2.2320                 1.6650
 Frc consts  --      0.0536                 0.0405                 0.0452
 IR Inten    --      2.9141                 8.3833                 5.0619

                     10                     11                     12
                      A                      A                      A
 Frequencies --    220.2029               229.1983               252.2531
 Red. masses --      1.9227                 1.9873                 1.4816
 Frc consts  --      0.0549                 0.0615                 0.0555
 IR Inten    --      4.0324                 0.6366                 4.3254

                     13                     14                     15
                      A                      A                      A
 Frequencies --    260.8313               268.9969               287.5879
 Red. masses --      1.3469                 1.6412                 1.9956
 Frc consts  --      0.0540                 0.0700                 0.0972
 IR Inten    --     42.4503                11.4169                 1.8122

                     16                     17                     18
                      A                      A                      A
 Frequencies --    293.1658               355.4200               365.2684
 Red. masses --      1.1412                 2.4124                 3.0221
 Frc consts  --      0.0578                 0.1795                 0.2376
 IR Inten    --      0.1433                 0.8244                 6.4018

                     19                     20                     21
                      A                      A                      A
 Frequencies --    380.9925               383.4668               406.1928
 Red. masses --      2.7026                 2.6627                 3.0177
 Frc consts  --      0.2311                 0.2307                 0.2934
 IR Inten    --      1.4599                 2.8696                 4.0814

                     22                     23                     24
                      A                      A                      A
 Frequencies --    435.1095               460.0206               467.5154
 Red. masses --      2.4552                 2.9467                 4.2116
 Frc consts  --      0.2739                 0.3674                 0.5424
 IR Inten    --      0.8645                 7.7828                 3.0027

                     25                     26                     27
                      A                      A                      A
 Frequencies --    490.1302               508.9270               525.1983
 Red. masses --      1.9766                 2.4924                 1.9973
 Frc consts  --      0.2798                 0.3803                 0.3246
 IR Inten    --      1.2254                12.3406                10.3231

                     28                     29                     30
                      A                      A                      A
 Frequencies --    570.6916               613.4888               631.6719
 Red. masses --      3.0551                 3.7527                 2.0227
 Frc consts  --      0.5862                 0.8322                 0.4755
 IR Inten    --      8.6924                15.5795                 4.5162

                     31                     32                     33
                      A                      A                      A
 Frequencies --    669.2220               781.7604               829.0357
 Red. masses --      1.9694                 3.5494                 2.3056
 Frc consts  --      0.5197                 1.2781                 0.9337
 IR Inten    --     64.3844                 2.6134                 1.3672

                     34                     35                     36
                      A                      A                      A
 Frequencies --    855.9303               870.3419               880.9917
 Red. masses --      3.0577                 1.4009                 3.4491
 Frc consts  --      1.3198                 0.6252                 1.5772
 IR Inten    --      2.1658               100.6393                20.2974

                     37                     38                     39
                      A                      A                      A
 Frequencies --    897.6775               918.0197               931.5061
 Red. masses --      2.6345                 1.4994                 1.7174
 Frc consts  --      1.2508                 0.7445                 0.8780
 IR Inten    --     19.5163                38.3052                 0.2888

                     40                     41                     42
                      A                      A                      A
 Frequencies --    938.9424               970.6044               977.3644
 Red. masses --      1.7618                 2.5288                 1.2010
 Frc consts  --      0.9151                 1.4036                 0.6759
 IR Inten    --      5.6057                 8.0729                 0.4615

                     43                     44                     45
                      A                      A                      A
 Frequencies --   1013.6629              1019.2905              1042.6171
 Red. masses --      2.1145                 2.1110                 2.1319
 Frc consts  --      1.2801                 1.2922                 1.3654
 IR Inten    --     25.2683                 3.8487                20.8149

                     46                     47                     48
                      A                      A                      A
 Frequencies --   1065.4472              1070.7037              1073.6797
 Red. masses --      1.3921                 2.7391                 1.4861
 Frc consts  --      0.9311                 1.8501                 1.0093
 IR Inten    --      1.1825                 9.2434                 1.4777

                     49                     50                     51
                      A                      A                      A
 Frequencies --   1085.5351              1102.7024              1137.4993
 Red. masses --      2.4504                 1.8536                 5.0230
 Frc consts  --      1.7013                 1.3280                 3.8293
 IR Inten    --     14.7704                23.7319               124.2304

                     52                     53                     54
                      A                      A                      A
 Frequencies --   1157.4058              1171.8645              1187.6878
 Red. masses --      2.2708                 2.3210                 2.3126
 Frc consts  --      1.7923                 1.8779                 1.9220
 IR Inten    --      7.6883                 4.5368                36.2089

                     55                     56                     57
                      A                      A                      A
 Frequencies --   1211.7288              1244.2420              1260.7485
 Red. masses --      1.5626                 2.3134                 1.2525
 Frc consts  --      1.3518                 2.1101                 1.1729
 IR Inten    --      8.3576                 6.8955                30.8045

                     58                     59                     60
                      A                      A                      A
 Frequencies --   1263.2092              1277.8154              1289.2000
 Red. masses --      2.4056                 2.8790                 1.2007
 Frc consts  --      2.2616                 2.7697                 1.1758
 IR Inten    --      9.2513                98.3134                18.9592

                     61                     62                     63
                      A                      A                      A
 Frequencies --   1318.2173              1323.7045              1347.1425
 Red. masses --      1.6782                 1.3315                 1.5576
 Frc consts  --      1.7182                 1.3746                 1.6654
 IR Inten    --    119.9305                 8.2932                50.4465

                     64                     65                     66
                      A                      A                      A
 Frequencies --   1356.2117              1365.8576              1394.9962
 Red. masses --      1.2675                 1.2316                 1.4240
 Frc consts  --      1.3736                 1.3537                 1.6327
 IR Inten    --     12.8659                13.2148                 7.7037

                     67                     68                     69
                      A                      A                      A
 Frequencies --   1404.9266              1417.2683              1428.1493
 Red. masses --      1.4230                 1.4191                 1.2465
 Frc consts  --      1.6548                 1.6794                 1.4980
 IR Inten    --     19.4308                 3.7720                 5.8256

                     70                     71                     72
                      A                      A                      A
 Frequencies --   1429.0261              1433.6733              1445.8923
 Red. masses --      1.2491                 1.3964                 1.8355
 Frc consts  --      1.5029                 1.6910                 2.2609
 IR Inten    --      8.9384                 4.0792                53.2772

                     73                     74                     75
                      A                      A                      A
 Frequencies --   1452.1806              1455.4677              1486.9405
 Red. masses --      1.6055                 1.2506                 1.3684
 Frc consts  --      1.9948                 1.5609                 1.7826
 IR Inten    --     17.2947                23.0505                13.9637

                     76                     77                     78
                      A                      A                      A
 Frequencies --   1496.5156              1505.5426              1513.1844
 Red. masses --      1.0878                 1.0700                 1.0565
 Frc consts  --      1.4354                 1.4290                 1.4253
 IR Inten    --      5.0911                 3.5753                 3.3209

                     79                     80                     81
                      A                      A                      A
 Frequencies --   1514.5041              1519.0174              1523.5772
 Red. masses --      1.0622                 1.0733                 1.0746
 Frc consts  --      1.4355                 1.4592                 1.4696
 IR Inten    --      2.4884                 1.0542                 0.7450

                     82                     83                     84
                      A                      A                      A
 Frequencies --   1524.9380              1536.7456              1538.1327
 Red. masses --      1.0954                 1.0927                 1.0834
 Frc consts  --      1.5008                 1.5203                 1.5102
 IR Inten    --      3.3407                 3.8706                 1.3189

                     85                     86                     87
                      A                      A                      A
 Frequencies --   1540.4613              1552.9982              1704.1470
 Red. masses --      1.0608                 1.0602                 1.0870
 Frc consts  --      1.4831                 1.5065                 1.8599
 IR Inten    --      2.4397                 4.7243                35.4050

                     88                     89                     90
                      A                      A                      A
 Frequencies --   1781.7141              2971.2053              2975.0352
 Red. masses --      7.6551                 1.0733                 1.0708
 Frc consts  --     14.3178                 5.5826                 5.5839
 IR Inten    --    313.0499                28.6673                21.8716

                     91                     92                     93
                      A                      A                      A
 Frequencies --   2982.9827              3002.7721              3035.6252
 Red. masses --      1.0769                 1.0713                 1.0663
 Frc consts  --      5.6461                 5.6915                 5.7895
 IR Inten    --     20.4895               155.2065                31.3146

                     94                     95                     96
                      A                      A                      A
 Frequencies --   3040.6074              3049.3916              3056.2984
 Red. masses --      1.0657                 1.0363                 1.0367
 Frc consts  --      5.8051                 5.6776                 5.7057
 IR Inten    --     68.5560                19.8687                17.1207

                     97                     98                     99
                      A                      A                      A
 Frequencies --   3065.4654              3070.3465              3088.3540
 Red. masses --      1.0394                 1.0879                 1.1032
 Frc consts  --      5.7547                 6.0422                 6.1993
 IR Inten    --     13.9070                15.9885                49.6625

                    100                    101                    102
                      A                      A                      A
 Frequencies --   3094.8692              3098.2021              3116.9966
 Red. masses --      1.0908                 1.0938                 1.1016
 Frc consts  --      6.1557                 6.1860                 6.3061
 IR Inten    --     29.6431                65.0516                14.8697

                    103                    104                    105
                      A                      A                      A
 Frequencies --   3124.2778              3127.6153              3136.1869
 Red. masses --      1.1016                 1.1025                 1.1018
 Frc consts  --      6.3353                 6.3541                 6.3852
 IR Inten    --     23.0725                12.9678                23.1861

                    106                    107                    108
                      A                      A                      A
 Frequencies --   3138.4688              3146.6533              3154.2908
 Red. masses --      1.1019                 1.0932                 1.0996
 Frc consts  --      6.3949                 6.3772                 6.4457
 IR Inten    --     46.6451                10.8349                28.2817

                    109                    110                    111
                      A                      A                      A
 Frequencies --   3478.5537              3560.5622              3574.0190
 Red. masses --      1.0502                 1.0922                 1.0753
 Frc consts  --      7.4876                 8.1583                 8.0923
 IR Inten    --      0.8056                 0.2295                15.4861

 - Thermochemistry -
 -------------------
 Temperature   298.150 Kelvin.  Pressure   1.00000 Atm.
 Atom     1 has atomic number  6 and mass  12.00000

 Molecular mass:   229.17903 amu.
 Principal axes and moments of inertia in atomic units:
                           1         2         3
     Eigenvalues --  2397.736626127.707286640.52767
           X            0.99986   0.00341  -0.01632
           Y           -0.00371   0.99983  -0.01827
           Z            0.01626   0.01833   0.99970
 This molecule is an asymmetric top.
 Rotational symmetry number  1.
 Warning -- assumption of classical behavior for rotation
           may cause significant error
 Rotational temperatures (Kelvin)      0.03612     0.01413     0.01304
 Rotational constants (GHZ):           0.75269     0.29452     0.27178
 Zero-point vibrational energy     920793.9 (Joules/Mol)
                                  220.07503 (Kcal/Mol)
 Warning -- explicit consideration of  29 degrees of freedom as
           vibrations may cause significant error
 Vibrational temperatures:     25.76    48.42    88.38   107.78   141.94
          (Kelvin)            155.01   226.67   252.46   308.97   316.82
                              329.77   362.94   375.28   387.03   413.77
                              421.80   511.37   525.54   548.16   551.72
                              584.42   626.03   661.87   672.65   705.19
                              732.23   755.64   821.10   882.67   908.84
                              962.86  1124.78  1192.80  1231.49  1252.23
                             1267.55  1291.56  1320.83  1340.23  1350.93
                             1396.48  1406.21  1458.43  1466.53  1500.09
                             1532.94  1540.50  1544.79  1561.84  1586.54
                             1636.61  1665.25  1686.05  1708.82  1743.41
                             1790.19  1813.94  1817.48  1838.49  1854.87
                             1896.62  1904.52  1938.24  1951.29  1965.16
                             2007.09  2021.38  2039.13  2054.79  2056.05
                             2062.74  2080.32  2089.36  2094.09  2139.38
                             2153.15  2166.14  2177.13  2179.03  2185.53
                             2192.09  2194.05  2211.03  2213.03  2216.38
                             2234.42  2451.89  2563.49  4274.90  4280.41
                             4291.85  4320.32  4367.59  4374.76  4387.39
                             4397.33  4410.52  4417.54  4443.45  4452.83
                             4457.62  4484.66  4495.14  4499.94  4512.27
                             4515.56  4527.33  4538.32  5004.86  5122.85
                             5142.22

 Zero-point correction=                           0.350712 (Hartree/Particle)
 Thermal correction to Energy=                    0.368332
 Thermal correction to Enthalpy=                  0.369277
 Thermal correction to Gibbs Free Energy=         0.304803
 Sum of electronic and zero-point Energies=           -747.418795
 Sum of electronic and thermal Energies=              -747.401175
 Sum of electronic and thermal Enthalpies=            -747.400230
 Sum of electronic and thermal Free Energies=         -747.464704

                     E (Thermal)             CV                S
                      KCal/Mol        Cal/Mol-Kelvin    Cal/Mol-Kelvin
 Total                  231.132             67.369            135.696
 Electronic               0.000              0.000              0.000
 Translational            0.889              2.981             42.190
 Rotational               0.889              2.981             32.945
 Vibrational            229.355             61.408             60.561
 Vibration     1          0.593              1.986              6.854
 Vibration     2          0.594              1.983              5.601
 Vibration     3          0.597              1.973              4.411
 Vibration     4          0.599              1.966              4.020
 Vibration     5          0.604              1.950              3.481
 Vibration     6          0.606              1.943              3.309
 Vibration     7          0.621              1.894              2.579
 Vibration     8          0.627              1.873              2.376
 Vibration     9          0.645              1.819              2.003
 Vibration    10          0.647              1.810              1.957
 Vibration    11          0.652              1.796              1.885
 Vibration    12          0.664              1.759              1.715
 Vibration    13          0.669              1.744              1.656
 Vibration    14          0.673              1.730              1.603
 Vibration    15          0.685              1.697              1.488
 Vibration    16          0.688              1.686              1.456
 Vibration    17          0.731              1.564              1.142
 Vibration    18          0.738              1.544              1.100
 Vibration    19          0.751              1.511              1.035
 Vibration    20          0.753              1.505              1.025
 Vibration    21          0.771              1.457              0.940
 Vibration    22          0.796              1.394              0.842
 Vibration    23          0.818              1.339              0.766
 Vibration    24          0.825              1.322              0.745
 Vibration    25          0.846              1.272              0.683
 Vibration    26          0.864              1.230              0.636
 Vibration    27          0.880              1.194              0.598
 Vibration    28          0.927              1.095              0.503
 Vibration    29          0.973              1.003              0.427

 Optimization completed.
    -- Stationary point found.
 Normal termination of Gaussian 16 at Fri Dec 11 01:05:28 2020.

 ----------------------------------------------------------------------
 # B3LYP/6-311++G(d,p) empiricaldispersion=gd3bj scf=xqc pop=npa geom=c
 heck
 ----------------------------------------------------------------------

 --------------------------------------
 CID_61338387_JID_6801_Energie_neutraal
 --------------------------------------
 Structure from the checkpoint file:  "JID_6801.chk"
 Charge =  0 Multiplicity = 1

 SCF Done:  E(RB3LYP) =  -747.995944326     A.U. after   15 cycles
 Normal termination of Gaussian 16 at Fri Dec 11 01:11:48 2020.

 ----------------------------------------------------------------------
 # B3LYP/6-311++G(d,p) empiricaldispersion=gd3bj scf=xqc pop=npa geom=c
 heck
 ----------------------------------------------------------------------

 ------------------------------------
 CID_61338387_JID_6801_Energie_kation
 ------------------------------------
 Structure from the checkpoint file:  "JID_6801.chk"
 Charge =  1 Multiplicity = 2

 SCF Done:  E(UB3LYP) =  -747.719912943     A.U. after   24 cycles
 Normal termination of Gaussian 16 at Fri Dec 11 01:26:03 2020.
 Gaussian 16:  ES64L-G16RevA.03 25-Dec-2016

 ----------------------------------------------------------------------
 # B3LYP/6-311++G(d,p) empiricaldispersion=gd3bj scf=xqc pop=npa geom=c
 heck
 ----------------------------------------------------------------------

 -----------------------------------
 CID_61338387_JID_6801_Energie_anion
 -----------------------------------
 Structure from the checkpoint file:  "JID_6801.chk"
 Charge = -1 Multiplicity = 2

                         Standard orientation:
 ---------------------------------------------------------------------
 Center     Atomic      Atomic             Coordinates (Angstroms)
 Number     Number       Type             X           Y           Z
 ---------------------------------------------------------------------
      1          6           0       -3.126882   -1.174999    1.116937
      2          6           0       -3.064263    0.232982    0.500918
      3          6           0       -4.503908    0.726247    0.277520
      4          6           0       -2.337148    1.215650    1.438010
      5          7           0       -2.446378    0.220250   -0.843549
      6          6           0       -1.200196   -0.132220   -1.305478
      7          8           0       -0.846507    0.211680   -2.425948
      8          6           0       -0.320156   -1.005156   -0.402321
      9          7           0        1.022142   -1.156835   -0.929594
     10          6           0        1.784594   -2.226690   -0.284687
     11          6           0        2.321813   -1.827695    1.092761
     12          8           0        3.094422   -0.637729    1.004581
     13          6           0        2.342451    0.451725    0.460511
     14          6           0        1.811717    0.079964   -0.928347
     15          6           0        3.273482    1.658326    0.437000
     16          7           0        2.535254    2.860827    0.034813
     17          1           0       -3.752183   -1.154462    2.015917
     18          1           0       -2.143538   -1.545957    1.413492
     19          1           0       -3.566163   -1.882806    0.406799
     20          1           0       -5.038577    0.781597    1.230331
     21          1           0       -4.509942    1.727873   -0.168949
     22          1           0       -5.048950    0.046181   -0.385905
     23          1           0       -1.297773    0.921812    1.610600
     24          1           0       -2.332970    2.221883    1.006775
     25          1           0       -2.839022    1.258912    2.411316
     26          1           0       -2.907007    0.809503   -1.527953
     27          1           0       -0.359563   -0.613076    0.626212
     28          1           0       -0.782376   -1.999201   -0.364333
     29          1           0        2.639090   -2.462733   -0.932547
     30          1           0        1.160288   -3.125545   -0.211726
     31          1           0        1.492222   -1.685092    1.806903
     32          1           0        2.986189   -2.599047    1.495892
     33          1           0        1.499578    0.683887    1.132962
     34          1           0        2.672282   -0.074604   -1.594269
     35          1           0        1.201089    0.880312   -1.349676
     36          1           0        3.655221    1.807774    1.452360
     37          1           0        4.141670    1.415761   -0.200491
     38          1           0        3.101895    3.685542    0.220045
     39          1           0        2.379084    2.851374   -0.971452
 ---------------------------------------------------------------------

 SCF Done:  E(UB3LYP) =  -747.985660760     A.U. after   32 cycles

 The electronic state is 2-A.
 Alpha  occ. eigenvalues --  -19.03444 -18.99181 -14.23586 -14.21565 -14.20885
 Alpha  occ. eigenvalues --  -10.17899 -10.13602 -10.12545 -10.12471 -10.11251
 Alpha  occ. eigenvalues --  -10.10577 -10.10410 -10.09653 -10.07435 -10.06870
 Alpha  occ. eigenvalues --  -10.06736  -0.95121  -0.94440  -0.83544  -0.82958
 Alpha  occ. eigenvalues --   -0.79885  -0.70348  -0.68794  -0.65395  -0.60722
 Alpha  occ. eigenvalues --   -0.60197  -0.59860  -0.57153  -0.52719  -0.50981
 Alpha  occ. eigenvalues --   -0.48695  -0.45265  -0.41640  -0.40950  -0.40485
 Alpha  occ. eigenvalues --   -0.39435  -0.38882  -0.38135  -0.36470  -0.36384
 Alpha  occ. eigenvalues --   -0.35930  -0.34041  -0.33931  -0.33504  -0.32138
 Alpha  occ. eigenvalues --   -0.31185  -0.30436  -0.29824  -0.29107  -0.28354
 Alpha  occ. eigenvalues --   -0.28072  -0.27651  -0.27478  -0.26206  -0.25758
 Alpha  occ. eigenvalues --   -0.25084  -0.24727  -0.22732  -0.18952  -0.16627
 Alpha  occ. eigenvalues --   -0.16134  -0.15785  -0.11644   0.03949
 Alpha virt. eigenvalues --    0.05524   0.06313   0.07547   0.07897   0.08344
 Alpha virt. eigenvalues --    0.08715   0.09358   0.09484   0.10019   0.10540
 Alpha virt. eigenvalues --    0.10619   0.10917   0.11364   0.11527   0.12548

  Beta  occ. eigenvalues --  -19.03439 -18.99178 -14.23576 -14.21564 -14.20855
  Beta  occ. eigenvalues --  -10.17898 -10.13600 -10.12529 -10.12465 -10.11234
  Beta  occ. eigenvalues --  -10.10566 -10.10399 -10.09647 -10.07393 -10.06839
  Beta  occ. eigenvalues --  -10.06691  -0.95110  -0.94434  -0.83535  -0.82945
  Beta  occ. eigenvalues --   -0.79839  -0.70321  -0.68769  -0.65369  -0.60664
  Beta  occ. eigenvalues --   -0.60134  -0.59809  -0.57125  -0.52680  -0.50939
  Beta  occ. eigenvalues --   -0.48659  -0.45229  -0.41608  -0.40924  -0.40454
  Beta  occ. eigenvalues --   -0.39397  -0.38855  -0.38113  -0.36438  -0.36361
  Beta  occ. eigenvalues --   -0.35896  -0.34014  -0.33891  -0.33477  -0.32110
  Beta  occ. eigenvalues --   -0.31157  -0.30406  -0.29779  -0.29082  -0.28319
  Beta  occ. eigenvalues --   -0.28041  -0.27626  -0.27455  -0.26185  -0.25732
  Beta  occ. eigenvalues --   -0.25056  -0.24687  -0.22716  -0.18927  -0.16619
  Beta  occ. eigenvalues --   -0.16104  -0.15773  -0.11634
  Beta virt. eigenvalues --    0.05964   0.06477   0.06933   0.07936   0.08367
  Beta virt. eigenvalues --    0.08901   0.08943   0.09691   0.09748   0.10385
  Beta virt. eigenvalues --    0.10761   0.10878   0.11214   0.11594   0.11697

 Mulliken charges and spin densities:
               1          2
     1  C    1.329881  -1.830018
     2  C   -1.564850   1.526316
     3  C    0.410079  -0.870120
     4  C    0.707101  -1.200254
     5  N   -0.057578  -0.018224
     6  C    0.427030  -0.368340
     7  O   -0.306308  -0.002329
     8  C   -0.904869   0.413944
     9  N    0.250239   0.018450
    10  C   -0.022069   0.001278
    11  C    0.204772  -0.397715
    12  O   -0.055902   0.014849
    13  C   -0.618006   0.449006
    14  C   -0.228715  -0.402621
    15  C    0.068448  -0.697638
    16  N   -0.319369  -0.032162
    17  H   -0.300153   0.453756
    18  H   -0.622861   0.789570
    19  H   -0.078010   0.250839
    20  H   -0.178658   0.335016
    21  H   -0.300492   0.443667
    22  H   -0.170702   0.332991
    23  H   -0.456215   0.602377
    24  H    0.034542   0.116783
    25  H   -0.095999   0.250542
    26  H    0.280725   0.028388
    27  H    0.933762  -0.811786
    28  H    0.094347   0.130171
    29  H    0.163999  -0.013035
    30  H   -0.211412   0.335620
    31  H   -0.084479   0.214901
    32  H   -0.105570   0.309553
    33  H    0.408287  -0.130997
    34  H    0.151969   0.031974
    35  H    0.230092  -0.067115
    36  H   -0.072368   0.237569
    37  H    0.018195   0.127460
    38  H   -0.064504   0.319591
    39  H    0.105620   0.107744
 Sum of Mulliken charges =  -1.00000   1.00000

 Dipole moment (field-independent basis, Debye):
    X=              4.1456    Y=             -0.5298    Z=             -2.1136  Tot=              4.6834
 Quadrupole moment (field-independent basis, Debye-Ang):
   XX=           -177.1842   YY=           -148.2200   ZZ=           -147.3917
   XY=             -5.7981   XZ=              4.6185   YZ=              1.8552

 Summary of Natural Population Analysis:

                                       Natural Population
                Natural  -----------------------------------------------
    Atom  No    Charge         Core      Valence    Rydberg      Total
 -----------------------------------------------------------------------
      C    1   -0.28949      0.99961     2.28244    0.00744     3.28949
      C    2    0.05456      0.99959     1.93359    0.01227     2.94544
      C    3   -0.28587      0.99962     2.27904    0.00721     3.28587
      C    4   -0.28731      0.99961     2.28089    0.00681     3.28731
      N    5   -0.32856      0.99965     2.81795    0.01097     3.82856
      C    6    0.34705      0.99968     1.63172    0.02155     2.65295
      O    7   -0.32093      0.99988     3.31538    0.00568     4.32093
      C    8   -0.13543      0.99956     2.12488    0.01099     3.13543
      N    9   -0.26816      0.99973     2.75556    0.01287     3.76816
      C   10   -0.09676      0.99962     2.08585    0.01129     3.09676
      C   11   -0.01984      0.99958     2.00801    0.01225     3.01984
      O   12   -0.30521      0.99988     3.29601    0.00932     4.30521
      C   13    0.05147      0.99953     1.93549    0.01351     2.94853
      C   14   -0.10162      0.99958     2.09198    0.01006     3.10162
      C   15   -0.09465      0.99960     2.08180    0.01325     3.09465
      N   16   -0.42083      0.99977     2.91096    0.01009     3.92083
      H   17    0.10548      0.00000     0.39294    0.00158     0.39452
      H   18    0.10189      0.00000     0.39621    0.00190     0.39811
      H   19    0.10393      0.00000     0.39476    0.00131     0.39607
      H   20    0.10694      0.00000     0.39177    0.00129     0.39306
      H   21    0.09976      0.00000     0.39899    0.00125     0.40024
      H   22    0.10343      0.00000     0.39543    0.00114     0.39657
      H   23    0.09976      0.00000     0.39877    0.00147     0.40024
      H   24    0.10280      0.00000     0.39600    0.00121     0.39720
      H   25    0.10353      0.00000     0.39535    0.00113     0.39647
      H   26    0.19366      0.00000     0.30377    0.00256     0.30634
      H   27    0.09138      0.00000     0.40604    0.00258     0.40862
      H   28    0.11164      0.00000     0.38697    0.00139     0.38836
      H   29    0.09362      0.00000     0.40524    0.00114     0.40638
      H   30    0.09893      0.00000     0.40004    0.00103     0.40107
      H   31    0.07944      0.00000     0.41906    0.00150     0.42056
      H   32    0.09048      0.00000     0.40837    0.00115     0.40952
      H   33    0.08281      0.00000     0.41493    0.00226     0.41719
      H   34    0.09438      0.00000     0.40443    0.00119     0.40562
      H   35    0.11122      0.00000     0.38747    0.00131     0.38878
      H   36    0.09629      0.00000     0.40239    0.00132     0.40371
      H   37    0.08006      0.00000     0.41833    0.00161     0.41994
      H   38    0.17694      0.00000     0.32102    0.00204     0.32306
      H   39    0.17319      0.00000     0.32514    0.00166     0.32681
 =======================================================================
   * Total *    0.00000     15.99450    46.79498    0.21053    63.00000

 Normal termination of Gaussian 16 at Fri Dec 11 01:44:11 2020.
