 Gaussian 16, Revision A.03,

 -----------------------------------------------------------
 # opt freq B3LYP/6-31G(d) empiricaldispersion=gd3bj scf=xqc
 -----------------------------------------------------------

 ------------------------------
 CID_63218864_JID_7668_neutraal
 ------------------------------
 Symbolic Z-matrix:
 Charge =  0 Multiplicity = 1

 SCF Done:  E(RB3LYP) =  -805.790612387     A.U. after   15 cycles
 SCF Done:  E(RB3LYP) =  -805.795176470     A.U. after   13 cycles
 SCF Done:  E(RB3LYP) =  -805.789562146     A.U. after   14 cycles
 SCF Done:  E(RB3LYP) =  -805.795837971     A.U. after   13 cycles
 SCF Done:  E(RB3LYP) =  -805.796744293     A.U. after   14 cycles
 SCF Done:  E(RB3LYP) =  -805.797861020     A.U. after   12 cycles
 SCF Done:  E(RB3LYP) =  -805.798657479     A.U. after   12 cycles
 SCF Done:  E(RB3LYP) =  -805.799204779     A.U. after   13 cycles
 SCF Done:  E(RB3LYP) =  -805.800164186     A.U. after   12 cycles
 SCF Done:  E(RB3LYP) =  -805.800608078     A.U. after   11 cycles
 SCF Done:  E(RB3LYP) =  -805.801265121     A.U. after   10 cycles
 SCF Done:  E(RB3LYP) =  -805.801265638     A.U. after    9 cycles
 SCF Done:  E(RB3LYP) =  -805.801265539     A.U. after    7 cycles
 SCF Done:  E(RB3LYP) =  -805.801265643     A.U. after    7 cycles
 SCF Done:  E(RB3LYP) =  -805.801265705     A.U. after    7 cycles
 Optimization completed.
    -- Stationary point found.
 Normal termination of Gaussian 16 at Fri Dec 11 13:35:28 2020.

 --------------------------------------------------------------------
 #N Geom=AllCheck Guess=TCheck SCRF=Check GenChk RB3LYP/6-31G(d) Freq
 --------------------------------------------------------------------

 Structure from the checkpoint file:  "JID_7668.chk"
 ------------------------------
 CID_63218864_JID_7668_neutraal
 ------------------------------
 Charge =  0 Multiplicity = 1

 SCF Done:  E(RB3LYP) =  -805.801265705     A.U. after    1 cycles

  Exact polarizability: 158.176  -1.779 145.339  -1.650  -0.658 125.003
 Approx polarizability: 199.507  -8.904 209.706  -1.031 -16.066 197.930

                      1                      2                      3
                      A                      A                      A
 Frequencies --     30.5557                37.0011                47.8747
 Red. masses --      3.8696                 7.6917                 3.3721
 Frc consts  --      0.0021                 0.0062                 0.0046
 IR Inten    --      1.7398                 1.3862                 0.0988

                      4                      5                      6
                      A                      A                      A
 Frequencies --     49.8826                78.9641                94.8139
 Red. masses --      3.2296                 2.4753                 4.3580
 Frc consts  --      0.0047                 0.0091                 0.0231
 IR Inten    --      0.7965                 1.6662                 1.6246

                      7                      8                      9
                      A                      A                      A
 Frequencies --    103.9703               123.2820               155.9794
 Red. masses --      4.2138                 2.3429                 2.5725
 Frc consts  --      0.0268                 0.0210                 0.0369
 IR Inten    --      0.4868                 1.5502                 0.0085

                     10                     11                     12
                      A                      A                      A
 Frequencies --    182.8754               204.2543               228.1965
 Red. masses --      3.4284                 3.7966                 1.5422
 Frc consts  --      0.0676                 0.0933                 0.0473
 IR Inten    --      0.9865                 3.2021                 1.1471

                     13                     14                     15
                      A                      A                      A
 Frequencies --    230.1798               263.1010               285.9776
 Red. masses --      1.1281                 1.9271                 2.1917
 Frc consts  --      0.0352                 0.0786                 0.1056
 IR Inten    --      0.2702                 1.2617                 1.2513

                     16                     17                     18
                      A                      A                      A
 Frequencies --    304.0820               319.0321               334.1366
 Red. masses --      2.5661                 1.4509                 3.0323
 Frc consts  --      0.1398                 0.0870                 0.1995
 IR Inten    --      2.4620                 1.2688                 2.4561

                     19                     20                     21
                      A                      A                      A
 Frequencies --    359.7941               383.2902               407.6739
 Red. masses --      1.9218                 2.5212                 3.5247
 Frc consts  --      0.1466                 0.2182                 0.3451
 IR Inten    --      1.4652                 0.4541                 6.1602

                     22                     23                     24
                      A                      A                      A
 Frequencies --    415.0399               434.7510               453.3638
 Red. masses --      2.9610                 2.9293                 2.9277
 Frc consts  --      0.3005                 0.3262                 0.3545
 IR Inten    --      9.7711                 6.1460                 4.0519

                     25                     26                     27
                      A                      A                      A
 Frequencies --    509.2902               546.6099               593.6291
 Red. masses --      1.8186                 2.6369                 3.0981
 Frc consts  --      0.2779                 0.4642                 0.6432
 IR Inten    --     14.8190                 7.3415                 3.1601

                     28                     29                     30
                      A                      A                      A
 Frequencies --    604.2216               640.5071               686.5990
 Red. masses --      3.5582                 3.7440                 3.4764
 Frc consts  --      0.7654                 0.9050                 0.9656
 IR Inten    --     65.5087                13.4932                10.8897

                     31                     32                     33
                      A                      A                      A
 Frequencies --    697.9134               738.8860               782.2941
 Red. masses --      1.6091                 3.2936                 1.5004
 Frc consts  --      0.4618                 1.0594                 0.5410
 IR Inten    --     91.3519                 2.1587                 2.5321

                     34                     35                     36
                      A                      A                      A
 Frequencies --    783.3935               811.2800               846.1440
 Red. masses --      1.9481                 5.2785                 2.7220
 Frc consts  --      0.7044                 2.0469                 1.1482
 IR Inten    --      5.2394                 8.2048                 0.8535

                     37                     38                     39
                      A                      A                      A
 Frequencies --    862.0100               867.8726               907.7542
 Red. masses --      2.0637                 2.8165                 1.8121
 Frc consts  --      0.9035                 1.2499                 0.8798
 IR Inten    --      4.4833                 2.2252                 9.1252

                     40                     41                     42
                      A                      A                      A
 Frequencies --    920.9132               932.7829               945.5983
 Red. masses --      1.9569                 1.7728                 1.4946
 Frc consts  --      0.9778                 0.9088                 0.7874
 IR Inten    --      1.6948                14.5641                 1.5818

                     43                     44                     45
                      A                      A                      A
 Frequencies --    956.5057               967.8398               990.5865
 Red. masses --      2.3332                 1.6809                 2.5321
 Frc consts  --      1.2577                 0.9277                 1.4639
 IR Inten    --      6.7309                16.2845                21.1542

                     46                     47                     48
                      A                      A                      A
 Frequencies --   1027.1126              1051.4448              1061.2233
 Red. masses --      1.3527                 2.0504                 2.1797
 Frc consts  --      0.8408                 1.3356                 1.4463
 IR Inten    --      1.1304                17.7525                 7.3427

                     49                     50                     51
                      A                      A                      A
 Frequencies --   1082.8193              1091.7866              1116.4977
 Red. masses --      2.3227                 2.0561                 2.0926
 Frc consts  --      1.6046                 1.4440                 1.5369
 IR Inten    --     10.6950                13.5809                 7.6351

                     52                     53                     54
                      A                      A                      A
 Frequencies --   1129.8619              1176.2935              1183.6038
 Red. masses --      2.2688                 2.3182                 1.9169
 Frc consts  --      1.7065                 1.8898                 1.5822
 IR Inten    --     11.0303                32.5677                44.6089

                     55                     56                     57
                      A                      A                      A
 Frequencies --   1194.0117              1204.6029              1251.4377
 Red. masses --      2.3111                 2.0206                 1.9340
 Frc consts  --      1.9413                 1.7275                 1.7845
 IR Inten    --    213.8941               103.3487                67.6118

                     58                     59                     60
                      A                      A                      A
 Frequencies --   1254.0570              1263.9534              1268.6037
 Red. masses --      1.6520                 1.7089                 1.4294
 Frc consts  --      1.5307                 1.6085                 1.3554
 IR Inten    --      5.4969                11.8480               101.7766

                     61                     62                     63
                      A                      A                      A
 Frequencies --   1282.3052              1299.0976              1312.8027
 Red. masses --      1.4981                 1.8795                 1.1976
 Frc consts  --      1.4513                 1.8688                 1.2161
 IR Inten    --     29.4064                96.1911                 1.8404

                     64                     65                     66
                      A                      A                      A
 Frequencies --   1325.1257              1349.3551              1363.7885
 Red. masses --      1.6836                 1.3948                 1.5524
 Frc consts  --      1.7418                 1.4963                 1.7012
 IR Inten    --     39.7972                 2.2611                10.9653

                     67                     68                     69
                      A                      A                      A
 Frequencies --   1374.2476              1384.9712              1397.1079
 Red. masses --      1.6137                 1.5133                 1.4717
 Frc consts  --      1.7956                 1.7103                 1.6925
 IR Inten    --     29.7437                27.9833                22.8022

                     70                     71                     72
                      A                      A                      A
 Frequencies --   1398.8257              1422.8177              1434.5446
 Red. masses --      1.8098                 1.3471                 1.2673
 Frc consts  --      2.0865                 1.6067                 1.5366
 IR Inten    --     22.6986                 8.3854                13.0614

                     73                     74                     75
                      A                      A                      A
 Frequencies --   1449.7166              1452.1912              1460.8752
 Red. masses --      1.2595                 1.2933                 1.8597
 Frc consts  --      1.5596                 1.6069                 2.3384
 IR Inten    --      7.8117                11.9034                97.1865

                     76                     77                     78
                      A                      A                      A
 Frequencies --   1484.3523              1510.8978              1513.2859
 Red. masses --      1.1460                 1.0747                 1.0867
 Frc consts  --      1.4876                 1.4454                 1.4663
 IR Inten    --     33.2393                 1.6995                 9.1038

                     79                     80                     81
                      A                      A                      A
 Frequencies --   1514.9256              1519.4634              1525.5591
 Red. masses --      1.0522                 1.0531                 1.0689
 Frc consts  --      1.4227                 1.4325                 1.4657
 IR Inten    --      2.5373                 4.5762                 1.5967

                     82                     83                     84
                      A                      A                      A
 Frequencies --   1529.4249              1536.6975              1538.2918
 Red. masses --      1.0639                 1.0653                 1.0670
 Frc consts  --      1.4662                 1.4821                 1.4876
 IR Inten    --     19.7469                 3.1335                 9.7803

                     85                     86                     87
                      A                      A                      A
 Frequencies --   1539.9357              1550.4436              1566.2794
 Red. masses --      1.0767                 1.0543                 1.0901
 Frc consts  --      1.5044                 1.4933                 1.5756
 IR Inten    --      4.4286                13.5239                 2.3631

                     88                     89                     90
                      A                      A                      A
 Frequencies --   1744.9804              1846.2598              3031.4815
 Red. masses --     10.3822                 9.9209                 1.0657
 Frc consts  --     18.6260                19.9245                 5.7700
 IR Inten    --    263.7833               270.6757                13.3415

                     91                     92                     93
                      A                      A                      A
 Frequencies --   3044.1015              3055.9981              3056.8985
 Red. masses --      1.0695                 1.0382                 1.0374
 Frc consts  --      5.8391                 5.7125                 5.7114
 IR Inten    --     45.7962                15.7166                13.8054

                     94                     95                     96
                      A                      A                      A
 Frequencies --   3060.1232              3061.5788              3065.9740
 Red. masses --      1.0466                 1.0550                 1.0969
 Frc consts  --      5.7743                 5.8265                 6.0752
 IR Inten    --     20.6377                27.0837                22.8093

                     97                     98                     99
                      A                      A                      A
 Frequencies --   3067.2844              3080.0139              3093.4282
 Red. masses --      1.0544                 1.0663                 1.1043
 Frc consts  --      5.8447                 5.9596                 6.2264
 IR Inten    --     32.1636                37.4146                15.8313

                    100                    101                    102
                      A                      A                      A
 Frequencies --   3098.3471              3108.9668              3115.7471
 Red. masses --      1.0659                 1.1026                 1.1018
 Frc consts  --      6.0288                 6.2791                 6.3022
 IR Inten    --     28.8323                10.2942                60.0965

                    103                    104                    105
                      A                      A                      A
 Frequencies --   3121.4330              3126.0935              3128.8790
 Red. masses --      1.1013                 1.1056                 1.1009
 Frc consts  --      6.3222                 6.3659                 6.3501
 IR Inten    --      3.9974                45.8154                55.2328

                    106                    107                    108
                      A                      A                      A
 Frequencies --   3140.7482              3141.4641              3148.8360
 Red. masses --      1.1018                 1.1023                 1.1016
 Frc consts  --      6.4038                 6.4095                 6.4355
 IR Inten    --     19.3211                21.1004                16.8556

                    109                    110                    111
                      A                      A                      A
 Frequencies --   3155.5335              3165.1182              3678.9924
 Red. masses --      1.0891                 1.1001                 1.0640
 Frc consts  --      6.3897                 6.4932                 8.4850
 IR Inten    --     16.4368                 5.5062                59.6114

 - Thermochemistry -
 -------------------
 Temperature   298.150 Kelvin.  Pressure   1.00000 Atm.
 Atom     1 has atomic number  6 and mass  12.00000

 Molecular mass:   242.16304 amu.
 Principal axes and moments of inertia in atomic units:
                           1         2         3
     Eigenvalues --  3069.750774637.796176295.64788
           X            0.99821   0.05984   0.00219
           Y           -0.05988   0.99774   0.03044
           Z           -0.00036  -0.03051   0.99953
 This molecule is an asymmetric top.
 Rotational symmetry number  1.
 Warning -- assumption of classical behavior for rotation
           may cause significant error
 Rotational temperatures (Kelvin)      0.02822     0.01868     0.01376
 Rotational constants (GHZ):           0.58791     0.38914     0.28666
 Zero-point vibrational energy     902305.0 (Joules/Mol)
                                  215.65608 (Kcal/Mol)
 Warning -- explicit consideration of  28 degrees of freedom as
           vibrations may cause significant error
 Vibrational temperatures:     43.96    53.24    68.88    71.77   113.61
          (Kelvin)            136.42   149.59   177.38   224.42   263.12
                              293.88   328.32   331.18   378.54   411.46
                              437.51   459.02   480.75   517.66   551.47
                              586.55   597.15   625.51   652.29   732.75
                              786.45   854.10   869.34   921.55   987.86
                             1004.14  1063.09  1125.55  1127.13  1167.25
                             1217.41  1240.24  1248.68  1306.06  1324.99
                             1342.07  1360.51  1376.20  1392.51  1425.23
                             1477.79  1512.79  1526.86  1557.94  1570.84
                             1606.39  1625.62  1692.42  1702.94  1717.92
                             1733.15  1800.54  1804.31  1818.55  1825.24
                             1844.95  1869.11  1888.83  1906.56  1941.42
                             1962.19  1977.24  1992.66  2010.13  2012.60
                             2047.12  2063.99  2085.82  2089.38  2101.87
                             2135.65  2173.84  2177.28  2179.64  2186.17
                             2194.94  2200.50  2210.96  2213.26  2215.62
                             2230.74  2253.53  2510.64  2656.36  4361.63
                             4379.78  4396.90  4398.20  4402.83  4404.93
                             4411.25  4413.14  4431.45  4450.75  4457.83
                             4473.11  4482.87  4491.05  4497.75  4501.76
                             4518.84  4519.87  4530.47  4540.11  4553.90
                             5293.25

 Zero-point correction=                           0.343670 (Hartree/Particle)
 Thermal correction to Energy=                    0.362013
 Thermal correction to Enthalpy=                  0.362957
 Thermal correction to Gibbs Free Energy=         0.296412
 Sum of electronic and zero-point Energies=           -805.457596
 Sum of electronic and thermal Energies=              -805.439253
 Sum of electronic and thermal Enthalpies=            -805.438309
 Sum of electronic and thermal Free Energies=         -805.504854

                     E (Thermal)             CV                S
                      KCal/Mol        Cal/Mol-Kelvin    Cal/Mol-Kelvin
 Total                  227.167             68.717            140.056
 Electronic               0.000              0.000              0.000
 Translational            0.889              2.981             42.354
 Rotational               0.889              2.981             32.861
 Vibrational            225.389             62.756             64.841
 Vibration     1          0.594              1.984              5.793
 Vibration     2          0.594              1.982              5.414
 Vibration     3          0.595              1.978              4.903
 Vibration     4          0.595              1.978              4.822
 Vibration     5          0.600              1.963              3.916
 Vibration     6          0.603              1.953              3.558
 Vibration     7          0.605              1.946              3.378
 Vibration     8          0.610              1.930              3.048
 Vibration     9          0.620              1.896              2.598
 Vibration    10          0.630              1.863              2.299
 Vibration    11          0.640              1.834              2.094
 Vibration    12          0.651              1.798              1.893
 Vibration    13          0.652              1.795              1.878
 Vibration    14          0.670              1.740              1.641
 Vibration    15          0.684              1.700              1.498
 Vibration    16          0.695              1.666              1.394
 Vibration    17          0.705              1.637              1.315
 Vibration    18          0.716              1.607              1.240
 Vibration    19          0.734              1.555              1.123
 Vibration    20          0.752              1.506              1.026
 Vibration    21          0.772              1.454              0.935
 Vibration    22          0.778              1.438              0.909
 Vibration    23          0.795              1.394              0.843
 Vibration    24          0.812              1.353              0.786
 Vibration    25          0.864              1.229              0.635
 Vibration    26          0.902              1.147              0.551
 Vibration    27          0.951              1.045              0.461
 Vibration    28          0.963              1.023              0.442

 Optimization completed.
    -- Stationary point found.
 Normal termination of Gaussian 16 at Fri Dec 11 13:52:08 2020.

 ----------------------------------------------------------------------
 # B3LYP/6-311++G(d,p) empiricaldispersion=gd3bj scf=xqc pop=npa geom=c
 heck
 ----------------------------------------------------------------------

 --------------------------------------
 CID_63218864_JID_7668_Energie_neutraal
 --------------------------------------
 Structure from the checkpoint file:  "JID_7668.chk"
 Charge =  0 Multiplicity = 1

 SCF Done:  E(RB3LYP) =  -806.038473029     A.U. after   14 cycles
 Normal termination of Gaussian 16 at Fri Dec 11 14:00:21 2020.

 ----------------------------------------------------------------------
 # B3LYP/6-311++G(d,p) empiricaldispersion=gd3bj scf=xqc pop=npa geom=c
 heck
 ----------------------------------------------------------------------

 ------------------------------------
 CID_63218864_JID_7668_Energie_kation
 ------------------------------------
 Structure from the checkpoint file:  "JID_7668.chk"
 Charge =  1 Multiplicity = 2

 SCF Done:  E(UB3LYP) =  -805.736793542     A.U. after   29 cycles
 Normal termination of Gaussian 16 at Fri Dec 11 14:24:15 2020.
 Gaussian 16:  ES64L-G16RevA.03 25-Dec-2016

 ----------------------------------------------------------------------
 # B3LYP/6-311++G(d,p) empiricaldispersion=gd3bj scf=xqc pop=npa geom=c
 heck
 ----------------------------------------------------------------------

 -----------------------------------
 CID_63218864_JID_7668_Energie_anion
 -----------------------------------
 Structure from the checkpoint file:  "JID_7668.chk"
 Charge = -1 Multiplicity = 2

                         Standard orientation:
 ---------------------------------------------------------------------
 Center     Atomic      Atomic             Coordinates (Angstroms)
 Number     Number       Type             X           Y           Z
 ---------------------------------------------------------------------
      1          6           0       -2.590350   -2.747247   -0.686838
      2          6           0       -3.258403   -1.559164    0.008376
      3          6           0       -2.310388   -0.741710    0.898199
      4          7           0       -1.116337   -0.244464    0.202668
      5          6           0       -1.307045    0.725270   -0.854216
      6          6           0       -1.652473    2.147985   -0.445739
      7          8           0       -1.713842    3.060498   -1.238425
      8          8           0       -1.909807    2.306567    0.873748
      9          6           0        0.052114   -0.967156    0.331907
     10          8           0        0.104432   -2.003204    0.986309
     11          7           0        1.177004   -0.433006   -0.370678
     12          6           0        2.046362   -1.490761   -0.936153
     13          6           0        3.417758   -0.812167   -1.153204
     14          6           0        3.244641    0.611901   -0.592766
     15          6           0        2.066827    0.509820    0.391889
     16          6           0        1.404664    1.865033    0.627940
     17          6           0        2.518155   -0.088590    1.737917
     18          1           0       -1.817673   -2.412009   -1.387823
     19          1           0       -3.324010   -3.329716   -1.254747
     20          1           0       -2.103478   -3.405479    0.038319
     21          1           0       -3.730770   -0.908038   -0.740186
     22          1           0       -4.075800   -1.910792    0.651367
     23          1           0       -2.837601    0.118584    1.319783
     24          1           0       -1.949016   -1.360173    1.719734
     25          1           0       -0.391056    0.770223   -1.443620
     26          1           0       -2.111489    0.404689   -1.530574
     27          1           0       -2.114588    3.253886    0.990547
     28          1           0        2.121648   -2.342783   -0.253024
     29          1           0        1.599291   -1.851197   -1.868657
     30          1           0        3.706047   -0.797276   -2.207848
     31          1           0        4.199421   -1.356259   -0.614688
     32          1           0        2.973883    1.306889   -1.395085
     33          1           0        4.146808    0.996129   -0.106602
     34          1           0        0.536002    1.780118    1.286017
     35          1           0        2.120810    2.541725    1.107135
     36          1           0        1.091725    2.323461   -0.315324
     37          1           0        3.008596   -1.057529    1.608115
     38          1           0        3.224045    0.589118    2.230983
     39          1           0        1.665105   -0.241454    2.405315
 ---------------------------------------------------------------------

 SCF Done:  E(UB3LYP) =  -806.026979033     A.U. after   33 cycles
 SCF Done:  E(UB3LYP) =  -806.026979033     a.u. after    1 cycles

 The electronic state is 2-A.
 Alpha  occ. eigenvalues --  -19.07705 -19.02315 -18.99644 -14.25429 -14.22165
 Alpha  occ. eigenvalues --  -10.21650 -10.20048 -10.12657 -10.12403 -10.10347
 Alpha  occ. eigenvalues --  -10.10136 -10.08049 -10.07898 -10.07666 -10.06578
 Alpha  occ. eigenvalues --  -10.06464 -10.06281  -1.01909  -0.95968  -0.92978
 Alpha  occ. eigenvalues --   -0.85301  -0.83614  -0.70517  -0.69095  -0.67712
 Alpha  occ. eigenvalues --   -0.65394  -0.60409  -0.59626  -0.57777  -0.53073
 Alpha  occ. eigenvalues --   -0.52770  -0.49417  -0.48070  -0.46230  -0.41695
 Alpha  occ. eigenvalues --   -0.41225  -0.40351  -0.39255  -0.38817  -0.36697
 Alpha  occ. eigenvalues --   -0.36507  -0.35801  -0.35032  -0.34508  -0.33798
 Alpha  occ. eigenvalues --   -0.31691  -0.31404  -0.31186  -0.30591  -0.30092
 Alpha  occ. eigenvalues --   -0.29513  -0.29138  -0.28541  -0.27120  -0.26744
 Alpha  occ. eigenvalues --   -0.25867  -0.25560  -0.25360  -0.24528  -0.23856
 Alpha  occ. eigenvalues --   -0.23523  -0.22858  -0.20133  -0.18412  -0.15383
 Alpha  occ. eigenvalues --   -0.13961   0.04140
 Alpha virt. eigenvalues --    0.05871   0.06268   0.07247   0.07980   0.08218
 Alpha virt. eigenvalues --    0.08336   0.09070   0.09154   0.10022   0.10244
 Alpha virt. eigenvalues --    0.10397   0.10878   0.11540   0.11786   0.11958

  Beta  occ. eigenvalues --  -19.07643 -19.02299 -18.99642 -14.25429 -14.22160
  Beta  occ. eigenvalues --  -10.21645 -10.20047 -10.12629 -10.12403 -10.10336
  Beta  occ. eigenvalues --  -10.10128 -10.08034 -10.07877 -10.07648 -10.06561
  Beta  occ. eigenvalues --  -10.06445 -10.06257  -1.01829  -0.95964  -0.92915
  Beta  occ. eigenvalues --   -0.85294  -0.83606  -0.70498  -0.69067  -0.67685
  Beta  occ. eigenvalues --   -0.65344  -0.60380  -0.59589  -0.57738  -0.52990
  Beta  occ. eigenvalues --   -0.52707  -0.49373  -0.48027  -0.46193  -0.41667
  Beta  occ. eigenvalues --   -0.41193  -0.40320  -0.39224  -0.38778  -0.36658
  Beta  occ. eigenvalues --   -0.36485  -0.35769  -0.35012  -0.34484  -0.33769
  Beta  occ. eigenvalues --   -0.31658  -0.31383  -0.31160  -0.30552  -0.30063
  Beta  occ. eigenvalues --   -0.29489  -0.29116  -0.28517  -0.27094  -0.26719
  Beta  occ. eigenvalues --   -0.25837  -0.25532  -0.25337  -0.24501  -0.23827
  Beta  occ. eigenvalues --   -0.23497  -0.22823  -0.20085  -0.18403  -0.15367
  Beta  occ. eigenvalues --   -0.13950
  Beta virt. eigenvalues --    0.06122   0.06615   0.07322   0.07851   0.08367
  Beta virt. eigenvalues --    0.08436   0.08600   0.09284   0.09524   0.10122
  Beta virt. eigenvalues --    0.10471   0.10638   0.11153   0.11781   0.11924

 Mulliken charges and spin densities:
               1          2
     1  C   -0.054013  -0.378112
     2  C    0.314484  -0.663383
     3  C   -0.483131   0.295492
     4  N    0.210676   0.067634
     5  C    0.264271  -0.479506
     6  C    0.210431  -0.552075
     7  O   -0.242501   0.052334
     8  O   -0.215506   0.078712
     9  C   -0.474897  -0.344575
    10  O   -0.230097   0.017634
    11  N    0.360377   0.020674
    12  C    0.247709  -0.134296
    13  C   -0.105393  -0.481963
    14  C   -0.170782   0.005015
    15  C   -0.960250   1.042198
    16  C   -0.185169  -0.400224
    17  C    0.916892  -1.491921
    18  H   -0.017799   0.170155
    19  H   -0.166871   0.322973
    20  H    0.181558  -0.029186
    21  H   -0.108994   0.250670
    22  H   -0.139525   0.293963
    23  H    0.004163   0.192786
    24  H    0.080728   0.104249
    25  H    0.114241   0.199715
    26  H    0.032876   0.148858
    27  H   -0.495278   0.814786
    28  H    0.200972   0.005698
    29  H    0.019665   0.106226
    30  H   -0.203664   0.376654
    31  H    0.026884   0.112892
    32  H    0.046730   0.103274
    33  H   -0.145551   0.305690
    34  H    0.171084   0.004702
    35  H   -0.386873   0.564069
    36  H    0.230813  -0.060417
    37  H    0.070627   0.081839
    38  H   -0.026151   0.190810
    39  H    0.107264   0.085957
 Sum of Mulliken charges =  -1.00000   1.00000

 Dipole moment (field-independent basis, Debye):
    X=              2.2886    Y=             -3.9616    Z=             -0.7271  Tot=              4.6326
 Quadrupole moment (field-independent basis, Debye-Ang):
   XX=           -170.5564   YY=           -166.6911   ZZ=           -143.2855
   XY=              4.1086   XZ=             -0.8408   YZ=             -3.4887

 Summary of Natural Population Analysis:

                                       Natural Population
                Natural  -----------------------------------------------
    Atom  No    Charge         Core      Valence    Rydberg      Total
 -----------------------------------------------------------------------
      C    1   -0.28976      0.99966     2.28398    0.00611     3.28976
      C    2   -0.19587      0.99964     2.18915    0.00708     3.19587
      C    3   -0.08852      0.99959     2.07783    0.01110     3.08852
      N    4   -0.25628      0.99963     2.74425    0.01240     3.75628
      C    5   -0.14216      0.99953     2.13063    0.01200     3.14216
      C    6    0.40424      0.99972     1.57122    0.02482     2.59576
      O    7   -0.30562      0.99987     3.29960    0.00614     4.30562
      O    8   -0.34329      0.99988     3.33557    0.00784     4.34329
      C    9    0.42976      0.99963     1.54595    0.02465     2.57024
      O   10   -0.32855      0.99987     3.32413    0.00454     4.32855
      N   11   -0.31333      0.99966     2.80148    0.01219     3.81333
      C   12   -0.08454      0.99963     2.07436    0.01056     3.08454
      C   13   -0.19665      0.99964     2.18968    0.00733     3.19665
      C   14   -0.18950      0.99957     2.18041    0.00952     3.18950
      C   15    0.07260      0.99956     1.91391    0.01393     2.92740
      C   16   -0.29464      0.99960     2.28694    0.00810     3.29464
      C   17   -0.29770      0.99961     2.29102    0.00707     3.29770
      H   18    0.09673      0.00000     0.40222    0.00105     0.40327
      H   19    0.09712      0.00000     0.40209    0.00079     0.40288
      H   20    0.10409      0.00000     0.39507    0.00084     0.39591
      H   21    0.09350      0.00000     0.40517    0.00133     0.40650
      H   22    0.09854      0.00000     0.40047    0.00099     0.40146
      H   23    0.10496      0.00000     0.39331    0.00172     0.39504
      H   24    0.11082      0.00000     0.38802    0.00116     0.38918
      H   25    0.13277      0.00000     0.36574    0.00149     0.36723
      H   26    0.11147      0.00000     0.38726    0.00127     0.38853
      H   27    0.24856      0.00000     0.23095    0.02049     0.25144
      H   28    0.09851      0.00000     0.40025    0.00124     0.40149
      H   29    0.09456      0.00000     0.40438    0.00106     0.40544
      H   30    0.10120      0.00000     0.39782    0.00098     0.39880
      H   31    0.09742      0.00000     0.40160    0.00099     0.40258
      H   32    0.10109      0.00000     0.39767    0.00124     0.39891
      H   33    0.10299      0.00000     0.39595    0.00106     0.39701
      H   34    0.10867      0.00000     0.38915    0.00218     0.39133
      H   35    0.10440      0.00000     0.39458    0.00102     0.39560
      H   36    0.10274      0.00000     0.39589    0.00137     0.39726
      H   37    0.10198      0.00000     0.39722    0.00080     0.39802
      H   38    0.10131      0.00000     0.39779    0.00091     0.39869
      H   39    0.10636      0.00000     0.39281    0.00083     0.39364
 =======================================================================
   * Total *   -0.00000     16.99428    48.77549    0.23022    66.00000

 Normal termination of Gaussian 16 at Fri Dec 11 14:50:29 2020.
