 Gaussian 16, Revision A.03,

 -----------------------------------------------------------
 # opt freq B3LYP/6-31G(d) empiricaldispersion=gd3bj scf=xqc
 -----------------------------------------------------------

 ------------------------------
 CID_10061426_JID_9356_neutraal
 ------------------------------
 Symbolic Z-matrix:
 Charge =  0 Multiplicity = 1

 SCF Done:  E(RB3LYP) =  -951.310708234     A.U. after   18 cycles
 SCF Done:  E(RB3LYP) =  -951.310778338     A.U. after   15 cycles
 SCF Done:  E(RB3LYP) =  -951.316954928     A.U. after   15 cycles
 SCF Done:  E(RB3LYP) =  -951.314627192     A.U. after   15 cycles
 SCF Done:  E(RB3LYP) =  -951.318234112     A.U. after   14 cycles
 SCF Done:  E(RB3LYP) =  -951.319047454     A.U. after   15 cycles
 SCF Done:  E(RB3LYP) =  -951.319902359     A.U. after   14 cycles
 SCF Done:  E(RB3LYP) =  -951.320304921     A.U. after   13 cycles
 SCF Done:  E(RB3LYP) =  -951.320486010     A.U. after   14 cycles
 SCF Done:  E(RB3LYP) =  -951.320740013     A.U. after   13 cycles
 SCF Done:  E(RB3LYP) =  -951.320925831     A.U. after   12 cycles
 SCF Done:  E(RB3LYP) =  -951.320931838     A.U. after   11 cycles
 SCF Done:  E(RB3LYP) =  -951.320936454     A.U. after   11 cycles
 SCF Done:  E(RB3LYP) =  -951.320936962     A.U. after   10 cycles
 SCF Done:  E(RB3LYP) =  -951.320937391     A.U. after   10 cycles
 SCF Done:  E(RB3LYP) =  -951.320937640     A.U. after    8 cycles
 Optimization completed.
    -- Stationary point found.
 Normal termination of Gaussian 16 at Mon Dec 14 16:54:01 2020.

 --------------------------------------------------------------------
 #N Geom=AllCheck Guess=TCheck SCRF=Check GenChk RB3LYP/6-31G(d) Freq
 --------------------------------------------------------------------

 Structure from the checkpoint file:  "JID_9356.chk"
 ------------------------------
 CID_10061426_JID_9356_neutraal
 ------------------------------
 Charge =  0 Multiplicity = 1

 SCF Done:  E(RB3LYP) =  -951.320937640     A.U. after    2 cycles

  Exact polarizability: 235.560  -7.019 140.762  16.393  21.371 109.466
 Approx polarizability: 329.722  -4.774 237.514  53.832  56.304 189.499

                      1                      2                      3
                      A                      A                      A
 Frequencies --     25.6386                41.7396                47.0588
 Red. masses --      3.9504                 5.7257                 4.6787
 Frc consts  --      0.0015                 0.0059                 0.0061
 IR Inten    --      0.5383                 1.8233                 0.5145

                      4                      5                      6
                      A                      A                      A
 Frequencies --     56.7592                60.9884                87.7347
 Red. masses --      3.9997                10.0360                 5.8147
 Frc consts  --      0.0076                 0.0220                 0.0264
 IR Inten    --      0.7238                 0.2869                 1.2053

                      7                      8                      9
                      A                      A                      A
 Frequencies --    112.5853               121.8632               126.4401
 Red. masses --      3.5366                 2.3987                 2.0999
 Frc consts  --      0.0264                 0.0210                 0.0198
 IR Inten    --      0.7853                 0.5598                 1.2914

                     10                     11                     12
                      A                      A                      A
 Frequencies --    140.9515               153.0891               186.1624
 Red. masses --      1.7628                 5.3435                 4.0836
 Frc consts  --      0.0206                 0.0738                 0.0834
 IR Inten    --      0.3244                 3.5892                 5.1703

                     13                     14                     15
                      A                      A                      A
 Frequencies --    207.5234               224.7829               278.2379
 Red. masses --      1.8277                 5.8222                 2.9576
 Frc consts  --      0.0464                 0.1733                 0.1349
 IR Inten    --      0.2796                 4.1495                 1.8603

                     16                     17                     18
                      A                      A                      A
 Frequencies --    283.0965               306.1927               315.9521
 Red. masses --      3.5291                 4.4805                 3.6895
 Frc consts  --      0.1666                 0.2475                 0.2170
 IR Inten    --      0.7881                 2.3257                15.9221

                     19                     20                     21
                      A                      A                      A
 Frequencies --    346.6110               380.2110               394.7816
 Red. masses --      5.3679                 4.7806                 2.6697
 Frc consts  --      0.3800                 0.4072                 0.2451
 IR Inten    --     17.6293                 0.6646                 3.7914

                     22                     23                     24
                      A                      A                      A
 Frequencies --    442.7943               467.2965               497.6311
 Red. masses --      5.0921                 4.3691                 3.9682
 Frc consts  --      0.5882                 0.5621                 0.5790
 IR Inten    --      8.0859                21.6982                40.7051

                     25                     26                     27
                      A                      A                      A
 Frequencies --    506.5370               529.1741               579.0899
 Red. masses --      3.9781                 2.1274                 3.1266
 Frc consts  --      0.6014                 0.3510                 0.6178
 IR Inten    --     20.6541                45.4046                18.4947

                     28                     29                     30
                      A                      A                      A
 Frequencies --    598.9148               666.8051               689.8142
 Red. masses --      3.1703                 5.9568                 2.9879
 Frc consts  --      0.6700                 1.5605                 0.8377
 IR Inten    --     14.7773                 9.1054                 9.9468

                     31                     32                     33
                      A                      A                      A
 Frequencies --    713.9133               725.6354               755.1378
 Red. masses --      4.8911                 4.7325                 2.9118
 Frc consts  --      1.4687                 1.4682                 0.9783
 IR Inten    --     44.4712                21.0721                22.8525

                     34                     35                     36
                      A                      A                      A
 Frequencies --    767.5846               784.0217               829.6558
 Red. masses --      4.7157                 5.9596                 3.5132
 Frc consts  --      1.6370                 2.1584                 1.4248
 IR Inten    --      7.6136                 0.8049                15.1958

                     37                     38                     39
                      A                      A                      A
 Frequencies --    837.5553               857.5298               884.9972
 Red. masses --      2.7352                 1.6005                 3.7759
 Frc consts  --      1.1305                 0.6934                 1.7424
 IR Inten    --     12.5921                16.6751                 7.5716

                     40                     41                     42
                      A                      A                      A
 Frequencies --    906.2382               925.2529               948.1361
 Red. masses --      2.7699                 1.4752                 4.5688
 Frc consts  --      1.3403                 0.7441                 2.4199
 IR Inten    --      0.2852                 5.4570                 3.3026

                     43                     44                     45
                      A                      A                      A
 Frequencies --    966.6706               984.1213              1027.2092
 Red. masses --      1.4490                 1.3327                 6.1383
 Frc consts  --      0.7977                 0.7605                 3.8161
 IR Inten    --      6.0085                 0.8309                24.4072

                     46                     47                     48
                      A                      A                      A
 Frequencies --   1071.2983              1106.8138              1111.3033
 Red. masses --      1.9530                 1.8033                 2.2135
 Frc consts  --      1.3206                 1.3016                 1.6106
 IR Inten    --      0.6013                 0.1510                12.8183

                     49                     50                     51
                      A                      A                      A
 Frequencies --   1127.3503              1164.8947              1186.2238
 Red. masses --      1.7430                 3.5628                 1.3113
 Frc consts  --      1.3051                 2.8485                 1.0872
 IR Inten    --     38.0747               147.4098                 3.6635

                     52                     53                     54
                      A                      A                      A
 Frequencies --   1186.4570              1226.7303              1239.5227
 Red. masses --      1.3841                 1.6526                 2.3486
 Frc consts  --      1.1479                 1.4653                 2.1261
 IR Inten    --     11.6688                75.6373               108.3723

                     55                     56                     57
                      A                      A                      A
 Frequencies --   1271.6017              1279.5686              1293.9973
 Red. masses --      1.6069                 1.7224                 2.3026
 Frc consts  --      1.5308                 1.6616                 2.2716
 IR Inten    --    243.3089               279.8598                69.1611

                     58                     59                     60
                      A                      A                      A
 Frequencies --   1313.6054              1325.9116              1379.1517
 Red. masses --      1.3260                 2.6521                 6.2242
 Frc consts  --      1.3481                 2.7471                 6.9753
 IR Inten    --    120.1358               302.8493                84.0578

                     61                     62                     63
                      A                      A                      A
 Frequencies --   1393.1502              1402.8779              1423.7237
 Red. masses --      1.4062                 6.9816                 1.7531
 Frc consts  --      1.6080                 8.0955                 2.0937
 IR Inten    --     13.4603               138.3473               160.8601

                     64                     65                     66
                      A                      A                      A
 Frequencies --   1437.6459              1443.6198              1493.1863
 Red. masses --      2.6498                 1.2855                 1.2211
 Frc consts  --      3.2268                 1.5785                 1.6042
 IR Inten    --     18.1347                 6.0109                39.3071

                     67                     68                     69
                      A                      A                      A
 Frequencies --   1503.1623              1505.6561              1511.9576
 Red. masses --      1.2880                 1.6163                 1.0475
 Frc consts  --      1.7147                 2.1589                 1.4108
 IR Inten    --      5.5667                26.8346                 6.7129

                     70                     71                     72
                      A                      A                      A
 Frequencies --   1515.4889              1524.1544              1531.1498
 Red. masses --      1.0779                 1.0486                 1.0545
 Frc consts  --      1.4586                 1.4352                 1.4565
 IR Inten    --      9.9994                 8.5836                 5.5694

                     73                     74                     75
                      A                      A                      A
 Frequencies --   1538.4346              1550.9099              1617.2896
 Red. masses --      1.0506                 3.4268                 6.7581
 Frc consts  --      1.4650                 4.8564                10.4148
 IR Inten    --     12.6281                59.2552                29.3861

                     76                     77                     78
                      A                      A                      A
 Frequencies --   1637.9753              1677.5289              1799.1110
 Red. masses --      9.9308                 7.6102                 8.4826
 Frc consts  --     15.6981                12.6179                16.1768
 IR Inten    --     89.9981               287.1103               404.3609

                     79                     80                     81
                      A                      A                      A
 Frequencies --   1809.4076              3045.1920              3062.4038
 Red. masses --     11.5668                 1.0375                 1.0645
 Frc consts  --     22.3119                 5.6685                 5.8822
 IR Inten    --    165.0786                19.1945                29.9127

                     82                     83                     84
                      A                      A                      A
 Frequencies --   3070.9234              3079.6019              3100.2532
 Red. masses --      1.0598                 1.0293                 1.0985
 Frc consts  --      5.8884                 5.7518                 6.2208
 IR Inten    --      9.2706                37.3754                 5.3388

                     85                     86                     87
                      A                      A                      A
 Frequencies --   3112.3935              3122.2443              3126.8305
 Red. masses --      1.1030                 1.1006                 1.1029
 Frc consts  --      6.2951                 6.3214                 6.3535
 IR Inten    --      4.1362                45.0652                39.2111

                     88                     89                     90
                      A                      A                      A
 Frequencies --   3155.9537              3188.0990              3201.5169
 Red. masses --      1.1077                 1.1075                 1.0903
 Frc consts  --      6.5006                 6.6321                 6.5840
 IR Inten    --     17.8551                15.6433                 5.9193

                     91                     92                     93
                      A                      A                      A
 Frequencies --   3242.2727              3255.7855              3576.7773
 Red. masses --      1.0928                 1.0910                 1.0755
 Frc consts  --      6.7682                 6.8136                 8.1065
 IR Inten    --      0.8154                 8.5532                41.4484

 - Thermochemistry -
 -------------------
 Temperature   298.150 Kelvin.  Pressure   1.00000 Atm.
 Atom     1 has atomic number  6 and mass  12.00000

 Molecular mass:   266.09027 amu.
 Principal axes and moments of inertia in atomic units:
                           1         2         3
     Eigenvalues --  2530.885719548.88992**********
           X            0.99990   0.00339  -0.01359
           Y           -0.00372   0.99968  -0.02488
           Z            0.01350   0.02493   0.99960
 This molecule is an asymmetric top.
 Rotational symmetry number  1.
 Warning -- assumption of classical behavior for rotation
           may cause significant error
 Rotational temperatures (Kelvin)      0.03422     0.00907     0.00838
 Rotational constants (GHZ):           0.71309     0.18900     0.17452
 Zero-point vibrational energy     680263.8 (Joules/Mol)
                                  162.58695 (Kcal/Mol)
 Warning -- explicit consideration of  28 degrees of freedom as
           vibrations may cause significant error
 Vibrational temperatures:     36.89    60.05    67.71    81.66    87.75
          (Kelvin)            126.23   161.99   175.33   181.92   202.80
                              220.26   267.85   298.58   323.41   400.32
                              407.31   440.54   454.58   498.70   547.04
                              568.00   637.08   672.34   715.98   728.79
                              761.36   833.18   861.70   959.38   992.49
                             1027.16  1044.03  1086.47  1104.38  1128.03
                             1193.69  1205.06  1233.79  1273.31  1303.87
                             1331.23  1364.16  1390.82  1415.93  1477.92
                             1541.36  1592.46  1598.92  1622.01  1676.02
                             1706.71  1707.05  1764.99  1783.40  1829.55
                             1841.01  1861.77  1889.99  1907.69  1984.29
                             2004.43  2018.43  2048.42  2068.45  2077.05
                             2148.36  2162.72  2166.30  2175.37  2180.45
                             2192.92  2202.98  2213.46  2231.41  2326.92
                             2356.68  2413.59  2588.52  2603.33  4381.35
                             4406.12  4418.37  4430.86  4460.57  4478.04
                             4492.21  4498.81  4540.71  4586.96  4606.27
                             4664.91  4684.35  5146.18

 Zero-point correction=                           0.259099 (Hartree/Particle)
 Thermal correction to Energy=                    0.277727
 Thermal correction to Enthalpy=                  0.278671
 Thermal correction to Gibbs Free Energy=         0.210295
 Sum of electronic and zero-point Energies=           -951.061839
 Sum of electronic and thermal Energies=              -951.043211
 Sum of electronic and thermal Enthalpies=            -951.042266
 Sum of electronic and thermal Free Energies=         -951.110643

                     E (Thermal)             CV                S
                      KCal/Mol        Cal/Mol-Kelvin    Cal/Mol-Kelvin
 Total                  174.276             67.271            143.911
 Electronic               0.000              0.000              0.000
 Translational            0.889              2.981             42.635
 Rotational               0.889              2.981             33.879
 Vibrational            172.499             61.309             67.396
 Vibration     1          0.593              1.985              6.141
 Vibration     2          0.594              1.980              5.175
 Vibration     3          0.595              1.979              4.937
 Vibration     4          0.596              1.975              4.567
 Vibration     5          0.597              1.973              4.425
 Vibration     6          0.601              1.958              3.710
 Vibration     7          0.607              1.939              3.224
 Vibration     8          0.609              1.931              3.071
 Vibration     9          0.611              1.927              2.999
 Vibration    10          0.615              1.912              2.791
 Vibration    11          0.619              1.899              2.633
 Vibration    12          0.632              1.859              2.266
 Vibration    13          0.641              1.829              2.065
 Vibration    14          0.649              1.803              1.920
 Vibration    15          0.679              1.714              1.544
 Vibration    16          0.682              1.705              1.515
 Vibration    17          0.697              1.662              1.383
 Vibration    18          0.703              1.643              1.331
 Vibration    19          0.725              1.582              1.182
 Vibration    20          0.750              1.512              1.038
 Vibration    21          0.762              1.481              0.982
 Vibration    22          0.802              1.377              0.818
 Vibration    23          0.825              1.323              0.745
 Vibration    24          0.853              1.255              0.664
 Vibration    25          0.862              1.236              0.642
 Vibration    26          0.884              1.185              0.589
 Vibration    27          0.936              1.077              0.487
 Vibration    28          0.957              1.034              0.452

 Optimization completed.
    -- Stationary point found.
 Normal termination of Gaussian 16 at Mon Dec 14 17:09:34 2020.

 ----------------------------------------------------------------------
 # B3LYP/6-311++G(d,p) empiricaldispersion=gd3bj scf=xqc pop=npa geom=c
 heck
 ----------------------------------------------------------------------

 --------------------------------------
 CID_10061426_JID_9356_Energie_neutraal
 --------------------------------------
 Structure from the checkpoint file:  "JID_9356.chk"
 Charge =  0 Multiplicity = 1

 SCF Done:  E(RB3LYP) =  -951.596341139     A.U. after   18 cycles
 Normal termination of Gaussian 16 at Mon Dec 14 17:17:20 2020.

 ----------------------------------------------------------------------
 # B3LYP/6-311++G(d,p) empiricaldispersion=gd3bj scf=xqc pop=npa geom=c
 heck
 ----------------------------------------------------------------------

 ------------------------------------
 CID_10061426_JID_9356_Energie_kation
 ------------------------------------
 Structure from the checkpoint file:  "JID_9356.chk"
 Charge =  1 Multiplicity = 2

 SCF Done:  E(UB3LYP) =  -951.267931885     A.U. after   28 cycles
 Normal termination of Gaussian 16 at Mon Dec 14 17:34:26 2020.
 Gaussian 16:  ES64L-G16RevA.03 25-Dec-2016

 ----------------------------------------------------------------------
 # B3LYP/6-311++G(d,p) empiricaldispersion=gd3bj scf=xqc pop=npa geom=c
 heck
 ----------------------------------------------------------------------

 -----------------------------------
 CID_10061426_JID_9356_Energie_anion
 -----------------------------------
 Structure from the checkpoint file:  "JID_9356.chk"
 Charge = -1 Multiplicity = 2

                         Standard orientation:
 ---------------------------------------------------------------------
 Center     Atomic      Atomic             Coordinates (Angstroms)
 Number     Number       Type             X           Y           Z
 ---------------------------------------------------------------------
      1          6           0       -3.706030   -1.992876    1.858858
      2          6           0       -4.061801   -0.525762    1.608778
      3          6           0       -3.030034    0.198489    0.732099
      4          6           0       -3.021390   -0.372348   -0.674322
      5          8           0       -4.041354   -0.692029   -1.259503
      6          7           0       -1.798580   -0.630117   -1.300370
      7          6           0       -0.478765   -0.400633   -0.915210
      8          6           0        0.009235    0.782959   -0.320892
      9          6           0        1.330846    0.896198    0.097416
     10          6           0        2.231303   -0.142139   -0.126849
     11          6           0        1.783744   -1.305277   -0.769960
     12          6           0        0.454280   -1.430121   -1.139719
     13          6           0        3.636921    0.045623    0.321824
     14          8           0        4.049692    1.042581    0.878511
     15          8           0        4.407138   -1.026185    0.037614
     16          6           0        5.780734   -0.913610    0.444991
     17          7           0       -0.813856    1.993409   -0.189728
     18          8           0       -0.573508    2.739196    0.757239
     19          8           0       -1.668236    2.201310   -1.049559
     20          1           0       -3.682779   -2.555711    0.919067
     21          1           0       -4.442968   -2.471189    2.512593
     22          1           0       -2.722979   -2.087746    2.337055
     23          1           0       -5.039013   -0.457034    1.121099
     24          1           0       -4.134337    0.009684    2.562706
     25          1           0       -3.286907    1.260522    0.651563
     26          1           0       -2.038902    0.138474    1.193524
     27          1           0       -1.926809   -1.191259   -2.135195
     28          1           0        1.666565    1.808788    0.573790
     29          1           0        2.477907   -2.116753   -0.953198
     30          1           0        0.099050   -2.352635   -1.589261
     31          1           0        6.256479   -0.064270   -0.051468
     32          1           0        5.846714   -0.776080    1.527090
     33          1           0        6.250922   -1.849843    0.144824
 ---------------------------------------------------------------------

 SCF Done:  E(UB3LYP) =  -951.648322943     A.U. after   24 cycles

 The electronic state is 2-A.
 Alpha  occ. eigenvalues --  -19.07051 -18.99774 -18.97757 -18.97023 -18.96969
 Alpha  occ. eigenvalues --  -14.34952 -14.22962 -10.18875 -10.16164 -10.14238
 Alpha  occ. eigenvalues --  -10.10012 -10.08764 -10.06935 -10.06598 -10.06569
 Alpha  occ. eigenvalues --  -10.06495 -10.06470 -10.06215 -10.05512  -1.05190
 Alpha  occ. eigenvalues --   -1.00759  -0.93241  -0.91439  -0.87992  -0.82323
 Alpha  occ. eigenvalues --   -0.74497  -0.69225  -0.67276  -0.65317  -0.62797
 Alpha  occ. eigenvalues --   -0.60441  -0.55961  -0.53036  -0.51472  -0.48444
 Alpha  occ. eigenvalues --   -0.47040  -0.44287  -0.42259  -0.41058  -0.39444
 Alpha  occ. eigenvalues --   -0.39349  -0.38011  -0.37045  -0.36513  -0.35549
 Alpha  occ. eigenvalues --   -0.35139  -0.33902  -0.33308  -0.32779  -0.32277
 Alpha  occ. eigenvalues --   -0.31013  -0.30504  -0.29668  -0.28859  -0.28012
 Alpha  occ. eigenvalues --   -0.27236  -0.25758  -0.24793  -0.24493  -0.23690
 Alpha  occ. eigenvalues --   -0.23490  -0.21328  -0.19132  -0.17606  -0.15845
 Alpha  occ. eigenvalues --   -0.15556  -0.15185  -0.14238  -0.12178  -0.11794
 Alpha  occ. eigenvalues --    0.00945
 Alpha virt. eigenvalues --    0.06000   0.06360   0.07568   0.08460   0.09683
 Alpha virt. eigenvalues --    0.09989   0.10252   0.10511   0.10839   0.11244
 Alpha virt. eigenvalues --    0.12091   0.12442   0.12598   0.13741   0.13786

  Beta  occ. eigenvalues --  -19.07048 -18.99687 -18.97685 -18.96657 -18.96503
  Beta  occ. eigenvalues --  -14.34403 -14.22982 -10.18826 -10.16115 -10.14238
  Beta  occ. eigenvalues --  -10.09658 -10.08716 -10.06935 -10.06597 -10.06587
  Beta  occ. eigenvalues --  -10.06570 -10.06485 -10.06216 -10.05197  -1.04280
  Beta  occ. eigenvalues --   -1.00707  -0.93112  -0.91321  -0.87213  -0.82089
  Beta  occ. eigenvalues --   -0.74269  -0.69212  -0.66917  -0.65044  -0.62620
  Beta  occ. eigenvalues --   -0.60406  -0.55165  -0.52817  -0.51337  -0.48271
  Beta  occ. eigenvalues --   -0.46914  -0.44118  -0.42003  -0.40772  -0.39288
  Beta  occ. eigenvalues --   -0.39035  -0.37752  -0.36251  -0.36098  -0.35006
  Beta  occ. eigenvalues --   -0.34314  -0.33699  -0.33059  -0.32444  -0.32120
  Beta  occ. eigenvalues --   -0.30699  -0.30464  -0.29500  -0.28638  -0.27894
  Beta  occ. eigenvalues --   -0.27157  -0.25036  -0.24727  -0.24393  -0.23651
  Beta  occ. eigenvalues --   -0.23363  -0.21105  -0.18468  -0.17518  -0.15116
  Beta  occ. eigenvalues --   -0.14846  -0.13937  -0.12873  -0.11717  -0.11034
  Beta virt. eigenvalues --    0.06343   0.06458   0.07453   0.08090   0.08469
  Beta virt. eigenvalues --    0.09698   0.10020   0.10363   0.10618   0.11217
  Beta virt. eigenvalues --    0.11876   0.12111   0.12584   0.13087   0.13777

 Mulliken charges and spin densities:
               1          2
     1  C   -0.557650  -0.008021
     2  C   -0.511419   0.020788
     3  C    0.098265  -0.040082
     4  C   -0.138052   0.045770
     5  O   -0.330757   0.024617
     6  N   -0.122358  -0.012057
     7  C    0.461315   0.236817
     8  C    0.086376   0.001754
     9  C   -0.635825  -0.003928
    10  C    0.677031   0.014847
    11  C   -0.707074   0.253264
    12  C   -0.506609  -0.088226
    13  C   -0.038558   0.011550
    14  O   -0.311783   0.028211
    15  O   -0.114228  -0.001167
    16  C   -0.216971  -0.000781
    17  N   -0.328555   0.183366
    18  O   -0.103257   0.171485
    19  O   -0.074434   0.137529
    20  H    0.164211   0.002431
    21  H    0.121632   0.001280
    22  H    0.137061  -0.002238
    23  H    0.171060  -0.001887
    24  H    0.132101   0.001121
    25  H    0.255868   0.005023
    26  H    0.133461   0.013323
    27  H    0.271116   0.011288
    28  H    0.254080   0.003265
    29  H    0.152757  -0.017053
    30  H    0.112969   0.007609
    31  H    0.169192   0.000135
    32  H    0.169156   0.000145
    33  H    0.129874  -0.000177
 Sum of Mulliken charges =  -1.00000   1.00000

 Dipole moment (field-independent basis, Debye):
    X=              4.2255    Y=             -7.1228    Z=              1.1657  Tot=              8.3634
 Quadrupole moment (field-independent basis, Debye-Ang):
   XX=           -153.1864   YY=           -139.9603   ZZ=           -122.8628
   XY=             -3.1638   XZ=            -12.5871   YZ=             -1.2498

 Summary of Natural Population Analysis:

                                       Natural Population
                Natural  -----------------------------------------------
    Atom  No    Charge         Core      Valence    Rydberg      Total
 -----------------------------------------------------------------------
      C    1   -0.28837      0.99967     2.28450    0.00420     3.28837
      C    2   -0.18673      0.99965     2.18037    0.00671     3.18673
      C    3   -0.24271      0.99958     2.23388    0.00925     3.24271
      C    4    0.36662      0.99968     1.61142    0.02228     2.63338
      O    5   -0.32063      0.99987     3.31425    0.00651     4.32063
      N    6   -0.30844      0.99964     2.79758    0.01123     3.80844
      C    7    0.14805      0.99944     1.84231    0.01020     2.85195
      C    8    0.03320      0.99937     1.95460    0.01283     2.96680
      C    9   -0.06569      0.99950     2.05753    0.00866     3.06569
      C   10   -0.09577      0.99945     2.08683    0.00950     3.09577
      C   11   -0.01813      0.99955     2.01028    0.00830     3.01813
      C   12   -0.13954      0.99955     2.13183    0.00816     3.13954
      C   13    0.40442      0.99964     1.57226    0.02369     2.59558
      O   14   -0.30836      0.99987     3.30263    0.00585     4.30836
      O   15   -0.28191      0.99986     3.27392    0.00814     4.28191
      C   16   -0.10529      0.99961     2.09726    0.00842     3.10529
      N   17    0.29538      0.99971     2.17668    0.02823     3.20462
      O   18   -0.18214      0.99990     3.17469    0.00756     4.18214
      O   19   -0.19771      0.99990     3.18921    0.00861     4.19771
      H   20    0.10046      0.00000     0.39863    0.00090     0.39954
      H   21    0.09265      0.00000     0.40647    0.00088     0.40735
      H   22    0.09466      0.00000     0.40437    0.00097     0.40534
      H   23    0.10166      0.00000     0.39697    0.00138     0.39834
      H   24    0.09183      0.00000     0.40712    0.00105     0.40817
      H   25    0.12647      0.00000     0.37252    0.00101     0.37353
      H   26    0.10757      0.00000     0.39103    0.00139     0.39243
      H   27    0.19414      0.00000     0.30401    0.00185     0.30586
      H   28    0.12450      0.00000     0.37422    0.00129     0.37550
      H   29    0.09966      0.00000     0.39941    0.00094     0.40034
      H   30    0.09515      0.00000     0.40377    0.00108     0.40485
      H   31    0.08954      0.00000     0.40931    0.00116     0.41046
      H   32    0.08951      0.00000     0.40933    0.00116     0.41049
      H   33    0.08598      0.00000     0.41322    0.00080     0.41402
 =======================================================================
   * Total *   -0.00000     18.99344    50.78238    0.22418    70.00000

 Normal termination of Gaussian 16 at Mon Dec 14 17:49:15 2020.
