 Gaussian 16, Revision A.03,

 -----------------------------------------------------------
 # opt freq B3LYP/6-31G(d) empiricaldispersion=gd3bj scf=xqc
 -----------------------------------------------------------

 ------------------------------
 CID_61599336_JID_3057_neutraal
 ------------------------------
 Symbolic Z-matrix:
 Charge =  0 Multiplicity = 1

 SCF Done:  E(RB3LYP) =  -1029.60408369     A.U. after   14 cycles
 SCF Done:  E(RB3LYP) =  -1029.60979976     A.U. after   12 cycles
 SCF Done:  E(RB3LYP) =  -1029.60983027     A.U. after   12 cycles
 SCF Done:  E(RB3LYP) =  -1029.61113710     A.U. after   12 cycles
 SCF Done:  E(RB3LYP) =  -1029.61124488     A.U. after   12 cycles
 SCF Done:  E(RB3LYP) =  -1029.61174624     A.U. after   11 cycles
 SCF Done:  E(RB3LYP) =  -1029.61235249     A.U. after   12 cycles
 SCF Done:  E(RB3LYP) =  -1029.61287163     A.U. after   14 cycles
 SCF Done:  E(RB3LYP) =  -1029.61393388     A.U. after   12 cycles
 SCF Done:  E(RB3LYP) =  -1029.61423428     A.U. after   12 cycles
 SCF Done:  E(RB3LYP) =  -1029.61478416     A.U. after   10 cycles
 SCF Done:  E(RB3LYP) =  -1029.61478719     A.U. after    9 cycles
 SCF Done:  E(RB3LYP) =  -1029.61478904     A.U. after    9 cycles
 SCF Done:  E(RB3LYP) =  -1029.61479008     A.U. after    9 cycles
 SCF Done:  E(RB3LYP) =  -1029.61479017     A.U. after    8 cycles
 SCF Done:  E(RB3LYP) =  -1029.61479019     A.U. after    8 cycles
 Optimization completed.
    -- Stationary point found.
 Normal termination of Gaussian 16 at Wed Dec  9 22:38:36 2020.

 --------------------------------------------------------------------
 #N Geom=AllCheck Guess=TCheck SCRF=Check GenChk RB3LYP/6-31G(d) Freq
 --------------------------------------------------------------------

 Structure from the checkpoint file:  "JID_3057.chk"
 ------------------------------
 CID_61599336_JID_3057_neutraal
 ------------------------------
 Charge =  0 Multiplicity = 1

 SCF Done:  E(RB3LYP) =  -1029.61479019     A.U. after    1 cycles

  Exact polarizability: 128.599   1.549  99.381  -0.219   2.598  91.948
 Approx polarizability: 161.165   5.931 158.531  -8.760   7.971 141.895

                      1                      2                      3
                      A                      A                      A
 Frequencies --     24.0460                27.6737                54.2444
 Red. masses --     11.1517                 4.8599                 4.6477
 Frc consts  --      0.0038                 0.0022                 0.0081
 IR Inten    --      1.7850                 1.8329                 1.3683

                      4                      5                      6
                      A                      A                      A
 Frequencies --     85.2572               100.5371               140.5966
 Red. masses --      2.8134                 3.5141                 1.8190
 Frc consts  --      0.0120                 0.0209                 0.0212
 IR Inten    --      0.8729                 1.5514                 2.1682

                      7                      8                      9
                      A                      A                      A
 Frequencies --    160.5732               182.9452               210.1361
 Red. masses --      2.5781                 3.2228                 1.8735
 Frc consts  --      0.0392                 0.0636                 0.0487
 IR Inten    --      0.2755                 0.9883                 1.4116

                     10                     11                     12
                      A                      A                      A
 Frequencies --    232.3543               255.9942               259.1860
 Red. masses --      1.8521                 2.1881                 2.2662
 Frc consts  --      0.0589                 0.0845                 0.0897
 IR Inten    --      2.1536                 0.2173                 2.2744

                     13                     14                     15
                      A                      A                      A
 Frequencies --    278.1251               283.8296               299.2324
 Red. masses --      1.3742                 2.3047                 2.5022
 Frc consts  --      0.0626                 0.1094                 0.1320
 IR Inten    --      1.0182                 0.3608                 0.1330

                     16                     17                     18
                      A                      A                      A
 Frequencies --    348.6866               369.6841               395.1868
 Red. masses --      5.9468                 3.4878                 3.1731
 Frc consts  --      0.4260                 0.2808                 0.2920
 IR Inten    --      1.1934                 3.8075                 5.9603

                     19                     20                     21
                      A                      A                      A
 Frequencies --    463.4192               472.4391               532.4651
 Red. masses --      4.4004                 5.0524                 4.2740
 Frc consts  --      0.5568                 0.6644                 0.7139
 IR Inten    --      8.0187                55.5850                 3.7016

                     22                     23                     24
                      A                      A                      A
 Frequencies --    537.5435               604.0156               622.5978
 Red. masses --      4.1450                 3.7389                 1.3232
 Frc consts  --      0.7057                 0.8037                 0.3022
 IR Inten    --     17.7513                32.1730                88.3363

                     25                     26                     27
                      A                      A                      A
 Frequencies --    664.6390               749.6172               779.5257
 Red. masses --      3.4856                 4.1027                 3.5970
 Frc consts  --      0.9072                 1.3583                 1.2878
 IR Inten    --     36.0990                91.0449                56.3546

                     28                     29                     30
                      A                      A                      A
 Frequencies --    799.7572               828.8602               898.7889
 Red. masses --      1.3596                 3.1127                 2.2100
 Frc consts  --      0.5124                 1.2599                 1.0519
 IR Inten    --     54.6795                14.4038                 8.4817

                     31                     32                     33
                      A                      A                      A
 Frequencies --    919.6787               984.2235              1001.6493
 Red. masses --      1.7368                 2.1775                 1.7293
 Frc consts  --      0.8655                 1.2428                 1.0223
 IR Inten    --     26.7764               153.7811                10.2974

                     34                     35                     36
                      A                      A                      A
 Frequencies --   1044.7088              1073.3727              1091.4864
 Red. masses --      1.9865                 1.4886                 2.1008
 Frc consts  --      1.2774                 1.0105                 1.4746
 IR Inten    --     89.7573                11.9509                 3.7171

                     37                     38                     39
                      A                      A                      A
 Frequencies --   1113.8661              1119.9776              1121.3713
 Red. masses --      2.2900                 3.3886                 2.4508
 Frc consts  --      1.6740                 2.5043                 1.8158
 IR Inten    --     25.7452                64.9105                48.2207

                     40                     41                     42
                      A                      A                      A
 Frequencies --   1161.2392              1195.9127              1225.1618
 Red. masses --      1.3939                 2.1584                 2.6193
 Frc consts  --      1.1075                 1.8188                 2.3165
 IR Inten    --      3.8704                32.2355               138.6445

                     43                     44                     45
                      A                      A                      A
 Frequencies --   1257.6251              1281.3808              1314.7442
 Red. masses --      2.2559                 1.3169                 2.8674
 Frc consts  --      2.1022                 1.2739                 2.9202
 IR Inten    --     31.6208                20.8556               126.1988

                     46                     47                     48
                      A                      A                      A
 Frequencies --   1336.6515              1345.3243              1347.9579
 Red. masses --      1.3255                 1.7562                 1.5081
 Frc consts  --      1.3953                 1.8727                 1.6145
 IR Inten    --      3.2069                44.3424                15.6309

                     49                     50                     51
                      A                      A                      A
 Frequencies --   1373.3644              1398.5986              1420.0439
 Red. masses --      2.1043                 1.3435                 1.2673
 Frc consts  --      2.3385                 1.5484                 1.5057
 IR Inten    --     48.7380                17.5253                 9.9523

                     52                     53                     54
                      A                      A                      A
 Frequencies --   1436.5912              1451.8657              1483.8884
 Red. masses --      1.2328                 1.2428                 1.1318
 Frc consts  --      1.4991                 1.5435                 1.4683
 IR Inten    --      2.5112                 6.0244                 1.6725

                     55                     56                     57
                      A                      A                      A
 Frequencies --   1487.1235              1509.7038              1515.1068
 Red. masses --      1.0943                 1.0725                 1.0699
 Frc consts  --      1.4259                 1.4402                 1.4470
 IR Inten    --      3.3498                 7.8176                 7.0193

                     58                     59                     60
                      A                      A                      A
 Frequencies --   1525.5831              1529.6919              1536.3671
 Red. masses --      1.0408                 1.0580                 1.0508
 Frc consts  --      1.4272                 1.4587                 1.4614
 IR Inten    --     14.2930                 7.5896                 5.3258

                     61                     62                     63
                      A                      A                      A
 Frequencies --   1537.0810              1548.0705              1846.7717
 Red. masses --      1.0408                 1.0480                 9.5480
 Frc consts  --      1.4488                 1.4798                19.1863
 IR Inten    --     11.7821                11.7008               306.0441

                     64                     65                     66
                      A                      A                      A
 Frequencies --   3045.6969              3051.6314              3068.8026
 Red. masses --      1.0697                 1.0424                 1.0371
 Frc consts  --      5.8464                 5.7193                 5.7546
 IR Inten    --     36.0364                33.6458                22.3416

                     67                     68                     69
                      A                      A                      A
 Frequencies --   3068.8578              3086.6358              3094.1764
 Red. masses --      1.0355                 1.0597                 1.0839
 Frc consts  --      5.7457                 5.9482                 6.1142
 IR Inten    --      8.4179                 4.5810                16.0155

                     70                     71                     72
                      A                      A                      A
 Frequencies --   3111.8025              3132.3916              3135.7081
 Red. masses --      1.1033                 1.1021                 1.1023
 Frc consts  --      6.2945                 6.3715                 6.3859
 IR Inten    --     20.2764                24.1998                13.4950

                     73                     74                     75
                      A                      A                      A
 Frequencies --   3138.3871              3158.0240              3167.9704
 Red. masses --      1.1049                 1.1052                 1.0968
 Frc consts  --      6.4118                 6.4944                 6.4853
 IR Inten    --      4.8337                13.5581                 1.7781

                     76                     77                     78
                      A                      A                      A
 Frequencies --   3170.8674              3183.8382              3687.2503
 Red. masses --      1.0969                 1.0982                 1.0641
 Frc consts  --      6.4978                 6.5592                 8.5238
 IR Inten    --      6.0578                 8.0658                54.0160

 - Thermochemistry -
 -------------------
 Temperature   298.150 Kelvin.  Pressure   1.00000 Atm.
 Atom     1 has atomic number  6 and mass  12.00000

 Molecular mass:   209.07218 amu.
 Principal axes and moments of inertia in atomic units:
                           1         2         3
     Eigenvalues --  1240.215544803.544324990.35569
           X            0.99967  -0.01816   0.01798
           Y            0.01778   0.99961   0.02134
           Z           -0.01836  -0.02102   0.99961
 This molecule is an asymmetric top.
 Rotational symmetry number  1.
 Warning -- assumption of classical behavior for rotation
           may cause significant error
 Rotational temperatures (Kelvin)      0.06984     0.01803     0.01736
 Rotational constants (GHZ):           1.45518     0.37571     0.36165
 Zero-point vibrational energy     613087.2 (Joules/Mol)
                                  146.53137 (Kcal/Mol)
 Warning -- explicit consideration of  23 degrees of freedom as
           vibrations may cause significant error
 Vibrational temperatures:     34.60    39.82    78.05   122.67   144.65
          (Kelvin)            202.29   231.03   263.22   302.34   334.31
                              368.32   372.91   400.16   408.37   430.53
                              501.68   531.89   568.59   666.76   679.73
                              766.10   773.41   869.04   895.78   956.27
                             1078.53  1121.56  1150.67  1192.54  1293.16
                             1323.21  1416.08  1441.15  1503.10  1544.34
                             1570.41  1602.60  1611.40  1613.40  1670.76
                             1720.65  1762.73  1809.44  1843.62  1891.62
                             1923.14  1935.62  1939.41  1975.97  2012.27
                             2043.13  2066.93  2088.91  2134.98  2139.64
                             2172.13  2179.90  2194.97  2200.89  2210.49
                             2211.52  2227.33  2657.09  4382.08  4390.62
                             4415.32  4415.40  4440.98  4451.83  4477.19
                             4506.81  4511.58  4515.44  4543.69  4558.00
                             4562.17  4580.83  5305.13

 Zero-point correction=                           0.233513 (Hartree/Particle)
 Thermal correction to Energy=                    0.248835
 Thermal correction to Enthalpy=                  0.249779
 Thermal correction to Gibbs Free Energy=         0.189701
 Sum of electronic and zero-point Energies=          -1029.381278
 Sum of electronic and thermal Energies=             -1029.365956
 Sum of electronic and thermal Enthalpies=           -1029.365011
 Sum of electronic and thermal Free Energies=        -1029.425089

                     E (Thermal)             CV                S
                      KCal/Mol        Cal/Mol-Kelvin    Cal/Mol-Kelvin
 Total                  156.146             54.955            126.443
 Electronic               0.000              0.000              0.000
 Translational            0.889              2.981             41.916
 Rotational               0.889              2.981             31.764
 Vibrational            154.369             48.994             52.763
 Vibration     1          0.593              1.985              6.268
 Vibration     2          0.593              1.984              5.990
 Vibration     3          0.596              1.976              4.656
 Vibration     4          0.601              1.959              3.766
 Vibration     5          0.604              1.949              3.444
 Vibration     6          0.615              1.913              2.796
 Vibration     7          0.622              1.891              2.543
 Vibration     8          0.630              1.863              2.298
 Vibration     9          0.642              1.825              2.042
 Vibration    10          0.653              1.791              1.861
 Vibration    11          0.666              1.753              1.689
 Vibration    12          0.668              1.747              1.667
 Vibration    13          0.679              1.714              1.545
 Vibration    14          0.682              1.704              1.510
 Vibration    15          0.692              1.675              1.421
 Vibration    16          0.726              1.578              1.172
 Vibration    17          0.742              1.535              1.081
 Vibration    18          0.762              1.480              0.981
 Vibration    19          0.821              1.331              0.756
 Vibration    20          0.829              1.311              0.731
 Vibration    21          0.887              1.178              0.582
 Vibration    22          0.893              1.167              0.571
 Vibration    23          0.962              1.023              0.443

 Optimization completed.
    -- Stationary point found.
 Normal termination of Gaussian 16 at Wed Dec  9 22:45:53 2020.

 ----------------------------------------------------------------------
 # B3LYP/6-311++G(d,p) empiricaldispersion=gd3bj scf=xqc pop=npa geom=c
 heck
 ----------------------------------------------------------------------

 --------------------------------------
 CID_61599336_JID_3057_Energie_neutraal
 --------------------------------------
 Structure from the checkpoint file:  "JID_3057.chk"
 Charge =  0 Multiplicity = 1

 SCF Done:  E(RB3LYP) =  -1029.83874416     A.U. after   15 cycles
 Normal termination of Gaussian 16 at Wed Dec  9 22:49:00 2020.

 ----------------------------------------------------------------------
 # B3LYP/6-311++G(d,p) empiricaldispersion=gd3bj scf=xqc pop=npa geom=c
 heck
 ----------------------------------------------------------------------

 ------------------------------------
 CID_61599336_JID_3057_Energie_kation
 ------------------------------------
 Structure from the checkpoint file:  "JID_3057.chk"
 Charge =  1 Multiplicity = 2

 SCF Done:  E(UB3LYP) =  -1029.50622912     A.U. after   22 cycles
 Normal termination of Gaussian 16 at Wed Dec  9 22:54:59 2020.
 Gaussian 16:  ES64L-G16RevA.03 25-Dec-2016

 ----------------------------------------------------------------------
 # B3LYP/6-311++G(d,p) empiricaldispersion=gd3bj scf=xqc pop=npa geom=c
 heck
 ----------------------------------------------------------------------

 -----------------------------------
 CID_61599336_JID_3057_Energie_anion
 -----------------------------------
 Structure from the checkpoint file:  "JID_3057.chk"
 Charge = -1 Multiplicity = 2

                         Standard orientation:
 ---------------------------------------------------------------------
 Center     Atomic      Atomic             Coordinates (Angstroms)
 Number     Number       Type             X           Y           Z
 ---------------------------------------------------------------------
      1          6           0       -3.672750    0.876898   -0.959948
      2          6           0       -2.894379   -0.429145   -1.044826
      3         16           0       -1.588493   -0.583960    0.204056
      4          8           0       -2.192491   -0.346345    1.521405
      5          8           0       -0.878596   -1.831947   -0.098531
      6          7           0       -0.559139    0.708958   -0.141892
      7          6           0       -0.699199    1.915199    0.676419
      8          6           0        0.773204    0.422103   -0.677707
      9          6           0        1.896844    0.392109    0.386843
     10          6           0        1.650613   -0.652556    1.485885
     11          6           0        3.224197    0.157255   -0.307076
     12          8           0        4.158443    0.927482   -0.327177
     13          8           0        3.261953   -1.046079   -0.935393
     14          1           0       -4.104416    1.007359    0.036207
     15          1           0       -4.487955    0.865991   -1.690426
     16          1           0       -3.029212    1.732202   -1.184561
     17          1           0       -3.534149   -1.299959   -0.869053
     18          1           0       -2.392401   -0.558012   -2.007490
     19          1           0       -0.188301    1.836112    1.643271
     20          1           0       -0.273128    2.753037    0.114864
     21          1           0       -1.751449    2.120482    0.867407
     22          1           0        0.734967   -0.537681   -1.192187
     23          1           0        1.000720    1.198507   -1.419680
     24          1           0        1.991613    1.384188    0.838028
     25          1           0        1.535189   -1.650545    1.059201
     26          1           0        2.481366   -0.661087    2.199073
     27          1           0        0.735825   -0.416587    2.037744
     28          1           0        4.145555   -1.109411   -1.344019
 ---------------------------------------------------------------------

 SCF Done:  E(UB3LYP) =  -1029.82976941     A.U. after   31 cycles

 The electronic state is 2-A.
 Alpha  occ. eigenvalues --  -88.96690 -19.07972 -19.02796 -19.02418 -19.02379
 Alpha  occ. eigenvalues --  -14.25525 -10.21701 -10.12193 -10.11676 -10.11267
 Alpha  occ. eigenvalues --  -10.10347 -10.07915 -10.07499  -8.02897  -5.99200
 Alpha  occ. eigenvalues --   -5.99158  -5.98932  -1.02547  -1.02093  -0.93202
 Alpha  occ. eigenvalues --   -0.91701  -0.84873  -0.72216  -0.70460  -0.63075
 Alpha  occ. eigenvalues --   -0.61503  -0.58011  -0.55840  -0.50771  -0.47698
 Alpha  occ. eigenvalues --   -0.43759  -0.41875  -0.40418  -0.39634  -0.39264
 Alpha  occ. eigenvalues --   -0.38119  -0.36371  -0.35798  -0.35139  -0.33895
 Alpha  occ. eigenvalues --   -0.32596  -0.32132  -0.31820  -0.30447  -0.29448
 Alpha  occ. eigenvalues --   -0.28832  -0.27816  -0.27434  -0.26265  -0.25647
 Alpha  occ. eigenvalues --   -0.23793  -0.22934  -0.21518  -0.21018  -0.19472
 Alpha  occ. eigenvalues --   -0.16246   0.04007
 Alpha virt. eigenvalues --    0.05765   0.06873   0.07827   0.08412   0.08581
 Alpha virt. eigenvalues --    0.09409   0.09893   0.10366   0.11248   0.12048
 Alpha virt. eigenvalues --    0.12750   0.13078   0.13520   0.13954   0.14546

  Beta  occ. eigenvalues --  -88.96689 -19.07925 -19.02785 -19.02410 -19.02376
  Beta  occ. eigenvalues --  -14.25525 -10.21697 -10.12174 -10.11654 -10.11225
  Beta  occ. eigenvalues --  -10.10336 -10.07858 -10.07487  -8.02896  -5.99199
  Beta  occ. eigenvalues --   -5.99157  -5.98932  -1.02536  -1.02031  -0.93153
  Beta  occ. eigenvalues --   -0.91689  -0.84860  -0.72183  -0.70416  -0.63019
  Beta  occ. eigenvalues --   -0.61464  -0.57951  -0.55752  -0.50697  -0.47645
  Beta  occ. eigenvalues --   -0.43734  -0.41844  -0.40383  -0.39605  -0.39234
  Beta  occ. eigenvalues --   -0.38085  -0.36340  -0.35765  -0.35105  -0.33850
  Beta  occ. eigenvalues --   -0.32546  -0.32092  -0.31776  -0.30414  -0.29391
  Beta  occ. eigenvalues --   -0.28805  -0.27775  -0.27402  -0.26244  -0.25629
  Beta  occ. eigenvalues --   -0.23757  -0.22921  -0.21505  -0.20995  -0.19434
  Beta  occ. eigenvalues --   -0.16228
  Beta virt. eigenvalues --    0.06434   0.07115   0.07648   0.08046   0.08785
  Beta virt. eigenvalues --    0.09182   0.09807   0.10237   0.10876   0.11631
  Beta virt. eigenvalues --    0.12305   0.12848   0.13400   0.13707   0.14174

 Mulliken charges and spin densities:
               1          2
     1  C    1.429386  -1.894295
     2  C   -1.057978   0.651245
     3  S    0.826450  -0.655435
     4  O   -0.161370   0.023853
     5  O   -0.113733   0.020512
     6  N   -0.325197   0.269383
     7  C    0.493347  -0.857641
     8  C   -0.462757  -0.463101
     9  C    0.798110  -0.273467
    10  C   -0.328136  -0.340521
    11  C   -0.140718  -0.053083
    12  O   -0.270083   0.013504
    13  O   -0.197005   0.062157
    14  H    0.023143   0.157962
    15  H   -0.809776   0.981469
    16  H   -0.434199   0.612123
    17  H    0.011047   0.201119
    18  H   -0.124444   0.353547
    19  H    0.054248   0.127889
    20  H   -0.421800   0.591668
    21  H   -0.060520   0.241483
    22  H    0.215076   0.026726
    23  H   -0.198537   0.401148
    24  H    0.181535   0.037386
    25  H    0.238647  -0.024112
    26  H    0.025457   0.125253
    27  H    0.075764   0.094372
    28  H   -0.265958   0.568856
 Sum of Mulliken charges =  -1.00000   1.00000

 Dipole moment (field-independent basis, Debye):
    X=              1.0897    Y=             -1.9561    Z=              3.7976  Tot=              4.4085
 Quadrupole moment (field-independent basis, Debye-Ang):
   XX=           -170.6922   YY=           -127.1869   ZZ=           -123.9097
   XY=              6.4954   XZ=             -2.5249   YZ=              5.2409

 Summary of Natural Population Analysis:

                                       Natural Population
                Natural  -----------------------------------------------
    Atom  No    Charge         Core      Valence    Rydberg      Total
 -----------------------------------------------------------------------
      C    1   -0.29735      0.99965     2.29101    0.00669     3.29735
      C    2   -0.28179      0.99959     2.26992    0.01228     3.28179
      S    3    1.10278      4.99921     1.79861    0.09941     6.89722
      O    4   -0.46689      0.99991     3.46156    0.00543     4.46689
      O    5   -0.46584      0.99991     3.46060    0.00534     4.46584
      N    6   -0.38234      0.99974     2.86495    0.01765     3.88234
      C    7   -0.17826      0.99962     2.16900    0.00964     3.17826
      C    8   -0.08281      0.99957     2.06967    0.01357     3.08281
      C    9   -0.16193      0.99955     2.15153    0.01086     3.16193
      C   10   -0.28853      0.99964     2.28316    0.00573     3.28853
      C   11    0.41172      0.99968     1.56217    0.02643     2.58828
      O   12   -0.30472      0.99987     3.29869    0.00616     4.30472
      O   13   -0.34581      0.99988     3.33893    0.00701     4.34581
      H   14    0.10557      0.00000     0.39313    0.00130     0.39443
      H   15    0.11007      0.00000     0.38706    0.00287     0.38993
      H   16    0.10666      0.00000     0.39085    0.00248     0.39334
      H   17    0.11198      0.00000     0.38704    0.00098     0.38802
      H   18    0.11529      0.00000     0.38318    0.00153     0.38471
      H   19    0.09198      0.00000     0.40688    0.00114     0.40802
      H   20    0.10227      0.00000     0.39633    0.00140     0.39773
      H   21    0.10911      0.00000     0.38991    0.00098     0.39089
      H   22    0.11859      0.00000     0.37953    0.00189     0.38141
      H   23    0.10123      0.00000     0.39713    0.00164     0.39877
      H   24    0.10803      0.00000     0.39008    0.00189     0.39197
      H   25    0.11318      0.00000     0.38561    0.00121     0.38682
      H   26    0.09956      0.00000     0.39965    0.00080     0.40044
      H   27    0.10499      0.00000     0.39386    0.00116     0.39501
      H   28    0.24329      0.00000     0.24545    0.01126     0.25671
 =======================================================================
   * Total *    0.00000     16.99580    38.74549    0.25871    56.00000

 Normal termination of Gaussian 16 at Wed Dec  9 23:03:08 2020.
