 Gaussian 16, Revision A.03,

 -----------------------------------------------------------
 # opt freq B3LYP/6-31G(d) empiricaldispersion=gd3bj scf=xqc
 -----------------------------------------------------------

 ------------------------------
 CID_65728082_JID_3608_neutraal
 ------------------------------
 Symbolic Z-matrix:
 Charge =  0 Multiplicity = 1

 SCF Done:  E(RB3LYP) =  -951.550802847     A.U. after   16 cycles
 SCF Done:  E(RB3LYP) =  -951.556290688     A.U. after   13 cycles
 SCF Done:  E(RB3LYP) =  -951.556581597     A.U. after   13 cycles
 SCF Done:  E(RB3LYP) =  -951.557959789     A.U. after   12 cycles
 SCF Done:  E(RB3LYP) =  -951.558249459     A.U. after   12 cycles
 SCF Done:  E(RB3LYP) =  -951.558314651     A.U. after   12 cycles
 SCF Done:  E(RB3LYP) =  -951.558410505     A.U. after   11 cycles
 SCF Done:  E(RB3LYP) =  -951.558519571     A.U. after   12 cycles
 SCF Done:  E(RB3LYP) =  -951.558699016     A.U. after   13 cycles
 SCF Done:  E(RB3LYP) =  -951.558682587     A.U. after   11 cycles
 SCF Done:  E(RB3LYP) =  -951.561795907     A.U. after   11 cycles
 SCF Done:  E(RB3LYP) =  -951.561801477     A.U. after   10 cycles
 SCF Done:  E(RB3LYP) =  -951.561803077     A.U. after    9 cycles
 SCF Done:  E(RB3LYP) =  -951.561803902     A.U. after    9 cycles
 SCF Done:  E(RB3LYP) =  -951.561804329     A.U. after    8 cycles
 SCF Done:  E(RB3LYP) =  -951.561804511     A.U. after    8 cycles
 Optimization completed.
    -- Stationary point found.
 Normal termination of Gaussian 16 at Mon Dec 14 18:49:30 2020.

 --------------------------------------------------------------------
 #N Geom=AllCheck Guess=TCheck SCRF=Check GenChk RB3LYP/6-31G(d) Freq
 --------------------------------------------------------------------

 Structure from the checkpoint file:  "JID_3608.chk"
 ------------------------------
 CID_65728082_JID_3608_neutraal
 ------------------------------
 Charge =  0 Multiplicity = 1

 SCF Done:  E(RB3LYP) =  -951.561804511     A.U. after    1 cycles

  Exact polarizability: 153.127   9.096 113.456 -10.295   3.972 100.033
 Approx polarizability: 198.841  12.754 184.807 -21.191  26.613 171.723

                      1                      2                      3
                      A                      A                      A
 Frequencies --     32.3998                40.1380                53.9984
 Red. masses --      4.3175                 3.7688                 3.7213
 Frc consts  --      0.0027                 0.0036                 0.0064
 IR Inten    --      0.6279                 1.2207                 0.7551

                      4                      5                      6
                      A                      A                      A
 Frequencies --     81.7479               107.5080               133.5270
 Red. masses --      5.6527                 3.7852                 3.3618
 Frc consts  --      0.0223                 0.0258                 0.0353
 IR Inten    --      4.0701                 2.4017                 2.8279

                      7                      8                      9
                      A                      A                      A
 Frequencies --    163.2074               199.8756               244.8825
 Red. masses --      2.4212                 1.9837                 1.2174
 Frc consts  --      0.0380                 0.0467                 0.0430
 IR Inten    --      8.5004                 2.0078                 0.2712

                     10                     11                     12
                      A                      A                      A
 Frequencies --    275.6234               287.7459               305.6145
 Red. masses --      1.6704                 1.9917                 1.5890
 Frc consts  --      0.0748                 0.0972                 0.0874
 IR Inten    --      6.3963                 5.5986                25.6408

                     13                     14                     15
                      A                      A                      A
 Frequencies --    309.4247               334.9046               339.8282
 Red. masses --      1.9964                 2.4160                 2.8396
 Frc consts  --      0.1126                 0.1597                 0.1932
 IR Inten    --     10.1310                22.1679                 2.3525

                     16                     17                     18
                      A                      A                      A
 Frequencies --    438.9117               449.7090               463.0537
 Red. masses --      5.0923                 2.9048                 2.8954
 Frc consts  --      0.5780                 0.3461                 0.3658
 IR Inten    --      4.8585                 7.2180                 8.3373

                     19                     20                     21
                      A                      A                      A
 Frequencies --    496.2632               543.5403               593.9409
 Red. masses --      2.3671                 4.5857                 5.5460
 Frc consts  --      0.3435                 0.7982                 1.1527
 IR Inten    --      4.0819                 3.6854                 0.0937

                     22                     23                     24
                      A                      A                      A
 Frequencies --    643.0047               685.5758               702.8483
 Red. masses --      8.8267                 3.7765                 4.9122
 Frc consts  --      2.1502                 1.0458                 1.4297
 IR Inten    --      2.0486                 5.1788                 0.3198

                     25                     26                     27
                      A                      A                      A
 Frequencies --    781.3807               805.9443               829.7964
 Red. masses --      8.2425                 1.5459                 1.6430
 Frc consts  --      2.9651                 0.5916                 0.6665
 IR Inten    --      3.5645                13.7729                 7.6494

                     28                     29                     30
                      A                      A                      A
 Frequencies --    878.9655               901.4122               934.0292
 Red. masses --      2.3031                 2.2001                 1.3287
 Frc consts  --      1.0483                 1.0533                 0.6829
 IR Inten    --     72.8885                 1.8049                69.6228

                     31                     32                     33
                      A                      A                      A
 Frequencies --    975.4851              1019.0929              1029.8081
 Red. masses --      2.4262                 2.7539                 1.4310
 Frc consts  --      1.3603                 1.6851                 0.8941
 IR Inten    --      3.1401                18.8842                 3.1183

                     34                     35                     36
                      A                      A                      A
 Frequencies --   1054.4335              1069.4002              1106.9331
 Red. masses --      2.5799                 2.3278                 2.5217
 Frc consts  --      1.6900                 1.5685                 1.8205
 IR Inten    --     15.1463                44.8968                19.5720

                     37                     38                     39
                      A                      A                      A
 Frequencies --   1119.4959              1144.8539              1157.1693
 Red. masses --      3.4317                 3.0375                 3.0806
 Frc consts  --      2.5340                 2.3457                 2.4304
 IR Inten    --     13.3832                19.4484                64.8533

                     40                     41                     42
                      A                      A                      A
 Frequencies --   1165.4651              1213.9063              1217.9973
 Red. masses --      2.6292                 1.8756                 1.9866
 Frc consts  --      2.1041                 1.6284                 1.7364
 IR Inten    --     61.0284                29.4209                26.4709

                     43                     44                     45
                      A                      A                      A
 Frequencies --   1239.4109              1261.2205              1325.2402
 Red. masses --      1.8468                 1.2349                 1.2641
 Frc consts  --      1.6715                 1.1573                 1.3081
 IR Inten    --     21.9413                 7.6828                15.9684

                     46                     47                     48
                      A                      A                      A
 Frequencies --   1348.8880              1357.9050              1391.7379
 Red. masses --      1.1620                 1.4489                 1.3842
 Frc consts  --      1.2457                 1.5741                 1.5796
 IR Inten    --      5.8113                 8.8941                 4.8830

                     49                     50                     51
                      A                      A                      A
 Frequencies --   1407.8559              1420.9300              1432.0369
 Red. masses --      1.2149                 1.3573                 1.2407
 Frc consts  --      1.4188                 1.6146                 1.4991
 IR Inten    --     11.7067                19.9765                16.4856

                     52                     53                     54
                      A                      A                      A
 Frequencies --   1432.8592              1445.7723              1490.5705
 Red. masses --      1.2372                 1.3103                 1.3152
 Frc consts  --      1.4966                 1.6137                 1.7216
 IR Inten    --      5.8391                23.5583                12.7558

                     55                     56                     57
                      A                      A                      A
 Frequencies --   1513.8908              1515.2378              1520.5925
 Red. masses --      1.1498                 1.0594                 1.5649
 Frc consts  --      1.5526                 1.4331                 2.1319
 IR Inten    --      2.0641                 1.1563                14.3948

                     58                     59                     60
                      A                      A                      A
 Frequencies --   1523.0804              1531.1569              1535.3125
 Red. masses --      1.2853                 1.4822                 1.0832
 Frc consts  --      1.7568                 2.0474                 1.5044
 IR Inten    --      3.6003                 6.9508                 2.0705

                     61                     62                     63
                      A                      A                      A
 Frequencies --   1548.2547              1552.4889              1697.2228
 Red. masses --      4.0470                 1.0828                 1.0920
 Frc consts  --      5.7156                 1.5377                 1.8533
 IR Inten    --      7.8328                 0.1345                33.1914

                     64                     65                     66
                      A                      A                      A
 Frequencies --   3026.2043              3032.6536              3045.5226
 Red. masses --      1.0678                 1.0833                 1.0665
 Frc consts  --      5.7614                 5.8701                 5.8284
 IR Inten    --     60.5038                12.6475                 6.8522

                     67                     68                     69
                      A                      A                      A
 Frequencies --   3054.5174              3054.6294              3064.4045
 Red. masses --      1.0385                 1.0363                 1.0582
 Frc consts  --      5.7088                 5.6973                 5.8548
 IR Inten    --     19.3476                26.6183                33.2148

                     70                     71                     72
                      A                      A                      A
 Frequencies --   3094.3786              3106.5495              3115.1267
 Red. masses --      1.0954                 1.1001                 1.1024
 Frc consts  --      6.1800                 6.2551                 6.3032
 IR Inten    --     42.2877                19.0314                28.8785

                     73                     74                     75
                      A                      A                      A
 Frequencies --   3120.9279              3122.4508              3145.4242
 Red. masses --      1.1014                 1.1035                 1.1024
 Frc consts  --      6.3205                 6.3392                 6.4263
 IR Inten    --     25.6562                32.6790                24.7016

                     76                     77                     78
                      A                      A                      A
 Frequencies --   3149.4239              3464.7298              3555.8290
 Red. masses --      1.1009                 1.0504                 1.0920
 Frc consts  --      6.4340                 7.4290                 8.1350
 IR Inten    --     11.7373                 0.1116                 0.3738

 - Thermochemistry -
 -------------------
 Temperature   298.150 Kelvin.  Pressure   1.00000 Atm.
 Atom     1 has atomic number  6 and mass  12.00000

 Molecular mass:   201.09358 amu.
 Principal axes and moments of inertia in atomic units:
                           1         2         3
     Eigenvalues --  1281.258464817.106485225.29253
           X            1.00000   0.00177  -0.00040
           Y           -0.00179   0.99861  -0.05266
           Z            0.00030   0.05266   0.99861
 This molecule is an asymmetric top.
 Rotational symmetry number  1.
 Warning -- assumption of classical behavior for rotation
           may cause significant error
 Rotational temperatures (Kelvin)      0.06760     0.01798     0.01658
 Rotational constants (GHZ):           1.40857     0.37465     0.34539
 Zero-point vibrational energy     621922.2 (Joules/Mol)
                                  148.64298 (Kcal/Mol)
 Warning -- explicit consideration of  21 degrees of freedom as
           vibrations may cause significant error
 Vibrational temperatures:     46.62    57.75    77.69   117.62   154.68
          (Kelvin)            192.12   234.82   287.58   352.33   396.56
                              414.00   439.71   445.19   481.85   488.94
                              631.50   647.03   666.23   714.01   782.03
                              854.55   925.14   986.39  1011.24  1124.23
                             1159.57  1193.89  1264.64  1296.93  1343.86
                             1403.51  1466.25  1481.66  1517.09  1538.63
                             1592.63  1610.70  1647.19  1664.91  1676.84
                             1746.54  1752.43  1783.24  1814.61  1906.73
                             1940.75  1953.72  2002.40  2025.59  2044.40
                             2060.38  2061.56  2080.14  2144.60  2178.15
                             2180.09  2187.79  2191.37  2202.99  2208.97
                             2227.59  2233.69  2441.93  4354.03  4363.31
                             4381.83  4394.77  4394.93  4408.99  4452.12
                             4469.63  4481.97  4490.32  4492.51  4525.56
                             4531.32  4984.97  5116.04

 Zero-point correction=                           0.236878 (Hartree/Particle)
 Thermal correction to Energy=                    0.251138
 Thermal correction to Enthalpy=                  0.252083
 Thermal correction to Gibbs Free Energy=         0.194518
 Sum of electronic and zero-point Energies=           -951.324927
 Sum of electronic and thermal Energies=              -951.310666
 Sum of electronic and thermal Enthalpies=            -951.309722
 Sum of electronic and thermal Free Energies=         -951.367287

                     E (Thermal)             CV                S
                      KCal/Mol        Cal/Mol-Kelvin    Cal/Mol-Kelvin
 Total                  157.592             52.077            121.155
 Electronic               0.000              0.000              0.000
 Translational            0.889              2.981             41.800
 Rotational               0.889              2.981             31.845
 Vibrational            155.814             46.115             47.510
 Vibration     1          0.594              1.983              5.677
 Vibration     2          0.594              1.981              5.252
 Vibration     3          0.596              1.976              4.665
 Vibration     4          0.600              1.962              3.848
 Vibration     5          0.606              1.943              3.313
 Vibration     6          0.613              1.920              2.895
 Vibration     7          0.623              1.888              2.512
 Vibration     8          0.638              1.840              2.134
 Vibration     9          0.660              1.771              1.767
 Vibration    10          0.677              1.718              1.561
 Vibration    11          0.685              1.696              1.487
 Vibration    12          0.696              1.663              1.386
 Vibration    13          0.699              1.656              1.365
 Vibration    14          0.716              1.606              1.236
 Vibration    15          0.720              1.596              1.213
 Vibration    16          0.799              1.385              0.830
 Vibration    17          0.809              1.362              0.797
 Vibration    18          0.821              1.332              0.757
 Vibration    19          0.852              1.258              0.668
 Vibration    20          0.899              1.154              0.558
 Vibration    21          0.952              1.045              0.460

                           ! Non-Optimized Parameters !
 Normal termination of Gaussian 16 at Mon Dec 14 18:56:02 2020.

 ----------------------------------------------------------------------
 # B3LYP/6-311++G(d,p) empiricaldispersion=gd3bj scf=xqc pop=npa geom=c
 heck
 ----------------------------------------------------------------------

 --------------------------------------
 CID_65728082_JID_3608_Energie_neutraal
 --------------------------------------
 Structure from the checkpoint file:  "JID_3608.chk"
 Charge =  0 Multiplicity = 1

 SCF Done:  E(RB3LYP) =  -951.750077316     A.U. after   16 cycles
 Normal termination of Gaussian 16 at Mon Dec 14 18:59:29 2020.

 ----------------------------------------------------------------------
 # B3LYP/6-311++G(d,p) empiricaldispersion=gd3bj scf=xqc pop=npa geom=c
 heck
 ----------------------------------------------------------------------

 ------------------------------------
 CID_65728082_JID_3608_Energie_kation
 ------------------------------------
 Structure from the checkpoint file:  "JID_3608.chk"
 Charge =  1 Multiplicity = 2

 SCF Done:  E(UB3LYP) =  -951.434654213     A.U. after   29 cycles
 Normal termination of Gaussian 16 at Mon Dec 14 19:08:22 2020.
 Gaussian 16:  ES64L-G16RevA.03 25-Dec-2016

 ----------------------------------------------------------------------
 # B3LYP/6-311++G(d,p) empiricaldispersion=gd3bj scf=xqc pop=npa geom=c
 heck
 ----------------------------------------------------------------------

 -----------------------------------
 CID_65728082_JID_3608_Energie_anion
 -----------------------------------
 Structure from the checkpoint file:  "JID_3608.chk"
 Charge = -1 Multiplicity = 2

                         Standard orientation:
 ---------------------------------------------------------------------
 Center     Atomic      Atomic             Coordinates (Angstroms)
 Number     Number       Type             X           Y           Z
 ---------------------------------------------------------------------
      1          6           0       -2.648486    2.151014   -0.381773
      2          6           0       -2.745242    0.843759   -1.161519
      3          8           0       -3.533430   -0.162794   -0.528618
      4          6           0       -3.081508   -0.639577    0.723407
      5          6           0       -1.830974   -1.536568    0.640788
      6          6           0       -0.538344   -0.778752    0.529468
      7          7           0       -0.269288    0.276869    1.247677
      8          7           0        0.976870    0.796899    0.995180
      9          6           0        1.635839    0.132326    0.093484
     10         16           0        0.764077   -1.249595   -0.544519
     11          6           0        3.008238    0.499980   -0.412004
     12          6           0        3.807894    1.255776    0.657082
     13          7           0        3.645009   -0.713881   -0.938662
     14          1           0       -3.647871    2.507243   -0.109315
     15          1           0       -2.167813    2.914150   -1.004902
     16          1           0       -2.048018    2.039064    0.525283
     17          1           0       -3.249188    1.011508   -2.118838
     18          1           0       -1.738507    0.462658   -1.387020
     19          1           0       -2.896843    0.175323    1.433249
     20          1           0       -3.909350   -1.243552    1.107452
     21          1           0       -1.788700   -2.147449    1.552654
     22          1           0       -1.944357   -2.225538   -0.201997
     23          1           0        2.862656    1.164246   -1.275612
     24          1           0        3.991096    0.609378    1.522807
     25          1           0        4.772738    1.572985    0.246152
     26          1           0        3.261235    2.135067    1.007530
     27          1           0        4.485106   -0.462788   -1.456218
     28          1           0        3.947384   -1.303387   -0.162950
 ---------------------------------------------------------------------

 SCF Done:  E(UB3LYP) =  -951.745802529     A.U. after   30 cycles

 The electronic state is 2-A.
 Alpha  occ. eigenvalues --  -88.74984 -19.02493 -14.20518 -14.20147 -14.18322
 Alpha  occ. eigenvalues --  -10.11749 -10.11621 -10.10018 -10.09582 -10.09461
 Alpha  occ. eigenvalues --  -10.07941 -10.06069 -10.04415  -7.83637  -5.79888
 Alpha  occ. eigenvalues --   -5.79568  -5.79269  -0.93564  -0.89281  -0.78251
 Alpha  occ. eigenvalues --   -0.71551  -0.67728  -0.66510  -0.63360  -0.61272
 Alpha  occ. eigenvalues --   -0.55915  -0.52373  -0.48892  -0.46151  -0.42068
 Alpha  occ. eigenvalues --   -0.39981  -0.39567  -0.38061  -0.34339  -0.34024
 Alpha  occ. eigenvalues --   -0.33200  -0.32777  -0.30993  -0.30944  -0.29123
 Alpha  occ. eigenvalues --   -0.28847  -0.28146  -0.27675  -0.26849  -0.26047
 Alpha  occ. eigenvalues --   -0.24722  -0.23496  -0.21002  -0.17697  -0.17045
 Alpha  occ. eigenvalues --   -0.16135  -0.14284  -0.13737  -0.12996   0.04560
 Alpha virt. eigenvalues --    0.06755   0.07783   0.08537   0.09285   0.09723
 Alpha virt. eigenvalues --    0.09934   0.10092   0.11075   0.11650   0.12178
 Alpha virt. eigenvalues --    0.12648   0.13462   0.13708   0.13964   0.14134

  Beta  occ. eigenvalues --  -88.74949 -19.02493 -14.20541 -14.20098 -14.18268
  Beta  occ. eigenvalues --  -10.11729 -10.11622 -10.09752 -10.09589 -10.09217
  Beta  occ. eigenvalues --  -10.07960 -10.06066 -10.04378  -7.83604  -5.79876
  Beta  occ. eigenvalues --   -5.79556  -5.79145  -0.93561  -0.89111  -0.78119
  Beta  occ. eigenvalues --   -0.71289  -0.67542  -0.66415  -0.63299  -0.61201
  Beta  occ. eigenvalues --   -0.55872  -0.52181  -0.48822  -0.45949  -0.41871
  Beta  occ. eigenvalues --   -0.39939  -0.39503  -0.37891  -0.34199  -0.33878
  Beta  occ. eigenvalues --   -0.33115  -0.32694  -0.30896  -0.30700  -0.28937
  Beta  occ. eigenvalues --   -0.28752  -0.28026  -0.27535  -0.26737  -0.25994
  Beta  occ. eigenvalues --   -0.24588  -0.23365  -0.20959  -0.17612  -0.16790
  Beta  occ. eigenvalues --   -0.15690  -0.13986  -0.13371  -0.12597
  Beta virt. eigenvalues --    0.07090   0.07735   0.08171   0.09163   0.09700
  Beta virt. eigenvalues --    0.10141   0.10301   0.10603   0.11216   0.11879
  Beta virt. eigenvalues --    0.12260   0.12864   0.13703   0.14053   0.14148

 Mulliken charges and spin densities:
               1          2
     1  C   -0.399835  -0.044555
     2  C   -0.215178  -0.006119
     3  O   -0.112016   0.001822
     4  C   -0.188408  -0.085888
     5  C   -0.364224   0.354001
     6  C    1.262834  -1.003346
     7  N   -0.033569   0.035410
     8  N   -0.033658   0.054242
     9  C    2.959839  -3.437867
    10  S   -0.138169   0.015412
    11  C   -3.852226   3.762986
    12  C    0.654262  -1.307326
    13  N   -0.263812  -0.088099
    14  H    0.130397  -0.003082
    15  H    0.084665   0.029685
    16  H    0.139044   0.019955
    17  H    0.151966   0.014851
    18  H    0.098007   0.016416
    19  H    0.165152  -0.010870
    20  H   -0.034333   0.194970
    21  H    0.004708   0.163594
    22  H    0.187755  -0.002397
    23  H   -0.436252   0.663903
    24  H    0.067475   0.080979
    25  H   -0.703086   0.858470
    26  H    0.110110   0.038795
    27  H   -0.381333   0.642468
    28  H    0.139886   0.041592
 Sum of Mulliken charges =  -1.00000   1.00000

 Dipole moment (field-independent basis, Debye):
    X=             -7.5952    Y=             -1.6782    Z=              1.4183  Tot=              7.9066
 Quadrupole moment (field-independent basis, Debye-Ang):
   XX=           -165.7106   YY=           -109.4287   ZZ=           -113.4787
   XY=            -11.3292   XZ=             14.0179   YZ=             -2.3090

 Summary of Natural Population Analysis:

                                       Natural Population
                Natural  -----------------------------------------------
    Atom  No    Charge         Core      Valence    Rydberg      Total
 -----------------------------------------------------------------------
      C    1   -0.30692      0.99966     2.30371    0.00355     3.30692
      C    2   -0.01313      0.99960     2.00108    0.01245     3.01313
      O    3   -0.30441      0.99989     3.29572    0.00880     4.30441
      C    4   -0.00697      0.99958     1.99252    0.01488     3.00697
      C    5   -0.22890      0.99957     2.21970    0.00963     3.22890
      C    6    0.05600      0.99961     1.92577    0.01861     2.94400
      N    7   -0.17916      0.99962     2.66495    0.01459     3.67916
      N    8   -0.15556      0.99962     2.64221    0.01374     3.65556
      C    9    0.06755      0.99959     1.91381    0.01905     2.93245
      S   10    0.19131      4.99939     2.79130    0.01799     7.80869
      C   11   -0.04015      0.99955     2.02594    0.01467     3.04015
      C   12   -0.28723      0.99965     2.28080    0.00678     3.28723
      N   13   -0.41835      0.99977     2.90743    0.01115     3.91835
      H   14    0.09274      0.00000     0.40632    0.00094     0.40726
      H   15    0.10003      0.00000     0.39904    0.00093     0.39997
      H   16    0.11352      0.00000     0.38539    0.00108     0.38648
      H   17    0.08263      0.00000     0.41643    0.00094     0.41737
      H   18    0.08687      0.00000     0.41131    0.00182     0.41313
      H   19    0.08887      0.00000     0.40992    0.00121     0.41113
      H   20    0.08596      0.00000     0.41272    0.00132     0.41404
      H   21    0.11130      0.00000     0.38686    0.00184     0.38870
      H   22    0.10483      0.00000     0.39418    0.00100     0.39517
      H   23    0.10608      0.00000     0.38998    0.00393     0.39392
      H   24    0.09551      0.00000     0.40341    0.00108     0.40449
      H   25    0.09823      0.00000     0.39962    0.00215     0.40177
      H   26    0.10773      0.00000     0.39085    0.00142     0.39227
      H   27    0.18065      0.00000     0.31388    0.00548     0.31935
      H   28    0.17093      0.00000     0.32746    0.00161     0.32907
 =======================================================================
   * Total *   -0.00000     16.99509    36.81228    0.19263    54.00000

 Normal termination of Gaussian 16 at Mon Dec 14 19:17:28 2020.
