 Gaussian 16, Revision A.03,

 -----------------------------------------------------------
 # opt freq B3LYP/6-31G(d) empiricaldispersion=gd3bj scf=xqc
 -----------------------------------------------------------

 -------------------------------
 CID_108041828_JID_7998_neutraal
 -------------------------------
 Symbolic Z-matrix:
 Charge =  0 Multiplicity = 1

 SCF Done:  E(RB3LYP) =  -1084.32427336     A.U. after   16 cycles
 SCF Done:  E(RB3LYP) =  -1084.34851136     A.U. after   14 cycles
 SCF Done:  E(RB3LYP) =  -1084.35123081     A.U. after   13 cycles
 SCF Done:  E(RB3LYP) =  -1084.35198325     A.U. after   15 cycles
 SCF Done:  E(RB3LYP) =  -1084.35299361     A.U. after   13 cycles
 SCF Done:  E(RB3LYP) =  -1084.35353787     A.U. after   13 cycles
 SCF Done:  E(RB3LYP) =  -1084.35386741     A.U. after   13 cycles
 SCF Done:  E(RB3LYP) =  -1084.35401254     A.U. after   14 cycles
 SCF Done:  E(RB3LYP) =  -1084.35405505     A.U. after   13 cycles
 SCF Done:  E(RB3LYP) =  -1084.35415500     A.U. after   12 cycles
 SCF Done:  E(RB3LYP) =  -1084.35454932     A.U. after    8 cycles
 SCF Done:  E(RB3LYP) =  -1084.35455020     A.U. after   11 cycles
 SCF Done:  E(RB3LYP) =  -1084.35455045     A.U. after    8 cycles
 SCF Done:  E(RB3LYP) =  -1084.35455048     A.U. after    8 cycles
 SCF Done:  E(RB3LYP) =  -1084.35455046     A.U. after    8 cycles
 Optimization completed.
    -- Stationary point found.
 Normal termination of Gaussian 16 at Fri Dec 11 13:43:10 2020.

 --------------------------------------------------------------------
 #N Geom=AllCheck Guess=TCheck SCRF=Check GenChk RB3LYP/6-31G(d) Freq
 --------------------------------------------------------------------

 Structure from the checkpoint file:  "JID_7998.chk"
 -------------------------------
 CID_108041828_JID_7998_neutraal
 -------------------------------
 Charge =  0 Multiplicity = 1

 SCF Done:  E(RB3LYP) =  -1084.35455046     A.U. after    1 cycles

  Exact polarizability: 159.015  13.735 148.394   4.281  13.177 148.120
 Approx polarizability: 245.520  25.349 262.839  16.790  37.359 269.151

                      1                      2                      3
                      A                      A                      A
 Frequencies --     17.2694                36.6334                50.9055
 Red. masses --      6.3280                 8.1189                 4.9224
 Frc consts  --      0.0011                 0.0064                 0.0075
 IR Inten    --      1.1231                 0.3275                 0.2603

                      4                      5                      6
                      A                      A                      A
 Frequencies --     76.5328               125.3664               134.8518
 Red. masses --      8.7723                 7.2077                 9.2880
 Frc consts  --      0.0303                 0.0667                 0.0995
 IR Inten    --      2.5892                 3.4179                 3.5123

                      7                      8                      9
                      A                      A                      A
 Frequencies --    150.6616               178.1985               183.0283
 Red. masses --      2.4405                 4.5481                 2.1754
 Frc consts  --      0.0326                 0.0851                 0.0429
 IR Inten    --      0.6181                 0.7828                 0.5183

                     10                     11                     12
                      A                      A                      A
 Frequencies --    199.6207               268.9878               277.8704
 Red. masses --      2.3731                 3.8338                 4.3957
 Frc consts  --      0.0557                 0.1634                 0.2000
 IR Inten    --      0.7698                 5.0311                 0.7383

                     13                     14                     15
                      A                      A                      A
 Frequencies --    348.1143               377.4623               416.9002
 Red. masses --      8.9380                 5.7733                 7.0360
 Frc consts  --      0.6382                 0.4846                 0.7205
 IR Inten    --      0.9062                 5.0942                 4.0738

                     16                     17                     18
                      A                      A                      A
 Frequencies --    452.4357               455.2044               480.6603
 Red. masses --      4.1109                 4.3424                 4.7685
 Frc consts  --      0.4958                 0.5301                 0.6491
 IR Inten    --      2.2953                 1.5181                 2.2399

                     19                     20                     21
                      A                      A                      A
 Frequencies --    513.7315               518.2920               553.8758
 Red. masses --      6.1200                 4.7641                 5.5699
 Frc consts  --      0.9516                 0.7540                 1.0067
 IR Inten    --      0.4237                 2.3619                 1.1291

                     22                     23                     24
                      A                      A                      A
 Frequencies --    604.1803               612.6516               650.4251
 Red. masses --      7.3258                 4.2555                 6.6394
 Frc consts  --      1.5756                 0.9411                 1.6549
 IR Inten    --     30.6985                13.3366                 2.8983

                     25                     26                     27
                      A                      A                      A
 Frequencies --    693.6393               739.9637               741.1992
 Red. masses --      6.0582                 7.2457                 3.3037
 Frc consts  --      1.7174                 2.3375                 1.0693
 IR Inten    --     14.9107                 2.9367                26.1451

                     28                     29                     30
                      A                      A                      A
 Frequencies --    760.8627               780.6273               812.7618
 Red. masses --      2.6231                 1.9240                 2.7440
 Frc consts  --      0.8947                 0.6908                 1.0680
 IR Inten    --     22.1204                 1.7214                 3.2931

                     31                     32                     33
                      A                      A                      A
 Frequencies --    817.1325               871.1005               887.7940
 Red. masses --      1.5437                 3.2743                 4.5823
 Frc consts  --      0.6073                 1.4639                 2.1279
 IR Inten    --     16.9233                 1.9653                29.9793

                     34                     35                     36
                      A                      A                      A
 Frequencies --    892.0455               923.8573               958.2401
 Red. masses --      1.4373                 1.4956                 1.3825
 Frc consts  --      0.6739                 0.7521                 0.7479
 IR Inten    --      0.1202                 3.7555                 0.1650

                     37                     38                     39
                      A                      A                      A
 Frequencies --    992.8258               997.3138              1024.7349
 Red. masses --      1.8949                 2.2445                 1.7861
 Frc consts  --      1.1005                 1.3153                 1.1050
 IR Inten    --      8.6951                10.7973                 8.6112

                     40                     41                     42
                      A                      A                      A
 Frequencies --   1027.7830              1071.5127              1090.7527
 Red. masses --      3.9029                 1.5449                 2.2234
 Frc consts  --      2.4291                 1.0451                 1.5586
 IR Inten    --     21.4898                 4.7173                 2.7354

                     43                     44                     45
                      A                      A                      A
 Frequencies --   1137.0638              1168.5972              1201.5041
 Red. masses --      2.3256                 1.8976                 1.2677
 Frc consts  --      1.7716                 1.5268                 1.0782
 IR Inten    --      3.8852                42.0627                 0.6846

                     46                     47                     48
                      A                      A                      A
 Frequencies --   1204.9324              1211.1184              1253.0903
 Red. masses --      1.5003                 2.6968                 2.7112
 Frc consts  --      1.2834                 2.3306                 2.5082
 IR Inten    --      5.4496                35.3482                 0.6857

                     49                     50                     51
                      A                      A                      A
 Frequencies --   1266.1978              1290.9478              1313.3266
 Red. masses --      1.3675                 1.8786                 1.6075
 Frc consts  --      1.2917                 1.8446                 1.6336
 IR Inten    --     31.8793                58.6082                 3.7433

                     52                     53                     54
                      A                      A                      A
 Frequencies --   1339.3882              1358.1412              1367.7089
 Red. masses --      1.5558                 3.4632                 2.7750
 Frc consts  --      1.6445                 3.7637                 3.0584
 IR Inten    --      0.9209                 0.6540                25.3116

                     55                     56                     57
                      A                      A                      A
 Frequencies --   1427.1892              1450.5785              1493.0976
 Red. masses --      7.8499                 1.2215                 1.8445
 Frc consts  --      9.4205                 1.5144                 2.4228
 IR Inten    --     83.8450                 0.7357                 1.6594

                     58                     59                     60
                      A                      A                      A
 Frequencies --   1521.8696              1522.3320              1541.7438
 Red. masses --      1.1082                 1.2424                 2.4696
 Frc consts  --      1.5123                 1.6964                 3.4586
 IR Inten    --      7.9601                25.0464                52.8825

                     61                     62                     63
                      A                      A                      A
 Frequencies --   1544.4050              1637.8186              1666.7023
 Red. masses --      3.7629                 5.6929                 5.6358
 Frc consts  --      5.2880                 8.9973                 9.2241
 IR Inten    --     95.3467                 0.2585                 1.1039

                     64                     65                     66
                      A                      A                      A
 Frequencies --   1768.1792              2365.4709              3055.4916
 Red. masses --     11.9597                12.6652                 1.0380
 Frc consts  --     22.0305                41.7539                 5.7095
 IR Inten    --    184.1868                 6.4531                13.4530

                     67                     68                     69
                      A                      A                      A
 Frequencies --   3068.6750              3110.1181              3136.2300
 Red. masses --      1.0825                 1.0993                 1.1019
 Frc consts  --      6.0058                 6.2650                 6.3855
 IR Inten    --      0.7541                12.5605                17.9169

                     70                     71                     72
                      A                      A                      A
 Frequencies --   3184.8161              3197.5047              3208.3518
 Red. masses --      1.0869                 1.0888                 1.0924
 Frc consts  --      6.4956                 6.5590                 6.6251
 IR Inten    --      5.9484                10.3873                15.9651

                     73                     74                     75
                      A                      A                      A
 Frequencies --   3218.3303              3245.7380              3256.5026
 Red. masses --      1.0967                 1.0934                 1.0945
 Frc consts  --      6.6929                 6.7870                 6.8384
 IR Inten    --     12.2836                 0.5051                 0.0212

 - Thermochemistry -
 -------------------
 Temperature   298.150 Kelvin.  Pressure   1.00000 Atm.
 Atom     1 has atomic number  6 and mass  12.00000

 Molecular mass:   242.05138 amu.
 Principal axes and moments of inertia in atomic units:
                           1         2         3
     Eigenvalues --  3001.540174960.694465247.31751
           X            0.99990   0.01069  -0.00913
           Y           -0.00922   0.98900   0.14760
           Z            0.01061  -0.14750   0.98901
 This molecule is an asymmetric top.
 Rotational symmetry number  1.
 Warning -- assumption of classical behavior for rotation
           may cause significant error
 Rotational temperatures (Kelvin)      0.02886     0.01746     0.01651
 Rotational constants (GHZ):           0.60127     0.36381     0.34394
 Zero-point vibrational energy     529354.5 (Joules/Mol)
                                  126.51877 (Kcal/Mol)
 Warning -- explicit consideration of  23 degrees of freedom as
           vibrations may cause significant error
 Vibrational temperatures:     24.85    52.71    73.24   110.11   180.37
          (Kelvin)            194.02   216.77   256.39   263.34   287.21
                              387.01   399.79   500.86   543.08   599.83
                              650.95   654.94   691.56   739.15   745.71
                              796.90   869.28   881.47   935.82   997.99
                             1064.64  1066.42  1094.71  1123.15  1169.38
                             1175.67  1253.32  1277.34  1283.45  1329.22
                             1378.69  1428.45  1434.91  1474.36  1478.75
                             1541.67  1569.35  1635.98  1681.35  1728.70
                             1733.63  1742.53  1802.92  1821.78  1857.39
                             1889.58  1927.08  1954.06  1967.83  2053.41
                             2087.06  2148.23  2189.63  2190.30  2218.23
                             2222.05  2356.46  2398.01  2544.02  3403.39
                             4396.17  4415.14  4474.77  4512.34  4582.24
                             4600.50  4616.10  4630.46  4669.89  4685.38

 Zero-point correction=                           0.201620 (Hartree/Particle)
 Thermal correction to Energy=                    0.216595
 Thermal correction to Enthalpy=                  0.217539
 Thermal correction to Gibbs Free Energy=         0.157444
 Sum of electronic and zero-point Energies=          -1084.152930
 Sum of electronic and thermal Energies=             -1084.137956
 Sum of electronic and thermal Enthalpies=           -1084.137012
 Sum of electronic and thermal Free Energies=        -1084.197106

                     E (Thermal)             CV                S
                      KCal/Mol        Cal/Mol-Kelvin    Cal/Mol-Kelvin
 Total                  135.915             55.933            126.479
 Electronic               0.000              0.000              0.000
 Translational            0.889              2.981             42.353
 Rotational               0.889              2.981             32.724
 Vibrational            134.138             49.971             51.402
 Vibration     1          0.593              1.986              6.926
 Vibration     2          0.594              1.982              5.433
 Vibration     3          0.595              1.977              4.782
 Vibration     4          0.599              1.965              3.978
 Vibration     5          0.610              1.928              3.016
 Vibration     6          0.613              1.919              2.876
 Vibration     7          0.618              1.902              2.664
 Vibration     8          0.629              1.869              2.347
 Vibration     9          0.631              1.863              2.297
 Vibration    10          0.638              1.840              2.137
 Vibration    11          0.673              1.730              1.603
 Vibration    12          0.679              1.714              1.547
 Vibration    13          0.726              1.579              1.175
 Vibration    14          0.748              1.518              1.049
 Vibration    15          0.780              1.434              0.903
 Vibration    16          0.811              1.356              0.788
 Vibration    17          0.814              1.349              0.780
 Vibration    18          0.837              1.293              0.708
 Vibration    19          0.869              1.220              0.625
 Vibration    20          0.873              1.209              0.614
 Vibration    21          0.909              1.131              0.536
 Vibration    22          0.963              1.023              0.443
 Vibration    23          0.972              1.005              0.428

 Optimization completed.
    -- Stationary point found.
 Normal termination of Gaussian 16 at Fri Dec 11 13:52:45 2020.

 ----------------------------------------------------------------------
 # B3LYP/6-311++G(d,p) empiricaldispersion=gd3bj scf=xqc pop=npa geom=c
 heck
 ----------------------------------------------------------------------

 ---------------------------------------
 CID_108041828_JID_7998_Energie_neutraal
 ---------------------------------------
 Structure from the checkpoint file:  "JID_7998.chk"
 Charge =  0 Multiplicity = 1

 SCF Done:  E(RB3LYP) =  -1084.56136490     A.U. after   17 cycles
 Normal termination of Gaussian 16 at Fri Dec 11 13:56:41 2020.

 ----------------------------------------------------------------------
 # B3LYP/6-311++G(d,p) empiricaldispersion=gd3bj scf=xqc pop=npa geom=c
 heck
 ----------------------------------------------------------------------

 -------------------------------------
 CID_108041828_JID_7998_Energie_kation
 -------------------------------------
 Structure from the checkpoint file:  "JID_7998.chk"
 Charge =  1 Multiplicity = 2

 SCF Done:  E(UB3LYP) =  -1084.23291380     A.U. after   33 cycles
 SCF Done:  E(UB3LYP) =  -1084.23291380     a.u. after    2 cycles
 Normal termination of Gaussian 16 at Fri Dec 11 14:16:58 2020.
 Gaussian 16:  ES64L-G16RevA.03 25-Dec-2016

 ----------------------------------------------------------------------
 # B3LYP/6-311++G(d,p) empiricaldispersion=gd3bj scf=xqc pop=npa geom=c
 heck
 ----------------------------------------------------------------------

 ------------------------------------
 CID_108041828_JID_7998_Energie_anion
 ------------------------------------
 Structure from the checkpoint file:  "JID_7998.chk"
 Charge = -1 Multiplicity = 2

                         Standard orientation:
 ---------------------------------------------------------------------
 Center     Atomic      Atomic             Coordinates (Angstroms)
 Number     Number       Type             X           Y           Z
 ---------------------------------------------------------------------
      1          6           0        1.471257   -1.004168   -2.298586
      2          6           0        1.915345   -0.206878   -1.095713
      3          6           0        2.850708    0.820478   -1.260699
      4          6           0        3.290673    1.591232   -0.186154
      5          6           0        2.802561    1.333432    1.092442
      6          6           0        1.871704    0.314008    1.280345
      7          6           0        1.416911   -0.450626    0.201213
      8          6           0        0.382700   -1.556155    0.407621
      9          6           0        0.007910   -1.739702    1.812060
     10          7           0       -0.319264   -1.870359    2.917905
     11          6           0       -0.931528   -1.358344   -0.408258
     12          8           0       -1.328498   -2.261445   -1.121908
     13          6           0       -1.677762   -0.098356   -0.294849
     14          6           0       -2.898940    0.120029   -0.901083
     15          7           0       -3.483698    1.331655   -0.676658
     16          6           0       -2.725205    2.057212    0.105179
     17         16           0       -1.235280    1.325732    0.617100
     18          1           0        2.156751   -0.843304   -3.135067
     19          1           0        1.432851   -2.079980   -2.097159
     20          1           0        0.468964   -0.713364   -2.634445
     21          1           0        3.240860    1.013991   -2.256464
     22          1           0        4.017183    2.382129   -0.348327
     23          1           0        3.143304    1.916333    1.942706
     24          1           0        1.492262    0.110643    2.276462
     25          1           0        0.775055   -2.513231    0.044514
     26          1           0       -3.392398   -0.618134   -1.521214
     27          1           0       -2.979642    3.062702    0.420831
 ---------------------------------------------------------------------

 SCF Done:  E(UB3LYP) =  -1084.60296236     A.U. after   24 cycles

 The electronic state is 2-A.
 Alpha  occ. eigenvalues --  -88.73347 -18.93993 -14.19251 -14.17505 -10.10162
 Alpha  occ. eigenvalues --  -10.09487 -10.09409 -10.08931 -10.08867 -10.08044
 Alpha  occ. eigenvalues --  -10.07933 -10.07867 -10.07781 -10.07374 -10.06585
 Alpha  occ. eigenvalues --  -10.05293 -10.04596  -7.82059  -5.78324  -5.77987
 Alpha  occ. eigenvalues --   -5.77696  -0.88716  -0.81868  -0.79352  -0.76752
 Alpha  occ. eigenvalues --   -0.69679  -0.67482  -0.65693  -0.62417  -0.60196
 Alpha  occ. eigenvalues --   -0.58602  -0.51220  -0.49772  -0.48418  -0.43855
 Alpha  occ. eigenvalues --   -0.41995  -0.41002  -0.39453  -0.36482  -0.35137
 Alpha  occ. eigenvalues --   -0.33602  -0.33072  -0.31853  -0.31358  -0.30826
 Alpha  occ. eigenvalues --   -0.29230  -0.28487  -0.27725  -0.27073  -0.26042
 Alpha  occ. eigenvalues --   -0.25643  -0.25363  -0.24793  -0.23146  -0.22420
 Alpha  occ. eigenvalues --   -0.21495  -0.21210  -0.16030  -0.15208  -0.14408
 Alpha  occ. eigenvalues --   -0.13826  -0.11400  -0.10777   0.01955
 Alpha virt. eigenvalues --    0.06921   0.07896   0.08051   0.08393   0.09370
 Alpha virt. eigenvalues --    0.09869   0.10765   0.11491   0.12181   0.12356
 Alpha virt. eigenvalues --    0.13238   0.13716   0.14118   0.14206   0.14798

  Beta  occ. eigenvalues --  -88.73284 -18.93400 -14.19193 -14.17667 -10.10194
  Beta  occ. eigenvalues --  -10.09386 -10.09094 -10.08909 -10.08859 -10.08025
  Beta  occ. eigenvalues --  -10.07871 -10.07770 -10.07553 -10.07351 -10.06585
  Beta  occ. eigenvalues --  -10.05292 -10.04287  -7.82003  -5.78294  -5.77959
  Beta  occ. eigenvalues --   -5.77493  -0.87654  -0.81681  -0.79254  -0.76706
  Beta  occ. eigenvalues --   -0.69523  -0.67447  -0.65551  -0.62285  -0.59558
  Beta  occ. eigenvalues --   -0.58565  -0.51149  -0.49213  -0.47974  -0.43436
  Beta  occ. eigenvalues --   -0.41906  -0.40750  -0.39228  -0.36413  -0.35002
  Beta  occ. eigenvalues --   -0.33487  -0.32945  -0.31746  -0.31305  -0.30420
  Beta  occ. eigenvalues --   -0.29181  -0.28236  -0.26762  -0.26646  -0.25912
  Beta  occ. eigenvalues --   -0.25459  -0.25061  -0.24677  -0.22454  -0.21396
  Beta  occ. eigenvalues --   -0.21248  -0.20342  -0.15836  -0.15054  -0.14015
  Beta  occ. eigenvalues --   -0.13701  -0.10302  -0.09318
  Beta virt. eigenvalues --    0.06903   0.07786   0.07963   0.08290   0.09114
  Beta virt. eigenvalues --    0.09445   0.09884   0.10763   0.11476   0.12192
  Beta virt. eigenvalues --    0.13156   0.13266   0.13866   0.14150   0.14201

 Mulliken charges and spin densities:
               1          2
     1  C   -0.729860  -0.001429
     2  C    0.158129  -0.017279
     3  C   -0.207944   0.009119
     4  C   -0.303558   0.021250
     5  C   -0.439129  -0.008534
     6  C   -0.159393   0.024090
     7  C    0.678413   0.020803
     8  C    0.173411  -0.030687
     9  C   -0.465561   0.004816
    10  N   -0.314096   0.028366
    11  C   -0.270020   0.305158
    12  O   -0.363536   0.218301
    13  C   -0.332026  -0.056414
    14  C    0.270415   0.265151
    15  N   -0.053308  -0.091808
    16  C   -0.268403   0.264616
    17  S   -0.024146   0.074285
    18  H    0.120248  -0.001330
    19  H    0.156702   0.004456
    20  H    0.199517   0.005103
    21  H    0.133150  -0.000639
    22  H    0.129619  -0.001140
    23  H    0.146403   0.001503
    24  H    0.157180  -0.002011
    25  H    0.256509  -0.001597
    26  H    0.168352  -0.017692
    27  H    0.182932  -0.016456
 Sum of Mulliken charges =  -1.00000   1.00000

 Dipole moment (field-independent basis, Debye):
    X=              7.7952    Y=              3.0968    Z=             -1.2897  Tot=              8.4864
 Quadrupole moment (field-independent basis, Debye-Ang):
   XX=           -141.6714   YY=           -126.8562   ZZ=           -128.7328
   XY=              0.3312   XZ=             -5.4864   YZ=              6.5201

 Summary of Natural Population Analysis:

                                       Natural Population
                Natural  -----------------------------------------------
    Atom  No    Charge         Core      Valence    Rydberg      Total
 -----------------------------------------------------------------------
      C    1   -0.29762      0.99964     2.29328    0.00470     3.29762
      C    2   -0.00774      0.99947     2.00059    0.00769     3.00774
      C    3   -0.09990      0.99952     2.09165    0.00872     3.09990
      C    4   -0.10183      0.99957     2.09303    0.00923     3.10183
      C    5   -0.10535      0.99957     2.09682    0.00896     3.10535
      C    6   -0.09401      0.99951     2.08653    0.00796     3.09401
      C    7   -0.00310      0.99945     1.99258    0.01107     3.00310
      C    8   -0.20788      0.99946     2.19689    0.01153     3.20788
      C    9    0.16828      0.99965     1.81145    0.02062     2.83172
      N   10   -0.18549      0.99978     2.67447    0.01124     3.68549
      C   11    0.31030      0.99956     1.66365    0.02649     2.68970
      O   12   -0.23246      0.99988     3.22698    0.00561     4.23246
      C   13   -0.17736      0.99942     2.16261    0.01533     3.17736
      C   14    0.06832      0.99950     1.91848    0.01370     2.93168
      N   15   -0.27686      0.99970     2.76526    0.01190     3.77686
      C   16    0.00959      0.99968     1.97353    0.01720     2.99041
      S   17    0.20226      4.99944     2.77774    0.02055     7.79774
      H   18    0.09495      0.00000     0.40416    0.00089     0.40505
      H   19    0.10700      0.00000     0.39200    0.00100     0.39300
      H   20    0.11967      0.00000     0.37946    0.00086     0.38033
      H   21    0.09479      0.00000     0.40422    0.00099     0.40521
      H   22    0.09494      0.00000     0.40408    0.00098     0.40506
      H   23    0.09668      0.00000     0.40237    0.00095     0.40332
      H   24    0.10940      0.00000     0.38913    0.00147     0.39060
      H   25    0.13051      0.00000     0.36802    0.00146     0.36949
      H   26    0.09840      0.00000     0.40051    0.00109     0.40160
      H   27    0.08449      0.00000     0.41423    0.00128     0.41551
 =======================================================================
   * Total *    0.00000     20.99281    41.78373    0.22347    63.00000

 Normal termination of Gaussian 16 at Fri Dec 11 14:24:34 2020.
