 Gaussian 16, Revision A.03,

 -----------------------------------------------------------
 # opt freq B3LYP/6-31G(d) empiricaldispersion=gd3bj scf=xqc
 -----------------------------------------------------------

 ------------------------------
 CID_60850899_JID_7726_neutraal
 ------------------------------
 Symbolic Z-matrix:
 Charge =  0 Multiplicity = 1

 SCF Done:  E(RB3LYP) =  -783.439199475     A.U. after   15 cycles
 SCF Done:  E(RB3LYP) =  -783.442832781     A.U. after   12 cycles
 SCF Done:  E(RB3LYP) =  -783.441358692     A.U. after   13 cycles
 SCF Done:  E(RB3LYP) =  -783.444018151     A.U. after   12 cycles
 SCF Done:  E(RB3LYP) =  -783.444280458     A.U. after   13 cycles
 SCF Done:  E(RB3LYP) =  -783.444588108     A.U. after   12 cycles
 SCF Done:  E(RB3LYP) =  -783.444981090     A.U. after   12 cycles
 SCF Done:  E(RB3LYP) =  -783.445011018     A.U. after   11 cycles
 SCF Done:  E(RB3LYP) =  -783.445083023     A.U. after   11 cycles
 SCF Done:  E(RB3LYP) =  -783.445126312     A.U. after   10 cycles
 SCF Done:  E(RB3LYP) =  -783.445139241     A.U. after    8 cycles
 SCF Done:  E(RB3LYP) =  -783.445139315     A.U. after    7 cycles
 SCF Done:  E(RB3LYP) =  -783.445139378     A.U. after    8 cycles
 SCF Done:  E(RB3LYP) =  -783.445139363     A.U. after    7 cycles
 Optimization completed.
    -- Stationary point found.
 Normal termination of Gaussian 16 at Fri Dec 11 13:13:12 2020.

 --------------------------------------------------------------------
 #N Geom=AllCheck Guess=TCheck SCRF=Check GenChk RB3LYP/6-31G(d) Freq
 --------------------------------------------------------------------

 Structure from the checkpoint file:  "JID_7726.chk"
 ------------------------------
 CID_60850899_JID_7726_neutraal
 ------------------------------
 Charge =  0 Multiplicity = 1

 SCF Done:  E(RB3LYP) =  -783.445139363     A.U. after    1 cycles

  Exact polarizability: 175.339  -5.902 130.361   2.636  10.123 124.981
 Approx polarizability: 228.011 -16.627 200.263   0.870  24.002 203.245

                      1                      2                      3
                      A                      A                      A
 Frequencies --     15.4124                35.1201                41.7455
 Red. masses --      4.9798                 4.4819                 4.0499
 Frc consts  --      0.0007                 0.0033                 0.0042
 IR Inten    --      0.0197                 0.4016                 0.4980

                      4                      5                      6
                      A                      A                      A
 Frequencies --     53.0883                71.0711                85.9998
 Red. masses --      7.1752                 3.4332                 4.1418
 Frc consts  --      0.0119                 0.0102                 0.0180
 IR Inten    --      0.9717                 0.7218                 0.1692

                      7                      8                      9
                      A                      A                      A
 Frequencies --    119.5043               137.8648               186.8622
 Red. masses --      4.8029                 4.5198                 3.7452
 Frc consts  --      0.0404                 0.0506                 0.0770
 IR Inten    --      0.2955                 3.0492                 6.3213

                     10                     11                     12
                      A                      A                      A
 Frequencies --    213.0206               267.7388               291.8896
 Red. masses --      3.0271                 3.6888                 2.4454
 Frc consts  --      0.0809                 0.1558                 0.1228
 IR Inten    --      1.3234                 3.1135                 0.5975

                     13                     14                     15
                      A                      A                      A
 Frequencies --    327.0107               365.3551               404.8718
 Red. masses --      2.5114                 2.0901                 2.7448
 Frc consts  --      0.1582                 0.1644                 0.2651
 IR Inten    --      6.6085                 1.7774                 4.0259

                     16                     17                     18
                      A                      A                      A
 Frequencies --    419.0079               447.5677               477.3488
 Red. masses --      2.4862                 3.0416                 2.5638
 Frc consts  --      0.2572                 0.3590                 0.3442
 IR Inten    --      3.9570                 7.3317                 2.4655

                     19                     20                     21
                      A                      A                      A
 Frequencies --    484.5240               493.8552               549.4185
 Red. masses --      2.3099                 2.2878                 3.7813
 Frc consts  --      0.3195                 0.3287                 0.6725
 IR Inten    --      1.1177                 4.4951                21.9680

                     22                     23                     24
                      A                      A                      A
 Frequencies --    597.5178               613.7124               621.2379
 Red. masses --      1.5118                 3.3865                 1.8272
 Frc consts  --      0.3180                 0.7515                 0.4155
 IR Inten    --     12.2046                 7.6420                55.8674

                     25                     26                     27
                      A                      A                      A
 Frequencies --    648.8009               687.5433               707.5299
 Red. masses --      3.8241                 2.5090                 2.5815
 Frc consts  --      0.9484                 0.6988                 0.7614
 IR Inten    --      5.7016                 8.6561                56.8895

                     28                     29                     30
                      A                      A                      A
 Frequencies --    739.6107               780.7174               818.3272
 Red. masses --      1.3735                 3.0738                 1.2926
 Frc consts  --      0.4427                 1.1039                 0.5100
 IR Inten    --     31.4839                12.2482                12.9526

                     31                     32                     33
                      A                      A                      A
 Frequencies --    824.0639               838.6874               841.3270
 Red. masses --      2.3871                 2.8750                 1.7131
 Frc consts  --      0.9551                 1.1915                 0.7144
 IR Inten    --    116.0907                27.5972                 2.3119

                     34                     35                     36
                      A                      A                      A
 Frequencies --    870.1927               883.1982               903.6181
 Red. masses --      1.3339                 2.4782                 2.9320
 Frc consts  --      0.5951                 1.1390                 1.4105
 IR Inten    --      0.4499                 1.7340                 6.4166

                     37                     38                     39
                      A                      A                      A
 Frequencies --    905.1391               909.6452               934.2657
 Red. masses --      1.6310                 4.9100                 3.2538
 Frc consts  --      0.7873                 2.3937                 1.6733
 IR Inten    --     42.1838                 2.2711                 4.3161

                     40                     41                     42
                      A                      A                      A
 Frequencies --    966.9951              1002.2487              1004.0168
 Red. masses --      2.2463                 2.1804                 2.4655
 Frc consts  --      1.2376                 1.2904                 1.4643
 IR Inten    --     28.5396                 6.1746                 2.3685

                     43                     44                     45
                      A                      A                      A
 Frequencies --   1023.2179              1042.4721              1048.1807
 Red. masses --      1.7874                 1.5609                 2.4635
 Frc consts  --      1.1026                 0.9994                 1.5947
 IR Inten    --      8.1841                12.1786                16.6227

                     46                     47                     48
                      A                      A                      A
 Frequencies --   1051.2202              1109.7757              1119.6665
 Red. masses --      1.4681                 2.1564                 2.9302
 Frc consts  --      0.9559                 1.5648                 2.1644
 IR Inten    --     19.1931                10.5142                 9.6627

                     49                     50                     51
                      A                      A                      A
 Frequencies --   1139.2743              1143.7666              1169.8359
 Red. masses --      4.3509                 2.9976                 2.3048
 Frc consts  --      3.3272                 2.3104                 1.8584
 IR Inten    --     28.4849                 2.5878                42.0473

                     52                     53                     54
                      A                      A                      A
 Frequencies --   1182.2400              1200.1915              1214.2905
 Red. masses --      1.7795                 1.7781                 2.0493
 Frc consts  --      1.4654                 1.5090                 1.7803
 IR Inten    --     16.0228                 6.1339                34.9437

                     55                     56                     57
                      A                      A                      A
 Frequencies --   1225.0467              1256.2292              1270.5506
 Red. masses --      1.0991                 2.1371                 1.3048
 Frc consts  --      0.9718                 1.9870                 1.2410
 IR Inten    --      1.3900                 7.2953                44.4234

                     58                     59                     60
                      A                      A                      A
 Frequencies --   1274.4446              1297.4351              1341.0241
 Red. masses --      1.3239                 1.4340                 1.7548
 Frc consts  --      1.2669                 1.4223                 1.8593
 IR Inten    --     13.9782                 4.8194                60.3889

                     61                     62                     63
                      A                      A                      A
 Frequencies --   1356.5029              1368.5514              1378.0743
 Red. masses --      1.3199                 1.2669                 1.4394
 Frc consts  --      1.4310                 1.3980                 1.6106
 IR Inten    --      3.0904                 0.6971                16.4246

                     64                     65                     66
                      A                      A                      A
 Frequencies --   1380.9582              1392.5431              1399.0183
 Red. masses --      1.3343                 1.5529                 1.2463
 Frc consts  --      1.4992                 1.7742                 1.4372
 IR Inten    --     18.0932                 3.8457                25.0061

                     67                     68                     69
                      A                      A                      A
 Frequencies --   1404.2084              1419.8606              1428.0000
 Red. masses --      1.3180                 1.2725                 1.5102
 Frc consts  --      1.5312                 1.5115                 1.8145
 IR Inten    --     16.3139                12.5563                19.1198

                     70                     71                     72
                      A                      A                      A
 Frequencies --   1432.7575              1440.2674              1489.9237
 Red. masses --      1.6996                 2.1062                 1.0995
 Frc consts  --      2.0557                 2.5742                 1.4380
 IR Inten    --     28.7687                 9.5581                 5.2960

                     73                     74                     75
                      A                      A                      A
 Frequencies --   1491.1321              1497.0304              1503.6267
 Red. masses --      1.1078                 1.1113                 1.1136
 Frc consts  --      1.4512                 1.4673                 1.4834
 IR Inten    --      4.1466                 9.1920                 4.3137

                     76                     77                     78
                      A                      A                      A
 Frequencies --   1511.4173              1513.7337              1516.0971
 Red. masses --      1.1530                 1.1128                 1.8539
 Frc consts  --      1.5518                 1.5023                 2.5106
 IR Inten    --      5.1639                14.3061                76.0226

                     79                     80                     81
                      A                      A                      A
 Frequencies --   1524.3192              1527.9848              1555.4313
 Red. masses --      1.0951                 1.0991                 4.6322
 Frc consts  --      1.4992                 1.5119                 6.6030
 IR Inten    --      2.2883                12.6917                13.4679

                     82                     83                     84
                      A                      A                      A
 Frequencies --   1653.8858              1766.2281              2981.7426
 Red. masses --      6.2269                 7.2023                 1.0711
 Frc consts  --     10.0353                13.2379                 5.6107
 IR Inten    --      4.8517               318.5598                50.1181

                     85                     86                     87
                      A                      A                      A
 Frequencies --   2990.3102              3039.5031              3053.7340
 Red. masses --      1.0706                 1.0617                 1.0701
 Frc consts  --      5.6404                 5.7791                 5.8793
 IR Inten    --     94.0448                45.9549                13.9190

                     88                     89                     90
                      A                      A                      A
 Frequencies --   3059.8127              3061.2975              3062.0666
 Red. masses --      1.0665                 1.0670                 1.0672
 Frc consts  --      5.8830                 5.8917                 5.8957
 IR Inten    --     23.4218                86.1361                19.1632

                     91                     92                     93
                      A                      A                      A
 Frequencies --   3070.0986              3090.3559              3103.3658
 Red. masses --      1.0877                 1.1035                 1.0941
 Frc consts  --      6.0402                 6.2095                 6.2082
 IR Inten    --     71.4751                48.6320                11.9411

                     94                     95                     96
                      A                      A                      A
 Frequencies --   3109.5888              3131.5725              3135.3597
 Red. masses --      1.1024                 1.0952                 1.0988
 Frc consts  --      6.2805                 6.3283                 6.3644
 IR Inten    --     43.8820                14.3084                 8.9244

                     97                     98                     99
                      A                      A                      A
 Frequencies --   3156.2608              3265.4927              3276.6014
 Red. masses --      1.0926                 1.0922                 1.0964
 Frc consts  --      6.4127                 6.8617                 6.9354
 IR Inten    --     22.8357                 4.5220                 0.5714

                    100                    101                    102
                      A                      A                      A
 Frequencies --   3304.1744              3439.7701              3564.8374
 Red. masses --      1.1050                 1.0732                 1.0749
 Frc consts  --      7.1079                 7.4817                 8.0478
 IR Inten    --      1.5014                 7.7822                18.2330

 - Thermochemistry -
 -------------------
 Temperature   298.150 Kelvin.  Pressure   1.00000 Atm.
 Atom     1 has atomic number  6 and mass  12.00000

 Molecular mass:   237.14773 amu.
 Principal axes and moments of inertia in atomic units:
                           1         2         3
     Eigenvalues --  2089.355986816.223617310.30164
           X            0.99998  -0.00480   0.00379
           Y            0.00460   0.99877   0.04928
           Z           -0.00402  -0.04926   0.99878
 This molecule is an asymmetric top.
 Rotational symmetry number  1.
 Warning -- assumption of classical behavior for rotation
           may cause significant error
 Rotational temperatures (Kelvin)      0.04145     0.01271     0.01185
 Rotational constants (GHZ):           0.86378     0.26477     0.24688
 Zero-point vibrational energy     822690.0 (Joules/Mol)
                                  196.62764 (Kcal/Mol)
 Warning -- explicit consideration of  23 degrees of freedom as
           vibrations may cause significant error
 Vibrational temperatures:     22.18    50.53    60.06    76.38   102.26
          (Kelvin)            123.73   171.94   198.36   268.85   306.49
                              385.22   419.96   470.50   525.66   582.52
                              602.86   643.95   686.80   697.12   710.55
                              790.49   859.69   883.00   893.82   933.48
                              989.22  1017.98  1064.13  1123.28  1177.39
                             1185.64  1206.68  1210.48  1252.01  1270.73
                             1300.10  1302.29  1308.78  1344.20  1391.29
                             1442.01  1444.56  1472.18  1499.88  1508.10
                             1512.47  1596.72  1610.95  1639.16  1645.63
                             1683.13  1700.98  1726.81  1747.09  1762.57
                             1807.43  1828.04  1833.64  1866.72  1929.43
                             1951.71  1969.04  1982.74  1986.89  2003.56
                             2012.88  2020.34  2042.86  2054.57  2061.42
                             2072.22  2143.67  2145.41  2153.89  2163.38
                             2174.59  2177.93  2181.33  2193.16  2198.43
                             2237.92  2379.57  2541.21  4290.06  4302.39
                             4373.17  4393.64  4402.39  4404.52  4405.63
                             4417.19  4446.33  4465.05  4474.00  4505.63
                             4511.08  4541.16  4698.32  4714.30  4753.97
                             4949.06  5129.01

 Zero-point correction=                           0.313346 (Hartree/Particle)
 Thermal correction to Energy=                    0.329273
 Thermal correction to Enthalpy=                  0.330217
 Thermal correction to Gibbs Free Energy=         0.267258
 Sum of electronic and zero-point Energies=           -783.131793
 Sum of electronic and thermal Energies=              -783.115866
 Sum of electronic and thermal Enthalpies=            -783.114922
 Sum of electronic and thermal Free Energies=         -783.177882

                     E (Thermal)             CV                S
                      KCal/Mol        Cal/Mol-Kelvin    Cal/Mol-Kelvin
 Total                  206.622             60.930            132.510
 Electronic               0.000              0.000              0.000
 Translational            0.889              2.981             42.292
 Rotational               0.889              2.981             33.009
 Vibrational            204.845             54.969             57.209
 Vibration     1          0.593              1.986              7.152
 Vibration     2          0.594              1.982              5.517
 Vibration     3          0.594              1.980              5.174
 Vibration     4          0.596              1.976              4.699
 Vibration     5          0.598              1.968              4.123
 Vibration     6          0.601              1.959              3.749
 Vibration     7          0.609              1.933              3.108
 Vibration     8          0.614              1.916              2.833
 Vibration     9          0.632              1.858              2.259
 Vibration    10          0.644              1.821              2.018
 Vibration    11          0.673              1.732              1.611
 Vibration    12          0.687              1.689              1.463
 Vibration    13          0.711              1.622              1.275
 Vibration    14          0.739              1.544              1.099
 Vibration    15          0.770              1.460              0.945
 Vibration    16          0.782              1.429              0.895
 Vibration    17          0.807              1.366              0.803
 Vibration    18          0.834              1.300              0.717
 Vibration    19          0.841              1.284              0.698
 Vibration    20          0.850              1.264              0.674
 Vibration    21          0.905              1.141              0.545
 Vibration    22          0.955              1.037              0.454
 Vibration    23          0.973              1.003              0.427

                           ! Non-Optimized Parameters !
 Normal termination of Gaussian 16 at Fri Dec 11 13:27:19 2020.

 ----------------------------------------------------------------------
 # B3LYP/6-311++G(d,p) empiricaldispersion=gd3bj scf=xqc pop=npa geom=c
 heck
 ----------------------------------------------------------------------

 --------------------------------------
 CID_60850899_JID_7726_Energie_neutraal
 --------------------------------------
 Structure from the checkpoint file:  "JID_7726.chk"
 Charge =  0 Multiplicity = 1

 SCF Done:  E(RB3LYP) =  -783.669851074     A.U. after   15 cycles
 Normal termination of Gaussian 16 at Fri Dec 11 13:34:29 2020.

 ----------------------------------------------------------------------
 # B3LYP/6-311++G(d,p) empiricaldispersion=gd3bj scf=xqc pop=npa geom=c
 heck
 ----------------------------------------------------------------------

 ------------------------------------
 CID_60850899_JID_7726_Energie_kation
 ------------------------------------
 Structure from the checkpoint file:  "JID_7726.chk"
 Charge =  1 Multiplicity = 2

 SCF Done:  E(UB3LYP) =  -783.407021556     A.U. after   33 cycles
 SCF Done:  E(UB3LYP) =  -783.407021556     a.u. after    1 cycles
 Normal termination of Gaussian 16 at Fri Dec 11 13:56:24 2020.
 Gaussian 16:  ES64L-G16RevA.03 25-Dec-2016

 ----------------------------------------------------------------------
 # B3LYP/6-311++G(d,p) empiricaldispersion=gd3bj scf=xqc pop=npa geom=c
 heck
 ----------------------------------------------------------------------

 -----------------------------------
 CID_60850899_JID_7726_Energie_anion
 -----------------------------------
 Structure from the checkpoint file:  "JID_7726.chk"
 Charge = -1 Multiplicity = 2

                         Standard orientation:
 ---------------------------------------------------------------------
 Center     Atomic      Atomic             Coordinates (Angstroms)
 Number     Number       Type             X           Y           Z
 ---------------------------------------------------------------------
      1          6           0       -1.473815    1.483395   -0.878218
      2          6           0       -2.098517    0.245173   -1.545865
      3          7           0       -2.765678   -0.650862   -0.606220
      4          6           0       -3.669378    0.062802    0.301653
      5          6           0       -3.057237    1.324241    0.935540
      6          7           0       -2.434223    2.219854   -0.051450
      7          6           0       -1.972686   -1.738711   -0.056413
      8          6           0       -0.876733   -1.339014    0.945511
      9          8           0       -1.181992   -0.996363    2.085567
     10          7           0        0.434625   -1.328934    0.552610
     11          6           0        1.068069   -1.691544   -0.702812
     12          6           0        1.722407   -0.481604   -1.406837
     13          6           0        2.709715    0.216634   -0.539030
     14          6           0        2.659543    1.349527    0.219792
     15          6           0        3.916209    1.440780    0.909443
     16          6           0        4.637086    0.353508    0.525550
     17          8           0        3.918365   -0.408042   -0.353560
     18          1           0       -0.644644    1.180153   -0.227469
     19          1           0       -1.066055    2.161220   -1.639674
     20          1           0       -1.353795   -0.326732   -2.113557
     21          1           0       -2.851072    0.595451   -2.271654
     22          1           0       -4.553981    0.360518   -0.286233
     23          1           0       -4.004828   -0.632622    1.077345
     24          1           0       -2.291176    1.032738    1.658631
     25          1           0       -3.830949    1.885116    1.473615
     26          1           0       -3.164132    2.590955   -0.662832
     27          1           0       -2.646517   -2.395622    0.503077
     28          1           0       -1.575652   -2.319283   -0.895389
     29          1           0        1.051770   -0.977502    1.277693
     30          1           0        1.837341   -2.449767   -0.510483
     31          1           0        0.329398   -2.142821   -1.365575
     32          1           0        2.209283   -0.834191   -2.324829
     33          1           0        0.947720    0.233849   -1.695117
     34          1           0        1.827846    2.037901    0.277995
     35          1           0        4.232289    2.215351    1.593640
     36          1           0        5.625124   -0.011004    0.760297
 ---------------------------------------------------------------------

 SCF Done:  E(UB3LYP) =  -783.658848890     A.U. after   33 cycles
 SCF Done:  E(UB3LYP) =  -783.658848890     a.u. after    1 cycles

 The electronic state is 2-A.
 Alpha  occ. eigenvalues --  -19.09909 -18.99433 -14.24787 -14.21517 -14.20387
 Alpha  occ. eigenvalues --  -10.17934 -10.13748 -10.13320 -10.12354 -10.11238
 Alpha  occ. eigenvalues --  -10.09888 -10.09818 -10.09520 -10.09400 -10.09005
 Alpha  occ. eigenvalues --  -10.08716 -10.08235  -1.02255  -0.94674  -0.84712
 Alpha  occ. eigenvalues --   -0.83431  -0.79642  -0.71711  -0.70579  -0.66653
 Alpha  occ. eigenvalues --   -0.64686  -0.63603  -0.56569  -0.55633  -0.54828
 Alpha  occ. eigenvalues --   -0.51650  -0.50255  -0.47569  -0.46645  -0.43959
 Alpha  occ. eigenvalues --   -0.41647  -0.41117  -0.39412  -0.37998  -0.37022
 Alpha  occ. eigenvalues --   -0.36850  -0.35724  -0.35476  -0.34771  -0.34345
 Alpha  occ. eigenvalues --   -0.33133  -0.32137  -0.31907  -0.30828  -0.30363
 Alpha  occ. eigenvalues --   -0.29629  -0.29185  -0.28252  -0.27972  -0.27490
 Alpha  occ. eigenvalues --   -0.25801  -0.24765  -0.24069  -0.19787  -0.18273
 Alpha  occ. eigenvalues --   -0.16773  -0.15085  -0.14118  -0.10137   0.04095
 Alpha virt. eigenvalues --    0.05787   0.06444   0.07393   0.07892   0.08231
 Alpha virt. eigenvalues --    0.08432   0.08911   0.08986   0.09813   0.09952
 Alpha virt. eigenvalues --    0.10469   0.11136   0.11524   0.11997   0.12441

  Beta  occ. eigenvalues --  -19.09879 -18.99430 -14.24783 -14.21516 -14.20375
  Beta  occ. eigenvalues --  -10.17933 -10.13728 -10.13290 -10.12317 -10.11214
  Beta  occ. eigenvalues --  -10.09876 -10.09789 -10.09507 -10.09378 -10.09001
  Beta  occ. eigenvalues --  -10.08716 -10.08223  -1.02206  -0.94668  -0.84696
  Beta  occ. eigenvalues --   -0.83416  -0.79619  -0.71674  -0.70530  -0.66626
  Beta  occ. eigenvalues --   -0.64647  -0.63550  -0.56525  -0.55588  -0.54789
  Beta  occ. eigenvalues --   -0.51629  -0.50222  -0.47520  -0.46601  -0.43905
  Beta  occ. eigenvalues --   -0.41609  -0.41078  -0.39373  -0.37937  -0.36966
  Beta  occ. eigenvalues --   -0.36805  -0.35704  -0.35435  -0.34731  -0.34318
  Beta  occ. eigenvalues --   -0.33080  -0.32117  -0.31886  -0.30793  -0.30334
  Beta  occ. eigenvalues --   -0.29594  -0.29155  -0.28223  -0.27938  -0.27449
  Beta  occ. eigenvalues --   -0.25771  -0.24742  -0.24047  -0.19713  -0.18257
  Beta  occ. eigenvalues --   -0.16754  -0.15062  -0.14005  -0.10105
  Beta virt. eigenvalues --    0.06205   0.06506   0.07392   0.07847   0.08223
  Beta virt. eigenvalues --    0.08501   0.08678   0.09256   0.09352   0.10077
  Beta virt. eigenvalues --    0.10281   0.10780   0.11396   0.11793   0.12230

 Mulliken charges and spin densities:
               1          2
     1  C   -0.279536  -0.192604
     2  C    0.011590  -0.433021
     3  N   -0.006917   0.185954
     4  C    0.151971  -0.362796
     5  C   -0.439118   0.055642
     6  N    0.039503  -0.078474
     7  C    0.272488  -0.853415
     8  C   -0.319781   0.351083
     9  O   -0.303742   0.006827
    10  N   -0.096794   0.030170
    11  C    0.727554  -1.101531
    12  C    0.083122  -0.642393
    13  C    0.116479  -0.573335
    14  C   -0.104235   0.755621
    15  C    0.342466  -1.038499
    16  C    0.094801   0.108389
    17  O   -0.013165   0.047345
    18  H    0.924563  -0.773187
    19  H   -0.391617   0.586057
    20  H   -0.296857   0.441937
    21  H   -0.334104   0.524017
    22  H   -0.114026   0.270289
    23  H    0.165051  -0.033460
    24  H    0.169069   0.036454
    25  H    0.041010   0.108624
    26  H    0.161049   0.061234
    27  H    0.082082   0.094567
    28  H   -0.314519   0.484911
    29  H    0.260882   0.039397
    30  H   -0.094465   0.313645
    31  H   -0.305505   0.433163
    32  H   -0.843420   1.073487
    33  H    0.313400  -0.151059
    34  H   -0.060219   0.236939
    35  H   -0.063348   0.224326
    36  H   -0.575712   0.763696
 Sum of Mulliken charges =  -1.00000   1.00000

 Dipole moment (field-independent basis, Debye):
    X=             -1.6965    Y=              1.5373    Z=              3.9044  Tot=              4.5261
 Quadrupole moment (field-independent basis, Debye-Ang):
   XX=           -175.1204   YY=           -145.8986   ZZ=           -155.8603
   XY=              5.9514   XZ=             -1.5289   YZ=             -4.7375

 Summary of Natural Population Analysis:

                                       Natural Population
                Natural  -----------------------------------------------
    Atom  No    Charge         Core      Valence    Rydberg      Total
 -----------------------------------------------------------------------
      C    1   -0.10310      0.99962     2.09197    0.01150     3.10310
      C    2   -0.09458      0.99960     2.08171    0.01327     3.09458
      N    3   -0.27798      0.99974     2.76270    0.01555     3.77798
      C    4   -0.09113      0.99961     2.08040    0.01112     3.09113
      C    5   -0.10428      0.99962     2.09371    0.01095     3.10428
      N    6   -0.33432      0.99977     2.82277    0.01178     3.83432
      C    7   -0.11940      0.99956     2.10791    0.01193     3.11940
      C    8    0.33186      0.99966     1.64525    0.02322     2.66814
      O    9   -0.33281      0.99988     3.32721    0.00572     4.33281
      N   10   -0.31658      0.99967     2.80740    0.00952     3.81658
      C   11   -0.08309      0.99960     2.07203    0.01146     3.08309
      C   12   -0.21811      0.99958     2.20815    0.01038     3.21811
      C   13    0.15269      0.99946     1.83191    0.01593     2.84731
      C   14   -0.15133      0.99948     2.14406    0.00779     3.15133
      C   15   -0.15273      0.99957     2.14474    0.00843     3.15273
      C   16    0.05982      0.99951     1.92654    0.01413     2.94018
      O   17   -0.23587      0.99986     3.22747    0.00854     4.23587
      H   18    0.09079      0.00000     0.40683    0.00238     0.40921
      H   19    0.09555      0.00000     0.40318    0.00127     0.40445
      H   20    0.09942      0.00000     0.39862    0.00196     0.40058
      H   21    0.09218      0.00000     0.40592    0.00190     0.40782
      H   22    0.08713      0.00000     0.41151    0.00135     0.41287
      H   23    0.09929      0.00000     0.39975    0.00096     0.40071
      H   24    0.10532      0.00000     0.39335    0.00132     0.39468
      H   25    0.09023      0.00000     0.40894    0.00083     0.40977
      H   26    0.16579      0.00000     0.33152    0.00269     0.33421
      H   27    0.10459      0.00000     0.39437    0.00104     0.39541
      H   28    0.09993      0.00000     0.39851    0.00156     0.40007
      H   29    0.19670      0.00000     0.30100    0.00230     0.30330
      H   30    0.09765      0.00000     0.40080    0.00155     0.40235
      H   31    0.10561      0.00000     0.39151    0.00287     0.39439
      H   32    0.11533      0.00000     0.38169    0.00298     0.38467
      H   33    0.10885      0.00000     0.38878    0.00238     0.39115
      H   34    0.11249      0.00000     0.38648    0.00103     0.38751
      H   35    0.10804      0.00000     0.39125    0.00071     0.39196
      H   36    0.09604      0.00000     0.40266    0.00130     0.40396
 =======================================================================
   * Total *    0.00000     16.99377    46.77261    0.23362    64.00000

 Normal termination of Gaussian 16 at Fri Dec 11 14:18:55 2020.
