 Gaussian 16, Revision A.03,

 -----------------------------------------------------------
 # opt freq B3LYP/6-31G(d) empiricaldispersion=gd3bj scf=xqc
 -----------------------------------------------------------

 -------------------------------
 CID_63667965_JID_10852_neutraal
 -------------------------------
 Symbolic Z-matrix:
 Charge =  0 Multiplicity = 1

 SCF Done:  E(RB3LYP) =  -1256.64609486     A.U. after   15 cycles
 SCF Done:  E(RB3LYP) =  -1256.65186987     A.U. after   13 cycles
 SCF Done:  E(RB3LYP) =  -1256.65354862     A.U. after   12 cycles
 SCF Done:  E(RB3LYP) =  -1256.65496961     A.U. after   13 cycles
 SCF Done:  E(RB3LYP) =  -1256.65552947     A.U. after   13 cycles
 SCF Done:  E(RB3LYP) =  -1256.65616660     A.U. after   12 cycles
 SCF Done:  E(RB3LYP) =  -1256.65633070     A.U. after   12 cycles
 SCF Done:  E(RB3LYP) =  -1256.65641337     A.U. after   12 cycles
 SCF Done:  E(RB3LYP) =  -1256.65649233     A.U. after   11 cycles
 SCF Done:  E(RB3LYP) =  -1256.65652432     A.U. after   10 cycles
 SCF Done:  E(RB3LYP) =  -1256.65653436     A.U. after   10 cycles
 SCF Done:  E(RB3LYP) =  -1256.65653843     A.U. after    9 cycles
 SCF Done:  E(RB3LYP) =  -1256.65653928     A.U. after    8 cycles
 SCF Done:  E(RB3LYP) =  -1256.65653938     A.U. after    7 cycles
 Optimization completed.
    -- Stationary point found.
 Normal termination of Gaussian 16 at Mon Dec 14 13:56:43 2020.

 --------------------------------------------------------------------
 #N Geom=AllCheck Guess=TCheck SCRF=Check GenChk RB3LYP/6-31G(d) Freq
 --------------------------------------------------------------------

 Structure from the checkpoint file:  "JID_10852.chk"
 -------------------------------
 CID_63667965_JID_10852_neutraal
 -------------------------------
 Charge =  0 Multiplicity = 1

 SCF Done:  E(RB3LYP) =  -1256.65653938     A.U. after    1 cycles

  Exact polarizability: 213.419   7.378 184.369  37.975 -12.710 142.977
 Approx polarizability: 318.290  11.632 325.250  88.562 -35.171 250.964

                      1                      2                      3
                      A                      A                      A
 Frequencies --     32.3340                41.1583                60.2420
 Red. masses --      5.0468                 4.1884                 4.1902
 Frc consts  --      0.0031                 0.0042                 0.0090
 IR Inten    --      0.2570                 0.7469                 1.6008

                      4                      5                      6
                      A                      A                      A
 Frequencies --     80.9396               112.0340               137.3539
 Red. masses --      4.4809                 5.0681                 1.7761
 Frc consts  --      0.0173                 0.0375                 0.0197
 IR Inten    --      0.6886                 1.5780                 0.6771

                      7                      8                      9
                      A                      A                      A
 Frequencies --    144.8143               155.3216               166.3548
 Red. masses --      1.4937                 1.1288                 1.4630
 Frc consts  --      0.0185                 0.0160                 0.0239
 IR Inten    --      1.1686                 1.1360                 2.4347

                     10                     11                     12
                      A                      A                      A
 Frequencies --    180.9040               196.5091               210.4952
 Red. masses --      4.9089                 2.1194                 2.6697
 Frc consts  --      0.0947                 0.0482                 0.0697
 IR Inten    --      0.9241                 2.2689                 0.3659

                     13                     14                     15
                      A                      A                      A
 Frequencies --    250.3987               267.9943               278.5768
 Red. masses --      4.0471                 5.1037                 6.4586
 Frc consts  --      0.1495                 0.2160                 0.2953
 IR Inten    --      0.5850                 0.2752                 1.1198

                     16                     17                     18
                      A                      A                      A
 Frequencies --    285.4178               307.4183               318.8039
 Red. masses --      5.2792                 2.9414                 3.2831
 Frc consts  --      0.2534                 0.1638                 0.1966
 IR Inten    --      1.8338                 0.5015                 6.1858

                     19                     20                     21
                      A                      A                      A
 Frequencies --    345.7569               356.1882               361.9794
 Red. masses --      3.4170                 1.5072                 4.4067
 Frc consts  --      0.2407                 0.1127                 0.3402
 IR Inten    --      3.5670               132.8807                 4.2684

                     22                     23                     24
                      A                      A                      A
 Frequencies --    384.9782               428.4146               443.7087
 Red. masses --      3.0871                 3.6696                 2.8368
 Frc consts  --      0.2696                 0.3968                 0.3291
 IR Inten    --     53.4440                 2.5715                 9.8947

                     25                     26                     27
                      A                      A                      A
 Frequencies --    465.9258               477.2707               508.7422
 Red. masses --      3.2734                 4.8416                 4.4779
 Frc consts  --      0.4187                 0.6498                 0.6828
 IR Inten    --      4.7323                 3.6210                26.5043

                     28                     29                     30
                      A                      A                      A
 Frequencies --    522.7826               536.9604               566.7842
 Red. masses --      4.0251                 3.0536                 3.5513
 Frc consts  --      0.6481                 0.5187                 0.6722
 IR Inten    --     13.3029                56.2782                45.9913

                     31                     32                     33
                      A                      A                      A
 Frequencies --    585.0736               592.0147               616.2778
 Red. masses --      1.6392                 4.3920                 3.5360
 Frc consts  --      0.3306                 0.9069                 0.7913
 IR Inten    --     95.6670                68.2495                15.7743

                     34                     35                     36
                      A                      A                      A
 Frequencies --    632.3993               645.8908               671.5703
 Red. masses --      4.2375                 6.7839                 4.8250
 Frc consts  --      0.9985                 1.6674                 1.2821
 IR Inten    --      9.6531                14.7936               277.7826

                     37                     38                     39
                      A                      A                      A
 Frequencies --    724.6736               757.2012               758.2341
 Red. masses --      3.7909                 5.5886                 4.0150
 Frc consts  --      1.1729                 1.8879                 1.3600
 IR Inten    --     34.1411                 2.0454                 8.4968

                     40                     41                     42
                      A                      A                      A
 Frequencies --    801.4949               811.8517               838.7559
 Red. masses --      4.9716                 4.2213                 1.5625
 Frc consts  --      1.8817                 1.6393                 0.6477
 IR Inten    --     15.9452                18.0558                32.9043

                     43                     44                     45
                      A                      A                      A
 Frequencies --    867.9443               876.7123               893.4802
 Red. masses --      1.4405                 2.6618                 2.4581
 Frc consts  --      0.6393                 1.2054                 1.1561
 IR Inten    --     13.3790                10.8771                75.8535

                     46                     47                     48
                      A                      A                      A
 Frequencies --    918.6553               941.7467               985.5846
 Red. masses --      1.2929                 1.3068                 1.3885
 Frc consts  --      0.6429                 0.6829                 0.7947
 IR Inten    --      4.3050                 0.2449                 1.1226

                     49                     50                     51
                      A                      A                      A
 Frequencies --   1017.7209              1029.0802              1038.2860
 Red. masses --      2.0802                 1.5059                 1.5430
 Frc consts  --      1.2694                 0.9396                 0.9800
 IR Inten    --      7.7859                11.4401                 2.6730

                     52                     53                     54
                      A                      A                      A
 Frequencies --   1050.4448              1062.6241              1078.0751
 Red. masses --      2.1840                 1.4324                 1.5160
 Frc consts  --      1.4199                 0.9530                 1.0381
 IR Inten    --     28.1225                 6.3103                 2.0105

                     55                     56                     57
                      A                      A                      A
 Frequencies --   1084.7080              1086.5261              1124.2780
 Red. masses --      1.5691                 2.1398                 8.5617
 Frc consts  --      1.0878                 1.4884                 6.3762
 IR Inten    --      0.0671                 1.9598               243.3770

                     58                     59                     60
                      A                      A                      A
 Frequencies --   1135.8135              1182.4360              1194.7168
 Red. masses --      1.5150                 3.7259                 3.0710
 Frc consts  --      1.1516                 3.0693                 2.5826
 IR Inten    --     18.2753                 6.9886                 7.2704

                     61                     62                     63
                      A                      A                      A
 Frequencies --   1229.7039              1254.4052              1289.9882
 Red. masses --      1.7135                 1.8255                 3.6796
 Frc consts  --      1.5266                 1.6924                 3.6076
 IR Inten    --      4.7813                 2.0446                27.7838

                     64                     65                     66
                      A                      A                      A
 Frequencies --   1295.0058              1313.8795              1323.5994
 Red. masses --      3.3470                 2.5016                 6.2604
 Frc consts  --      3.3071                 2.5444                 6.4620
 IR Inten    --     10.1328                11.0304                64.3533

                     67                     68                     69
                      A                      A                      A
 Frequencies --   1327.8494              1348.1015              1386.8455
 Red. masses --      1.8526                 1.8685                 4.6883
 Frc consts  --      1.9245                 2.0007                 5.3128
 IR Inten    --     21.8635                27.3054                 3.8364

                     70                     71                     72
                      A                      A                      A
 Frequencies --   1416.3771              1439.5105              1449.4571
 Red. masses --      1.4606                 1.2649                 1.2367
 Frc consts  --      1.7264                 1.5443                 1.5309
 IR Inten    --     44.9471                 6.8870                 0.5217

                     73                     74                     75
                      A                      A                      A
 Frequencies --   1452.2189              1456.8471              1473.2749
 Red. masses --      1.2595                 2.1902                 2.9060
 Frc consts  --      1.5650                 2.7388                 3.7164
 IR Inten    --      3.5950                16.1807                39.1820

                     76                     77                     78
                      A                      A                      A
 Frequencies --   1505.8446              1520.0829              1520.8144
 Red. masses --      1.0454                 1.1051                 1.1609
 Frc consts  --      1.3967                 1.5044                 1.5820
 IR Inten    --      0.1255                 5.8039                 7.7105

                     79                     80                     81
                      A                      A                      A
 Frequencies --   1521.9057              1524.4501              1525.5803
 Red. masses --      1.1171                 1.3335                 1.2071
 Frc consts  --      1.5244                 1.8259                 1.6553
 IR Inten    --     11.6991                 7.1196                39.0188

                     82                     83                     84
                      A                      A                      A
 Frequencies --   1540.5446              1547.6162              1600.8269
 Red. masses --      1.6926                 2.3178                 4.6931
 Frc consts  --      2.3668                 3.2707                 7.0860
 IR Inten    --     16.6906                81.6758                30.5967

                     85                     86                     87
                      A                      A                      A
 Frequencies --   1623.2186              1650.4032              1674.3952
 Red. masses --      5.2884                 5.8515                 2.1755
 Frc consts  --      8.2097                 9.3908                 3.5935
 IR Inten    --     49.3623                25.9557                21.3899

                     88                     89                     90
                      A                      A                      A
 Frequencies --   1688.6904              3037.2539              3039.8656
 Red. masses --      1.9305                 1.0390                 1.0450
 Frc consts  --      3.2435                 5.6470                 5.6896
 IR Inten    --    155.2874                33.8994                23.6656

                     91                     92                     93
                      A                      A                      A
 Frequencies --   3045.2766              3083.4121              3094.8043
 Red. masses --      1.0382                 1.1005                 1.1000
 Frc consts  --      5.6727                 6.1648                 6.2073
 IR Inten    --     28.3045                21.1674                13.7598

                     94                     95                     96
                      A                      A                      A
 Frequencies --   3104.6551              3129.9433              3136.4171
 Red. masses --      1.0913                 1.0993                 1.1006
 Frc consts  --      6.1975                 6.3454                 6.3787
 IR Inten    --      4.8810                18.7505                12.2644

                     97                     98                     99
                      A                      A                      A
 Frequencies --   3136.4607              3158.8939              3177.3170
 Red. masses --      1.1015                 1.0898                 1.0898
 Frc consts  --      6.3842                 6.4072                 6.4820
 IR Inten    --      4.8519                29.3846                13.4339

                    100                    101                    102
                      A                      A                      A
 Frequencies --   3179.9632              3209.5128              3242.9675
 Red. masses --      1.0907                 1.0899                 1.0936
 Frc consts  --      6.4980                 6.6147                 6.7762
 IR Inten    --     25.6043                 1.5518                 0.4775

                    103                    104                    105
                      A                      A                      A
 Frequencies --   3533.9580              3570.3156              3686.8155
 Red. masses --      1.0745                 1.0475                 1.1013
 Frc consts  --      7.9063                 7.8673                 8.8196
 IR Inten    --     17.4173                68.8856                43.8052

 - Thermochemistry -
 -------------------
 Temperature   298.150 Kelvin.  Pressure   1.00000 Atm.
 Atom     1 has atomic number  6 and mass  12.00000

 Molecular mass:   291.10415 amu.
 Principal axes and moments of inertia in atomic units:
                           1         2         3
     Eigenvalues --  3933.053366328.629507893.05622
           X            0.99954   0.02677   0.01413
           Y           -0.02666   0.99961  -0.00780
           Z           -0.01434   0.00742   0.99987
 This molecule is an asymmetric top.
 Rotational symmetry number  1.
 Warning -- assumption of classical behavior for rotation
           may cause significant error
 Rotational temperatures (Kelvin)      0.02202     0.01369     0.01097
 Rotational constants (GHZ):           0.45887     0.28517     0.22865
 Zero-point vibrational energy     784152.8 (Joules/Mol)
                                  187.41701 (Kcal/Mol)
 Warning -- explicit consideration of  33 degrees of freedom as
           vibrations may cause significant error
 Vibrational temperatures:     46.52    59.22    86.67   116.45   161.19
          (Kelvin)            197.62   208.36   223.47   239.35   260.28
                              282.73   302.86   360.27   385.58   400.81
                              410.65   442.31   458.69   497.47   512.48
                              520.81   553.90   616.39   638.40   670.36
                              686.69   731.97   752.17   772.57   815.48
                              841.79   851.78   886.69   909.88   929.29
                              966.24  1042.64  1089.44  1090.93  1153.17
                             1168.07  1206.78  1248.78  1261.39  1285.52
                             1321.74  1354.96  1418.04  1464.27  1480.62
                             1493.86  1511.36  1528.88  1551.11  1560.65
                             1563.27  1617.59  1634.18  1701.26  1718.93
                             1769.27  1804.81  1856.01  1863.22  1890.38
                             1904.36  1910.48  1939.62  1995.36  2037.85
                             2071.13  2085.45  2089.42  2096.08  2119.71
                             2166.57  2187.06  2188.11  2189.68  2193.34
                             2194.97  2216.50  2226.67  2303.23  2335.45
                             2374.56  2409.08  2429.65  4369.93  4373.69
                             4381.47  4436.34  4452.73  4466.91  4503.29
                             4512.60  4512.67  4544.94  4571.45  4575.26
                             4617.77  4665.91  5084.58  5136.89  5304.51

 Zero-point correction=                           0.298668 (Hartree/Particle)
 Thermal correction to Energy=                    0.317883
 Thermal correction to Enthalpy=                  0.318827
 Thermal correction to Gibbs Free Energy=         0.251817
 Sum of electronic and zero-point Energies=          -1256.357871
 Sum of electronic and thermal Energies=             -1256.338656
 Sum of electronic and thermal Enthalpies=           -1256.337712
 Sum of electronic and thermal Free Energies=        -1256.404722

                     E (Thermal)             CV                S
                      KCal/Mol        Cal/Mol-Kelvin    Cal/Mol-Kelvin
 Total                  199.475             74.472            141.034
 Electronic               0.000              0.000              0.000
 Translational            0.889              2.981             42.903
 Rotational               0.889              2.981             33.640
 Vibrational            197.697             68.511             64.490
 Vibration     1          0.594              1.983              5.681
 Vibration     2          0.594              1.981              5.203
 Vibration     3          0.597              1.973              4.449
 Vibration     4          0.600              1.962              3.868
 Vibration     5          0.607              1.939              3.233
 Vibration     6          0.614              1.916              2.840
 Vibration     7          0.616              1.908              2.739
 Vibration     8          0.620              1.897              2.606
 Vibration     9          0.624              1.884              2.476
 Vibration    10          0.630              1.866              2.319
 Vibration    11          0.636              1.845              2.166
 Vibration    12          0.643              1.825              2.039
 Vibration    13          0.663              1.762              1.728
 Vibration    14          0.673              1.732              1.609
 Vibration    15          0.679              1.713              1.542
 Vibration    16          0.683              1.701              1.501
 Vibration    17          0.697              1.660              1.376
 Vibration    18          0.705              1.638              1.316
 Vibration    19          0.724              1.584              1.185
 Vibration    20          0.732              1.563              1.139
 Vibration    21          0.736              1.551              1.114
 Vibration    22          0.754              1.502              1.020
 Vibration    23          0.790              1.408              0.864
 Vibration    24          0.803              1.375              0.815
 Vibration    25          0.823              1.326              0.749
 Vibration    26          0.834              1.300              0.717
 Vibration    27          0.864              1.231              0.637
 Vibration    28          0.878              1.200              0.604
 Vibration    29          0.892              1.168              0.572
 Vibration    30          0.923              1.103              0.510
 Vibration    31          0.942              1.064              0.476
 Vibration    32          0.949              1.049              0.464
 Vibration    33          0.976              0.997              0.422

                           ! Non-Optimized Parameters !
 Normal termination of Gaussian 16 at Mon Dec 14 14:18:09 2020.

 ----------------------------------------------------------------------
 # B3LYP/6-311++G(d,p) empiricaldispersion=gd3bj scf=xqc pop=npa geom=c
 heck
 ----------------------------------------------------------------------

 ---------------------------------------
 CID_63667965_JID_10852_Energie_neutraal
 ---------------------------------------
 Structure from the checkpoint file:  "JID_10852.chk"
 Charge =  0 Multiplicity = 1

 SCF Done:  E(RB3LYP) =  -1256.92021638     A.U. after   17 cycles
 Normal termination of Gaussian 16 at Mon Dec 14 14:26:55 2020.

 ----------------------------------------------------------------------
 # B3LYP/6-311++G(d,p) empiricaldispersion=gd3bj scf=xqc pop=npa geom=c
 heck
 ----------------------------------------------------------------------

 -------------------------------------
 CID_63667965_JID_10852_Energie_kation
 -------------------------------------
 Structure from the checkpoint file:  "JID_10852.chk"
 Charge =  1 Multiplicity = 2

 SCF Done:  E(UB3LYP) =  -1256.63362544     A.U. after   27 cycles
 Normal termination of Gaussian 16 at Mon Dec 14 14:46:14 2020.
 Gaussian 16:  ES64L-G16RevA.03 25-Dec-2016

 ----------------------------------------------------------------------
 # B3LYP/6-311++G(d,p) empiricaldispersion=gd3bj scf=xqc pop=npa geom=c
 heck
 ----------------------------------------------------------------------

 ------------------------------------
 CID_63667965_JID_10852_Energie_anion
 ------------------------------------
 Structure from the checkpoint file:  "JID_10852.chk"
 Charge = -1 Multiplicity = 2

                         Standard orientation:
 ---------------------------------------------------------------------
 Center     Atomic      Atomic             Coordinates (Angstroms)
 Number     Number       Type             X           Y           Z
 ---------------------------------------------------------------------
      1          6           0       -3.803534   -2.167282    0.609707
      2          6           0       -2.766898   -1.074580    0.559751
      3          6           0       -1.624907   -1.169450    1.341237
      4          6           0       -0.613052   -0.184500    1.346943
      5          6           0       -0.802072    0.910232    0.472152
      6          6           0       -1.968052    1.021899   -0.300769
      7          6           0       -2.964313    0.057593   -0.271101
      8          6           0       -4.213399    0.210951   -1.101438
      9         16           0        0.505174    2.052759    0.096653
     10          8           0       -0.048664    3.211383   -0.599350
     11          8           0        1.377250    2.193799    1.268603
     12          7           0        1.448724    1.251308   -1.102835
     13          6           0        2.012181   -0.006278   -0.752726
     14          6           0        1.486624   -1.215117   -1.240730
     15          6           0        2.094551   -2.389372   -0.782194
     16          7           0        3.112882   -2.444427    0.081791
     17          6           0        3.605010   -1.275082    0.512370
     18          6           0        3.102800   -0.038327    0.120056
     19          6           0        0.316905   -1.267077   -2.188053
     20          7           0        0.446890   -0.310426    2.209039
     21          1           0       -3.970201   -2.603848   -0.382856
     22          1           0       -3.504241   -2.971251    1.287428
     23          1           0       -4.772253   -1.780499    0.949426
     24          1           0       -1.500675   -2.026747    1.998682
     25          1           0       -2.074051    1.893269   -0.939215
     26          1           0       -4.345473   -0.624917   -1.800481
     27          1           0       -5.115536    0.245719   -0.477249
     28          1           0       -4.180870    1.133913   -1.687416
     29          1           0        0.896498    1.230357   -1.957546
     30          1           0        1.712649   -3.349019   -1.129672
     31          1           0        4.445311   -1.330683    1.201506
     32          1           0        3.523796    0.889464    0.487845
     33          1           0        0.077561   -2.303892   -2.440476
     34          1           0       -0.579426   -0.813805   -1.751153
     35          1           0        0.528652   -0.746518   -3.131756
     36          1           0        0.718272   -1.246968    2.470447
     37          1           0        1.197970    0.362977    2.134816
 ---------------------------------------------------------------------

 SCF Done:  E(UB3LYP) =  -1256.92790968     A.U. after   32 cycles

 The electronic state is 2-A.
 Alpha  occ. eigenvalues --  -88.92421 -18.99256 -18.99098 -14.21755 -14.19437
 Alpha  occ. eigenvalues --  -14.16526 -10.10033 -10.08126 -10.07257 -10.07187
 Alpha  occ. eigenvalues --  -10.06858 -10.06755 -10.06208 -10.05989 -10.05864
 Alpha  occ. eigenvalues --  -10.05719 -10.05584 -10.05102 -10.04548 -10.04493
 Alpha  occ. eigenvalues --   -7.98716  -5.95001  -5.94976  -5.94774  -0.99263
 Alpha  occ. eigenvalues --   -0.88733  -0.81951  -0.80442  -0.79717  -0.73529
 Alpha  occ. eigenvalues --   -0.67741  -0.66685  -0.64803  -0.64418  -0.59823
 Alpha  occ. eigenvalues --   -0.57974  -0.57087  -0.53021  -0.49765  -0.49021
 Alpha  occ. eigenvalues --   -0.48461  -0.46076  -0.41808  -0.41384  -0.40823
 Alpha  occ. eigenvalues --   -0.38169  -0.36859  -0.36172  -0.34771  -0.33683
 Alpha  occ. eigenvalues --   -0.33469  -0.32755  -0.32243  -0.31599  -0.31524
 Alpha  occ. eigenvalues --   -0.30836  -0.30192  -0.29319  -0.28691  -0.27957
 Alpha  occ. eigenvalues --   -0.27830  -0.26682  -0.26091  -0.25208  -0.24291
 Alpha  occ. eigenvalues --   -0.23244  -0.22487  -0.20494  -0.19787  -0.19581
 Alpha  occ. eigenvalues --   -0.18838  -0.18167  -0.14325  -0.13598  -0.13043
 Alpha  occ. eigenvalues --   -0.12361  -0.08866   0.04408
 Alpha virt. eigenvalues --    0.06745   0.08092   0.08453   0.08663   0.09446
 Alpha virt. eigenvalues --    0.10105   0.10379   0.10631   0.10963   0.11365
 Alpha virt. eigenvalues --    0.11561   0.12368   0.12650   0.12957   0.13372

  Beta  occ. eigenvalues --  -88.92335 -18.99214 -18.99060 -14.21712 -14.19404
  Beta  occ. eigenvalues --  -14.16189 -10.09939 -10.07850 -10.07246 -10.07164
  Beta  occ. eigenvalues --  -10.06853 -10.06778 -10.06062 -10.05995 -10.05805
  Beta  occ. eigenvalues --  -10.05801 -10.05297 -10.04949 -10.04528 -10.04478
  Beta  occ. eigenvalues --   -7.98626  -5.94933  -5.94803  -5.94682  -0.99088
  Beta  occ. eigenvalues --   -0.88652  -0.81577  -0.80287  -0.79330  -0.73290
  Beta  occ. eigenvalues --   -0.67421  -0.66376  -0.64686  -0.64187  -0.59590
  Beta  occ. eigenvalues --   -0.57848  -0.56867  -0.52619  -0.49476  -0.48882
  Beta  occ. eigenvalues --   -0.48218  -0.45875  -0.41580  -0.41233  -0.40742
  Beta  occ. eigenvalues --   -0.37993  -0.36635  -0.36006  -0.34657  -0.33563
  Beta  occ. eigenvalues --   -0.33275  -0.32627  -0.32159  -0.31481  -0.31342
  Beta  occ. eigenvalues --   -0.30711  -0.30105  -0.29266  -0.28660  -0.27870
  Beta  occ. eigenvalues --   -0.27733  -0.26096  -0.25422  -0.25070  -0.24142
  Beta  occ. eigenvalues --   -0.23125  -0.22151  -0.20252  -0.19365  -0.19149
  Beta  occ. eigenvalues --   -0.18621  -0.17803  -0.13225  -0.12916  -0.12637
  Beta  occ. eigenvalues --   -0.11567  -0.08400
  Beta virt. eigenvalues --    0.06692   0.08356   0.08481   0.09211   0.09375
  Beta virt. eigenvalues --    0.09790   0.10121   0.10465   0.10983   0.11028
  Beta virt. eigenvalues --    0.11405   0.11681   0.12382   0.12665   0.12927

 Mulliken charges and spin densities:
               1          2
     1  C   -0.526775  -0.025987
     2  C    0.319499   0.184850
     3  C   -0.229496  -0.001952
     4  C   -0.389827   0.160932
     5  C    0.011855   0.042990
     6  C   -0.144564   0.153716
     7  C   -0.264023  -0.080972
     8  C   -0.561376  -0.007523
     9  S    0.127909   0.020243
    10  O   -0.114077   0.010501
    11  O   -0.197103   0.015512
    12  N   -0.209427   0.037441
    13  C   -0.257348   0.158482
    14  C    0.796758   0.053318
    15  C   -0.455492   0.024039
    16  N   -0.135855   0.153039
    17  C   -0.475017   0.012913
    18  C   -0.010616   0.062693
    19  C   -0.826650  -0.056602
    20  N   -0.262884   0.016029
    21  H    0.127817   0.015420
    22  H    0.122317   0.002118
    23  H    0.118282   0.021123
    24  H    0.127434   0.004520
    25  H    0.232014  -0.002317
    26  H    0.130743  -0.002299
    27  H    0.135334  -0.002005
    28  H    0.129739  -0.000692
    29  H    0.224459   0.011653
    30  H    0.123522   0.004901
    31  H    0.128266  -0.005154
    32  H    0.193488   0.006384
    33  H    0.113621   0.003414
    34  H    0.256460   0.013237
    35  H    0.145023  -0.002706
    36  H    0.218074  -0.000848
    37  H    0.277915  -0.000411
 Sum of Mulliken charges =  -1.00000   1.00000

 Dipole moment (field-independent basis, Debye):
    X=             -3.9773    Y=             -2.5392    Z=             -1.5456  Tot=              4.9654
 Quadrupole moment (field-independent basis, Debye-Ang):
   XX=           -164.2991   YY=           -166.9058   ZZ=           -137.4624
   XY=              8.9142   XZ=              3.6422   YZ=             -2.5231

 Summary of Natural Population Analysis:

                                       Natural Population
                Natural  -----------------------------------------------
    Atom  No    Charge         Core      Valence    Rydberg      Total
 -----------------------------------------------------------------------
      C    1   -0.28867      0.99967     2.28515    0.00385     3.28867
      C    2    0.04269      0.99950     1.94896    0.00885     2.95731
      C    3   -0.12362      0.99949     2.11615    0.00798     3.12362
      C    4    0.09188      0.99952     1.89021    0.01840     2.90812
      C    5   -0.10963      0.99933     2.09600    0.01430     3.10963
      C    6   -0.07902      0.99953     2.06274    0.01675     3.07902
      C    7   -0.06294      0.99947     2.05453    0.00894     3.06294
      C    8   -0.28846      0.99965     2.28335    0.00546     3.28846
      S    9    1.13024      4.99921     1.77415    0.09640     6.86976
      O   10   -0.46829      0.99990     3.46280    0.00559     4.46829
      O   11   -0.47293      0.99990     3.46716    0.00587     4.47293
      N   12   -0.41994      0.99970     2.90574    0.01450     3.91994
      C   13    0.11579      0.99942     1.86951    0.01528     2.88421
      C   14   -0.03897      0.99946     2.02670    0.01280     3.03897
      C   15    0.02379      0.99955     1.96274    0.01392     2.97621
      N   16   -0.20225      0.99971     2.68960    0.01294     3.70225
      C   17    0.01699      0.99960     1.96887    0.01453     2.98301
      C   18   -0.12308      0.99951     2.11516    0.00841     3.12308
      C   19   -0.29938      0.99964     2.29446    0.00528     3.29938
      N   20   -0.39284      0.99970     2.88387    0.00928     3.89284
      H   21    0.09907      0.00000     0.39972    0.00122     0.40093
      H   22    0.09974      0.00000     0.39970    0.00056     0.40026
      H   23    0.09869      0.00000     0.40004    0.00127     0.40131
      H   24    0.09011      0.00000     0.40819    0.00170     0.40989
      H   25    0.10642      0.00000     0.39208    0.00150     0.39358
      H   26    0.09502      0.00000     0.40374    0.00125     0.40498
      H   27    0.09490      0.00000     0.40384    0.00126     0.40510
      H   28    0.09981      0.00000     0.39927    0.00092     0.40019
      H   29    0.19270      0.00000     0.30538    0.00191     0.30730
      H   30    0.07974      0.00000     0.41869    0.00157     0.42026
      H   31    0.08162      0.00000     0.41708    0.00130     0.41838
      H   32    0.10970      0.00000     0.38920    0.00110     0.39030
      H   33    0.10005      0.00000     0.39897    0.00098     0.39995
      H   34    0.11577      0.00000     0.38277    0.00146     0.38423
      H   35    0.09496      0.00000     0.40391    0.00113     0.40504
      H   36    0.18555      0.00000     0.31296    0.00149     0.31445
      H   37    0.20599      0.00000     0.29251    0.00150     0.29401
 =======================================================================
   * Total *    0.00118     23.99145    52.68591    0.32146    76.99882

 Normal termination of Gaussian 16 at Mon Dec 14 15:09:03 2020.
