 Gaussian 16, Revision A.03,

 -----------------------------------------------------------
 # opt freq B3LYP/6-31G(d) empiricaldispersion=gd3bj scf=xqc
 -----------------------------------------------------------

 -------------------------------
 CID_150677565_JID_4831_neutraal
 -------------------------------
 Symbolic Z-matrix:
 Charge =  0 Multiplicity = 1

 SCF Done:  E(RB3LYP) =  -633.407599946     A.U. after   15 cycles
 SCF Done:  E(RB3LYP) =  -633.422313666     A.U. after   13 cycles
 SCF Done:  E(RB3LYP) =  -633.421205804     A.U. after   13 cycles
 SCF Done:  E(RB3LYP) =  -633.417530785     A.U. after   14 cycles
 SCF Done:  E(RB3LYP) =  -633.418689065     A.U. after   14 cycles
 SCF Done:  E(RB3LYP) =  -633.422940153     A.U. after   10 cycles
 SCF Done:  E(RB3LYP) =  -633.426902354     A.U. after   13 cycles
 SCF Done:  E(RB3LYP) =  -633.428984303     A.U. after   13 cycles
 SCF Done:  E(RB3LYP) =  -633.430743405     A.U. after   13 cycles
 SCF Done:  E(RB3LYP) =  -633.432232686     A.U. after   12 cycles
 SCF Done:  E(RB3LYP) =  -633.434206531     A.U. after    9 cycles
 SCF Done:  E(RB3LYP) =  -633.434207343     A.U. after    9 cycles
 SCF Done:  E(RB3LYP) =  -633.434208581     A.U. after    9 cycles
 SCF Done:  E(RB3LYP) =  -633.434208985     A.U. after    8 cycles
 SCF Done:  E(RB3LYP) =  -633.434209064     A.U. after    7 cycles
 Optimization completed.
    -- Stationary point found.
 Normal termination of Gaussian 16 at Thu Dec 10 11:09:06 2020.

 --------------------------------------------------------------------
 #N Geom=AllCheck Guess=TCheck SCRF=Check GenChk RB3LYP/6-31G(d) Freq
 --------------------------------------------------------------------

 Structure from the checkpoint file:  "JID_4831.chk"
 -------------------------------
 CID_150677565_JID_4831_neutraal
 -------------------------------
 Charge =  0 Multiplicity = 1

 SCF Done:  E(RB3LYP) =  -633.434209064     A.U. after    1 cycles

  Exact polarizability: 143.120   8.053 115.809   5.976  -2.132  93.224
 Approx polarizability: 206.152  21.207 186.860  15.529  -0.904 139.451

                      1                      2                      3
                      A                      A                      A
 Frequencies --     22.9755                86.5773                95.7130
 Red. masses --      5.9512                 3.4059                 5.7459
 Frc consts  --      0.0019                 0.0150                 0.0310
 IR Inten    --      1.0309                 0.1190                 4.7906

                      4                      5                      6
                      A                      A                      A
 Frequencies --    121.9298               128.9263               201.5123
 Red. masses --      2.8986                 2.2660                 1.7364
 Frc consts  --      0.0254                 0.0222                 0.0415
 IR Inten    --      0.2431                 0.1123                 0.4039

                      7                      8                      9
                      A                      A                      A
 Frequencies --    226.3804               246.3281               260.8841
 Red. masses --      1.7041                 3.1972                 2.0330
 Frc consts  --      0.0515                 0.1143                 0.0815
 IR Inten    --      0.9993                 2.8924                 0.7494

                     10                     11                     12
                      A                      A                      A
 Frequencies --    290.6964               353.9506               388.1260
 Red. masses --      2.2782                 3.4903                 3.1335
 Frc consts  --      0.1134                 0.2576                 0.2781
 IR Inten    --      6.5316                 1.5384                 6.0047

                     13                     14                     15
                      A                      A                      A
 Frequencies --    427.1922               439.1663               483.0977
 Red. masses --      3.3304                 3.0586                 2.1597
 Frc consts  --      0.3581                 0.3476                 0.2970
 IR Inten    --     12.3229                 4.5398                 0.3892

                     16                     17                     18
                      A                      A                      A
 Frequencies --    509.3981               538.5234               562.8190
 Red. masses --      3.0537                 2.8692                 2.5256
 Frc consts  --      0.4669                 0.4902                 0.4714
 IR Inten    --      8.6051                 5.1327                 1.8436

                     19                     20                     21
                      A                      A                      A
 Frequencies --    613.3477               664.8855               715.1526
 Red. masses --      3.9257                 4.5584                 3.5070
 Frc consts  --      0.8701                 1.1873                 1.0568
 IR Inten    --     19.6169                18.8020                 8.0725

                     22                     23                     24
                      A                      A                      A
 Frequencies --    729.3767               746.2400               786.0180
 Red. masses --      4.0766                 1.8134                 3.5642
 Frc consts  --      1.2778                 0.5950                 1.2974
 IR Inten    --      2.8256                27.4662                 8.2917

                     25                     26                     27
                      A                      A                      A
 Frequencies --    818.7372               830.6887               835.8982
 Red. masses --      2.8335                 2.1956                 1.9410
 Frc consts  --      1.1191                 0.8927                 0.7991
 IR Inten    --      1.7835                21.2267                55.6894

                     28                     29                     30
                      A                      A                      A
 Frequencies --    875.5956               903.7387               927.8331
 Red. masses --      2.4025                 2.6879                 2.3446
 Frc consts  --      1.0852                 1.2934                 1.1892
 IR Inten    --     14.7767                16.2346                 9.9737

                     31                     32                     33
                      A                      A                      A
 Frequencies --    930.9489               945.5175               959.3137
 Red. masses --      2.1258                 1.6336                 2.0070
 Frc consts  --      1.0855                 0.8605                 1.0882
 IR Inten    --      6.2562                 1.1874                 4.1532

                     34                     35                     36
                      A                      A                      A
 Frequencies --    977.7312               996.7356              1001.3137
 Red. masses --      1.9646                 1.9677                 1.8676
 Frc consts  --      1.1066                 1.1518                 1.1033
 IR Inten    --      5.7075                 2.9066                 1.2895

                     37                     38                     39
                      A                      A                      A
 Frequencies --   1046.6877              1053.9918              1067.8688
 Red. masses --      1.5782                 1.4158                 1.6739
 Frc consts  --      1.0187                 0.9267                 1.1246
 IR Inten    --     19.6150                 1.8293                 7.0274

                     40                     41                     42
                      A                      A                      A
 Frequencies --   1104.4026              1128.3228              1142.8086
 Red. masses --      1.5186                 1.4081                 1.6722
 Frc consts  --      1.0913                 1.0562                 1.2867
 IR Inten    --      1.6107                 5.0289                16.0505

                     43                     44                     45
                      A                      A                      A
 Frequencies --   1155.3128              1173.2381              1212.9284
 Red. masses --      1.6624                 1.3636                 2.1799
 Frc consts  --      1.3073                 1.1059                 1.8895
 IR Inten    --     10.7206                30.1082                15.7063

                     46                     47                     48
                      A                      A                      A
 Frequencies --   1228.1067              1267.6019              1293.1233
 Red. masses --      1.8954                 1.5786                 1.8501
 Frc consts  --      1.6843                 1.4945                 1.8228
 IR Inten    --    108.9708                54.3622               122.8989

                     49                     50                     51
                      A                      A                      A
 Frequencies --   1305.9208              1308.5592              1327.6481
 Red. masses --      1.3924                 1.7144                 3.3156
 Frc consts  --      1.3991                 1.7296                 3.4434
 IR Inten    --     27.5178               102.6830               134.6942

                     52                     53                     54
                      A                      A                      A
 Frequencies --   1338.8208              1348.9592              1382.2671
 Red. masses --      1.7572                 1.8267                 1.7013
 Frc consts  --      1.8558                 1.9585                 1.9152
 IR Inten    --     48.4409                25.8444                13.1173

                     55                     56                     57
                      A                      A                      A
 Frequencies --   1427.2114              1439.0547              1472.8178
 Red. masses --      1.2745                 1.2114                 1.4825
 Frc consts  --      1.5296                 1.4781                 1.8947
 IR Inten    --     56.5956                11.7882                12.1845

                     58                     59                     60
                      A                      A                      A
 Frequencies --   1506.0146              1517.1447              1522.5620
 Red. masses --      1.0555                 1.0800                 1.0836
 Frc consts  --      1.4105                 1.4647                 1.4801
 IR Inten    --      2.3642                10.4437                 4.2551

                     61                     62                     63
                      A                      A                      A
 Frequencies --   1529.9671              1537.7738              1548.6277
 Red. masses --      1.0611                 1.0988                 1.0537
 Frc consts  --      1.4634                 1.5309                 1.4889
 IR Inten    --      1.7683                 2.8873                 2.5218

                     64                     65                     66
                      A                      A                      A
 Frequencies --   1657.9729              1769.1236              1789.0360
 Red. masses --      5.5797                 9.9547                 7.0910
 Frc consts  --      9.0369                18.3568                13.3721
 IR Inten    --      0.5288               172.9131               331.2933

                     67                     68                     69
                      A                      A                      A
 Frequencies --   3070.0379              3075.3777              3080.7481
 Red. masses --      1.0429                 1.0501                 1.0590
 Frc consts  --      5.7912                 5.8515                 5.9216
 IR Inten    --     14.8118                 2.1885                26.6118

                     70                     71                     72
                      A                      A                      A
 Frequencies --   3093.3019              3128.6897              3129.8853
 Red. masses --      1.0642                 1.0899                 1.0995
 Frc consts  --      5.9998                 6.2858                 6.3458
 IR Inten    --     28.4610                33.0987                13.0177

                     73                     74                     75
                      A                      A                      A
 Frequencies --   3135.7938              3153.1152              3157.3075
 Red. masses --      1.1070                 1.0906                 1.1010
 Frc consts  --      6.4137                 6.3884                 6.4664
 IR Inten    --     31.0009                 2.9546                 6.0272

                     76                     77                     78
                      A                      A                      A
 Frequencies --   3168.3761              3187.9163              3206.6637
 Red. masses --      1.0873                 1.0950                 1.0860
 Frc consts  --      6.4312                 6.5567                 6.5796
 IR Inten    --     34.5017                23.0925                10.0670

                     79                     80                     81
                      A                      A                      A
 Frequencies --   3230.5567              3231.2392              3541.1876
 Red. masses --      1.1042                 1.0976                 1.0745
 Frc consts  --      6.7896                 6.7519                 7.9388
 IR Inten    --     10.3682                10.7267                39.3834

 - Thermochemistry -
 -------------------
 Temperature   298.150 Kelvin.  Pressure   1.00000 Atm.
 Atom     1 has atomic number  6 and mass  12.00000

 Molecular mass:   193.11028 amu.
 Principal axes and moments of inertia in atomic units:
                           1         2         3
     Eigenvalues --  1438.916023489.636093965.92554
           X            0.99984   0.01658  -0.00641
           Y           -0.01680   0.99921  -0.03600
           Z            0.00580   0.03610   0.99933
 This molecule is an asymmetric top.
 Rotational symmetry number  1.
 Warning -- assumption of classical behavior for rotation
           may cause significant error
 Rotational temperatures (Kelvin)      0.06019     0.02482     0.02184
 Rotational constants (GHZ):           1.25424     0.51717     0.45506
 Zero-point vibrational energy     650991.9 (Joules/Mol)
                                  155.59079 (Kcal/Mol)
 Warning -- explicit consideration of  19 degrees of freedom as
           vibrations may cause significant error
 Vibrational temperatures:     33.06   124.57   137.71   175.43   185.50
          (Kelvin)            289.93   325.71   354.41   375.35   418.25
                              509.26   558.43   614.63   631.86   695.07
                              732.91   774.82   809.77   882.47   956.62
                             1028.95  1049.41  1073.67  1130.90  1177.98
                             1195.18  1202.67  1259.79  1300.28  1334.94
                             1339.43  1360.39  1380.24  1406.74  1434.08
                             1440.67  1505.95  1516.46  1536.43  1588.99
                             1623.40  1644.25  1662.24  1688.03  1745.13
                             1766.97  1823.80  1860.52  1878.93  1882.72
                             1910.19  1926.26  1940.85  1988.77  2053.44
                             2070.48  2119.06  2166.82  2182.83  2190.63
                             2201.28  2212.51  2228.13  2385.45  2545.37
                             2574.02  4417.10  4424.78  4432.51  4450.57
                             4501.49  4503.21  4511.71  4536.63  4542.66
                             4558.59  4586.70  4613.67  4648.05  4649.03
                             5094.98

 Zero-point correction=                           0.247950 (Hartree/Particle)
 Thermal correction to Energy=                    0.260744
 Thermal correction to Enthalpy=                  0.261688
 Thermal correction to Gibbs Free Energy=         0.208373
 Sum of electronic and zero-point Energies=           -633.186259
 Sum of electronic and thermal Energies=              -633.173465
 Sum of electronic and thermal Enthalpies=            -633.172521
 Sum of electronic and thermal Free Energies=         -633.225836

                     E (Thermal)             CV                S
                      KCal/Mol        Cal/Mol-Kelvin    Cal/Mol-Kelvin
 Total                  163.619             50.359            112.211
 Electronic               0.000              0.000              0.000
 Translational            0.889              2.981             41.680
 Rotational               0.889              2.981             31.366
 Vibrational            161.842             44.398             39.166
 Vibration     1          0.593              1.985              6.359
 Vibration     2          0.601              1.959              3.736
 Vibration     3          0.603              1.952              3.540
 Vibration     4          0.609              1.931              3.070
 Vibration     5          0.611              1.924              2.962
 Vibration     6          0.638              1.838              2.119
 Vibration     7          0.650              1.801              1.907
 Vibration     8          0.661              1.769              1.757
 Vibration     9          0.669              1.744              1.656
 Vibration    10          0.687              1.691              1.470
 Vibration    11          0.730              1.567              1.149
 Vibration    12          0.756              1.496              1.007
 Vibration    13          0.789              1.411              0.868
 Vibration    14          0.799              1.385              0.829
 Vibration    15          0.839              1.288              0.702
 Vibration    16          0.865              1.229              0.635
 Vibration    17          0.894              1.165              0.568
 Vibration    18          0.919              1.112              0.518
 Vibration    19          0.973              1.004              0.427

 Optimization completed.
    -- Stationary point found.
 Normal termination of Gaussian 16 at Thu Dec 10 11:18:24 2020.

 ----------------------------------------------------------------------
 # B3LYP/6-311++G(d,p) empiricaldispersion=gd3bj scf=xqc pop=npa geom=c
 heck
 ----------------------------------------------------------------------

 ---------------------------------------
 CID_150677565_JID_4831_Energie_neutraal
 ---------------------------------------
 Structure from the checkpoint file:  "JID_4831.chk"
 Charge =  0 Multiplicity = 1

 SCF Done:  E(RB3LYP) =  -633.614990521     A.U. after   15 cycles
 Normal termination of Gaussian 16 at Thu Dec 10 11:21:57 2020.

 ----------------------------------------------------------------------
 # B3LYP/6-311++G(d,p) empiricaldispersion=gd3bj scf=xqc pop=npa geom=c
 heck
 ----------------------------------------------------------------------

 -------------------------------------
 CID_150677565_JID_4831_Energie_kation
 -------------------------------------
 Structure from the checkpoint file:  "JID_4831.chk"
 Charge =  1 Multiplicity = 2

 SCF Done:  E(UB3LYP) =  -633.291674304     A.U. after   24 cycles
 Normal termination of Gaussian 16 at Thu Dec 10 11:29:37 2020.
 Gaussian 16:  ES64L-G16RevA.03 25-Dec-2016

 ----------------------------------------------------------------------
 # B3LYP/6-311++G(d,p) empiricaldispersion=gd3bj scf=xqc pop=npa geom=c
 heck
 ----------------------------------------------------------------------

 ------------------------------------
 CID_150677565_JID_4831_Energie_anion
 ------------------------------------
 Structure from the checkpoint file:  "JID_4831.chk"
 Charge = -1 Multiplicity = 2

                         Standard orientation:
 ---------------------------------------------------------------------
 Center     Atomic      Atomic             Coordinates (Angstroms)
 Number     Number       Type             X           Y           Z
 ---------------------------------------------------------------------
      1          6           0       -2.344199   -1.712873    0.253357
      2          6           0       -2.739531   -0.341840   -0.250137
      3          8           0       -3.846608   -0.170093   -0.731983
      4          7           0       -1.926078    0.798092   -0.122816
      5          6           0       -0.619342    1.236380    0.186037
      6          8           0       -0.443014    2.441168    0.100278
      7          6           0        0.493969    0.258905    0.568732
      8          6           0        1.868364    1.011126    0.666381
      9          6           0        2.723487    0.393074   -0.482099
     10          6           0        1.633701    0.206262   -1.557434
     11          6           0        0.773604   -0.716814   -0.663856
     12          6           0        1.822737   -1.719625   -0.213013
     13          6           0        2.983412   -1.058994   -0.104846
     14          6           0        0.170505   -0.388423    1.927651
     15          1           0       -2.684595   -1.807441    1.291231
     16          1           0       -1.283018   -1.939471    0.223600
     17          1           0       -2.897451   -2.440755   -0.342606
     18          1           0       -2.465643    1.606392   -0.423957
     19          1           0        1.720461    2.081428    0.518351
     20          1           0        2.330289    0.858646    1.645379
     21          1           0        3.599080    0.985939   -0.753723
     22          1           0        1.992844   -0.306241   -2.453985
     23          1           0        1.134274    1.140042   -1.836292
     24          1           0       -0.115641   -1.128413   -1.136856
     25          1           0        1.620180   -2.748122    0.066157
     26          1           0        3.923638   -1.441325    0.279014
     27          1           0        0.223195    0.376488    2.709837
     28          1           0       -0.817428   -0.843070    1.985954
     29          1           0        0.919085   -1.152390    2.156608
 ---------------------------------------------------------------------

 SCF Done:  E(UB3LYP) =  -633.610225223     A.U. after   33 cycles
 SCF Done:  E(UB3LYP) =  -633.610225223     a.u. after    1 cycles

 The electronic state is 2-A.
 Alpha  occ. eigenvalues --  -18.97357 -18.97215 -14.23090 -10.15612 -10.15153
 Alpha  occ. eigenvalues --  -10.09008 -10.07966 -10.07642 -10.06514 -10.06499
 Alpha  occ. eigenvalues --  -10.06489 -10.06404 -10.05840 -10.05506  -0.93758
 Alpha  occ. eigenvalues --   -0.92117  -0.79037  -0.78351  -0.67499  -0.63465
 Alpha  occ. eigenvalues --   -0.62578  -0.60893  -0.55713  -0.53513  -0.48987
 Alpha  occ. eigenvalues --   -0.46452  -0.43529  -0.41872  -0.40803  -0.37874
 Alpha  occ. eigenvalues --   -0.36953  -0.35603  -0.34493  -0.32643  -0.31395
 Alpha  occ. eigenvalues --   -0.30646  -0.30145  -0.29290  -0.29029  -0.28374
 Alpha  occ. eigenvalues --   -0.26940  -0.25537  -0.24930  -0.24702  -0.24080
 Alpha  occ. eigenvalues --   -0.22430  -0.22168  -0.20663  -0.16644  -0.15943
 Alpha  occ. eigenvalues --   -0.14474  -0.13237   0.04501
 Alpha virt. eigenvalues --    0.06727   0.07641   0.08484   0.08670   0.09495
 Alpha virt. eigenvalues --    0.09988   0.10204   0.10754   0.11234   0.11874
 Alpha virt. eigenvalues --    0.12748   0.13159   0.13286   0.14395   0.14456

  Beta  occ. eigenvalues --  -18.97122 -18.97003 -14.23179 -10.15377 -10.14902
  Beta  occ. eigenvalues --  -10.09027 -10.07953 -10.07637 -10.06510 -10.06489
  Beta  occ. eigenvalues --  -10.06469 -10.06383 -10.05837 -10.05466  -0.93380
  Beta  occ. eigenvalues --   -0.91688  -0.78931  -0.78319  -0.67420  -0.63316
  Beta  occ. eigenvalues --   -0.62513  -0.60847  -0.55649  -0.53109  -0.48807
  Beta  occ. eigenvalues --   -0.46421  -0.43435  -0.41801  -0.40717  -0.37720
  Beta  occ. eigenvalues --   -0.36831  -0.35448  -0.33954  -0.32402  -0.31292
  Beta  occ. eigenvalues --   -0.30321  -0.29971  -0.29210  -0.28710  -0.28277
  Beta  occ. eigenvalues --   -0.26743  -0.25450  -0.24801  -0.24222  -0.23755
  Beta  occ. eigenvalues --   -0.22259  -0.22108  -0.20614  -0.16459  -0.15362
  Beta  occ. eigenvalues --   -0.14333  -0.13075
  Beta virt. eigenvalues --    0.06995   0.08133   0.08688   0.08975   0.09061
  Beta virt. eigenvalues --    0.10057   0.10387   0.10781   0.11037   0.11350
  Beta virt. eigenvalues --    0.12095   0.12886   0.13293   0.13385   0.14581

 Mulliken charges and spin densities:
               1          2
     1  C    0.315364  -0.701343
     2  C   -0.160839   0.288154
     3  O   -0.374022   0.085454
     4  N   -0.280173  -0.023676
     5  C   -0.279869   0.036393
     6  O   -0.336323   0.087200
     7  C    0.500384   0.376394
     8  C   -0.771809   0.023247
     9  C   -0.165321   0.579005
    10  C   -0.273165  -0.605003
    11  C    0.644576   0.000434
    12  C   -0.814213   0.174410
    13  C    1.055420  -1.412247
    14  C    0.232045  -0.998421
    15  H   -0.288040   0.490191
    16  H    0.081347   0.067663
    17  H    0.148003   0.022023
    18  H    0.279263   0.039844
    19  H    0.220249   0.002578
    20  H    0.052067   0.081041
    21  H   -0.133127   0.362162
    22  H   -0.053365   0.214692
    23  H    0.235046  -0.060477
    24  H    0.351009  -0.079588
    25  H   -0.539549   0.687943
    26  H   -0.472511   0.624577
    27  H    0.015588   0.156349
    28  H   -0.062385   0.162109
    29  H   -0.125648   0.318895
 Sum of Mulliken charges =  -1.00000   1.00000

 Dipole moment (field-independent basis, Debye):
    X=              1.4978    Y=              1.6547    Z=             -1.4008  Tot=              2.6351
 Quadrupole moment (field-independent basis, Debye-Ang):
   XX=           -149.0864   YY=           -123.0039   ZZ=           -110.3006
   XY=              6.9704   XZ=             -1.1771   YZ=              6.7627

 Summary of Natural Population Analysis:

                                       Natural Population
                Natural  -----------------------------------------------
    Atom  No    Charge         Core      Valence    Rydberg      Total
 -----------------------------------------------------------------------
      C    1   -0.33575      0.99962     2.33079    0.00534     3.33575
      C    2    0.37469      0.99971     1.60426    0.02133     2.62531
      O    3   -0.29948      0.99988     3.29359    0.00602     4.29948
      N    4   -0.34647      0.99964     2.83783    0.00899     3.84647
      C    5    0.38886      0.99959     1.58752    0.02403     2.61114
      O    6   -0.29687      0.99988     3.29160    0.00539     4.29687
      C    7   -0.07147      0.99953     2.05946    0.01248     3.07147
      C    8   -0.18359      0.99960     2.17418    0.00981     3.18359
      C    9   -0.13015      0.99960     2.11784    0.01271     3.13015
      C   10   -0.17920      0.99963     2.17162    0.00795     3.17920
      C   11   -0.12394      0.99957     2.11211    0.01226     3.12394
      C   12   -0.10161      0.99952     2.09008    0.01202     3.10161
      C   13   -0.08633      0.99952     2.07581    0.01100     3.08633
      C   14   -0.28445      0.99962     2.27744    0.00739     3.28445
      H   15    0.11679      0.00000     0.38109    0.00212     0.38321
      H   16    0.10436      0.00000     0.39412    0.00152     0.39564
      H   17    0.11099      0.00000     0.38821    0.00080     0.38901
      H   18    0.20025      0.00000     0.29672    0.00303     0.29975
      H   19    0.11813      0.00000     0.38071    0.00115     0.38187
      H   20    0.09649      0.00000     0.40256    0.00095     0.40351
      H   21    0.10164      0.00000     0.39746    0.00089     0.39836
      H   22    0.10027      0.00000     0.39880    0.00093     0.39973
      H   23    0.10397      0.00000     0.39500    0.00103     0.39603
      H   24    0.10699      0.00000     0.39132    0.00169     0.39301
      H   25    0.10434      0.00000     0.39414    0.00152     0.39566
      H   26    0.10131      0.00000     0.39740    0.00129     0.39869
      H   27    0.10057      0.00000     0.39851    0.00092     0.39943
      H   28    0.10267      0.00000     0.39599    0.00134     0.39733
      H   29    0.10697      0.00000     0.39143    0.00159     0.39303
 =======================================================================
   * Total *    0.00000     13.99489    37.82761    0.17751    52.00000

 Normal termination of Gaussian 16 at Thu Dec 10 11:40:25 2020.
