 Gaussian 16, Revision A.03,

 -----------------------------------------------------------
 # opt freq B3LYP/6-31G(d) empiricaldispersion=gd3bj scf=xqc
 -----------------------------------------------------------

 -------------------------------
 CID_150704913_JID_4070_neutraal
 -------------------------------
 Symbolic Z-matrix:
 Charge =  0 Multiplicity = 1

 SCF Done:  E(RB3LYP) =  -728.758606025     A.U. after   14 cycles
 SCF Done:  E(RB3LYP) =  -728.761544205     A.U. after   12 cycles
 SCF Done:  E(RB3LYP) =  -728.761683377     A.U. after   12 cycles
 SCF Done:  E(RB3LYP) =  -728.761924925     A.U. after   12 cycles
 SCF Done:  E(RB3LYP) =  -728.762845964     A.U. after   12 cycles
 SCF Done:  E(RB3LYP) =  -728.762778560     A.U. after   12 cycles
 SCF Done:  E(RB3LYP) =  -728.763524870     A.U. after   12 cycles
 SCF Done:  E(RB3LYP) =  -728.763900084     A.U. after   14 cycles
 SCF Done:  E(RB3LYP) =  -728.764290789     A.U. after   12 cycles
 SCF Done:  E(RB3LYP) =  -728.764518940     A.U. after   11 cycles
 SCF Done:  E(RB3LYP) =  -728.764950133     A.U. after    9 cycles
 SCF Done:  E(RB3LYP) =  -728.764954581     A.U. after    9 cycles
 SCF Done:  E(RB3LYP) =  -728.764955794     A.U. after    9 cycles
 SCF Done:  E(RB3LYP) =  -728.764956518     A.U. after    8 cycles
 SCF Done:  E(RB3LYP) =  -728.764956680     A.U. after    7 cycles
 SCF Done:  E(RB3LYP) =  -728.764956714     A.U. after    6 cycles
 Optimization completed.
    -- Stationary point found.

 1\1\GINC-NODE362\FOpt\RB3LYP\6-31G(d)\C9H16O5\VSC10255\10-Dec-2020\0\\
 # opt freq B3LYP/6-31G(d) empiricaldispersion=gd3bj scf=xqc\\CID_15070
 4913_JID_4070_neutraal\\0,1\C,1.1161695347,-0.0114101778,-0.8263640757
 \C,0.6019530681,-1.0190784875,-1.8496585602\C,1.131653059,-2.450028044
 4,-1.7389449984\O,0.5708522762,-3.1797414254,-0.6423661667\C,1.2069523
 686,-3.085207616,0.5543625807\O,2.2660826474,-2.5188939579,0.708055572
 \C,0.394172646,-3.7536326592,1.6296881375\O,-0.8480475741,-1.050348838
 7,-1.9790302388\C,-1.653844618,-1.1539740513,-0.9080729962\O,-1.305852

 Normal termination of Gaussian 16 at Thu Dec 10 09:20:36 2020.

 --------------------------------------------------------------------
 #N Geom=AllCheck Guess=TCheck SCRF=Check GenChk RB3LYP/6-31G(d) Freq
 --------------------------------------------------------------------

 Structure from the checkpoint file:  "JID_4070.chk"
 -------------------------------
 CID_150704913_JID_4070_neutraal
 -------------------------------
 Charge =  0 Multiplicity = 1

 SCF Done:  E(RB3LYP) =  -728.764956714     A.U. after    1 cycles

  Exact polarizability: 117.227  -0.292 113.060  -4.633   1.174  90.010
 Approx polarizability: 148.683  -0.685 155.772 -16.777   4.552 141.549

                      1                      2                      3
                      A                      A                      A
 Frequencies --     17.6065                31.9597                49.0713
 Red. masses --      3.6410                 4.7868                 5.3663
 Frc consts  --      0.0007                 0.0029                 0.0076
 IR Inten    --      0.6515                 0.3828                 0.4679

                      4                      5                      6
                      A                      A                      A
 Frequencies --     98.0488               103.4962               114.8408
 Red. masses --      2.9545                 4.2060                 3.1545
 Frc consts  --      0.0167                 0.0265                 0.0245
 IR Inten    --      5.0826                 1.1465                 5.1308

                      7                      8                      9
                      A                      A                      A
 Frequencies --    135.3899               136.4282               158.5206
 Red. masses --      1.1888                 1.6954                 3.5133
 Frc consts  --      0.0128                 0.0186                 0.0520
 IR Inten    --      0.1604                 0.8475                 0.3097

                     10                     11                     12
                      A                      A                      A
 Frequencies --    195.1864               207.2470               235.5092
 Red. masses --      2.2935                 1.5365                 1.5762
 Frc consts  --      0.0515                 0.0389                 0.0515
 IR Inten    --      3.9400                 1.9674                 2.7867

                     13                     14                     15
                      A                      A                      A
 Frequencies --    254.1562               267.5821               292.3475
 Red. masses --      1.5440                 3.1280                 2.8349
 Frc consts  --      0.0588                 0.1320                 0.1428
 IR Inten    --      1.7104                 1.4075                 8.9432

                     16                     17                     18
                      A                      A                      A
 Frequencies --    303.9832               329.0135               382.5793
 Red. masses --      2.9354                 3.1481                 2.5476
 Frc consts  --      0.1598                 0.2008                 0.2197
 IR Inten    --     11.6592                 3.0322                 1.5493

                     19                     20                     21
                      A                      A                      A
 Frequencies --    411.3419               433.0999               482.0065
 Red. masses --      3.5113                 2.8174                 3.8942
 Frc consts  --      0.3500                 0.3114                 0.5331
 IR Inten    --     13.0519                12.8862                 3.1202

                     22                     23                     24
                      A                      A                      A
 Frequencies --    522.5136               572.4023               597.8853
 Red. masses --      3.8675                 4.0315                 2.9948
 Frc consts  --      0.6221                 0.7782                 0.6308
 IR Inten    --      6.3987                 8.4701                 5.2955

                     25                     26                     27
                      A                      A                      A
 Frequencies --    623.6356               707.9925               774.9603
 Red. masses --      4.0047                 3.7720                 3.4503
 Frc consts  --      0.9177                 1.1140                 1.2209
 IR Inten    --      7.2576                 6.0621                 3.9818

                     28                     29                     30
                      A                      A                      A
 Frequencies --    797.4247               840.4243               850.2400
 Red. masses --      3.6400                 4.3740                 2.7418
 Frc consts  --      1.3637                 1.8202                 1.1678
 IR Inten    --     26.7822                 1.4564                20.7393

                     31                     32                     33
                      A                      A                      A
 Frequencies --    893.5671               943.7917               961.3348
 Red. masses --      2.8166                 2.1633                 2.3848
 Frc consts  --      1.3250                 1.1353                 1.2985
 IR Inten    --      0.6538                10.5107                19.3388

                     34                     35                     36
                      A                      A                      A
 Frequencies --   1009.6182              1027.5207              1057.2496
 Red. masses --      2.0546                 2.4340                 1.7652
 Frc consts  --      1.2340                 1.5141                 1.1625
 IR Inten    --      5.3857                34.6502                39.0000

                     37                     38                     39
                      A                      A                      A
 Frequencies --   1080.9957              1084.3982              1116.6876
 Red. masses --      1.7500                 1.7909                 2.6992
 Frc consts  --      1.2048                 1.2408                 1.9832
 IR Inten    --     10.5059                28.1334                41.1001

                     40                     41                     42
                      A                      A                      A
 Frequencies --   1131.7254              1176.2876              1186.4400
 Red. masses --      2.4135                 2.2598                 3.0783
 Frc consts  --      1.8213                 1.8423                 2.5530
 IR Inten    --     24.9605                46.1749               113.0765

                     43                     44                     45
                      A                      A                      A
 Frequencies --   1189.6257              1196.4211              1238.8728
 Red. masses --      1.2786                 2.6827                 1.5959
 Frc consts  --      1.0661                 2.2625                 1.4431
 IR Inten    --      3.6317                97.0488                42.5572

                     46                     47                     48
                      A                      A                      A
 Frequencies --   1254.5804              1280.2696              1334.6558
 Red. masses --      3.2166                 3.5126                 1.1527
 Frc consts  --      2.9830                 3.3922                 1.2098
 IR Inten    --    172.1853               379.1297                17.0000

                     49                     50                     51
                      A                      A                      A
 Frequencies --   1355.1045              1388.1558              1391.2863
 Red. masses --      1.5710                 1.3694                 1.3433
 Frc consts  --      1.6997                 1.5548                 1.5320
 IR Inten    --     12.3383                 3.0136                12.8144

                     52                     53                     54
                      A                      A                      A
 Frequencies --   1417.9237              1419.3645              1431.4144
 Red. masses --      1.2993                 1.3323                 1.2552
 Frc consts  --      1.5391                 1.5814                 1.5153
 IR Inten    --      9.4035                52.1914                23.0352

                     55                     56                     57
                      A                      A                      A
 Frequencies --   1434.8018              1452.7283              1500.2246
 Red. masses --      1.3152                 1.3165                 1.0950
 Frc consts  --      1.5953                 1.6369                 1.4521
 IR Inten    --      8.9888                20.3377                 4.2245

                     58                     59                     60
                      A                      A                      A
 Frequencies --   1501.2919              1503.0092              1506.7367
 Red. masses --      1.1117                 1.0527                 1.0554
 Frc consts  --      1.4763                 1.4011                 1.4117
 IR Inten    --      6.6674                 2.5052                11.9858

                     61                     62                     63
                      A                      A                      A
 Frequencies --   1512.0106              1517.2909              1519.8677
 Red. masses --      1.0746                 1.0531                 1.0539
 Frc consts  --      1.4475                 1.4284                 1.4344
 IR Inten    --     14.8671                 5.4705                 1.2826

                     64                     65                     66
                      A                      A                      A
 Frequencies --   1532.1827              1536.6265              1538.2839
 Red. masses --      1.0610                 1.0492                 1.0513
 Frc consts  --      1.4676                 1.4596                 1.4657
 IR Inten    --      4.5748                 3.9860                 3.2824

                     67                     68                     69
                      A                      A                      A
 Frequencies --   1809.3677              1835.4004              3019.2194
 Red. masses --     11.7744                10.5065                 1.0352
 Frc consts  --     22.7113                20.8531                 5.5600
 IR Inten    --    199.1309               199.4272                43.6009

                     70                     71                     72
                      A                      A                      A
 Frequencies --   3050.3449              3065.2370              3069.7960
 Red. masses --      1.0835                 1.0706                 1.0817
 Frc consts  --      5.9398                 5.9268                 6.0056
 IR Inten    --     12.6143                11.0847                21.0862

                     73                     74                     75
                      A                      A                      A
 Frequencies --   3072.6524              3074.6296              3076.6325
 Red. masses --      1.0554                 1.0360                 1.0568
 Frc consts  --      5.8707                 5.7703                 5.8939
 IR Inten    --     24.1123                 2.4047                54.7089

                     76                     77                     78
                      A                      A                      A
 Frequencies --   3095.7704              3130.4557              3142.2492
 Red. masses --      1.0592                 1.1018                 1.1005
 Frc consts  --      5.9811                 6.3619                 6.4022
 IR Inten    --     34.8121                24.5472                 3.8105

                     79                     80                     81
                      A                      A                      A
 Frequencies --   3142.5093              3146.1525              3150.4418
 Red. masses --      1.0991                 1.1030                 1.1097
 Frc consts  --      6.3952                 6.4328                 6.4891
 IR Inten    --     26.4331                23.7443                10.9855

                     82                     83                     84
                      A                      A                      A
 Frequencies --   3158.6019              3184.1377              3221.2900
 Red. masses --      1.1022                 1.1043                 1.0956
 Frc consts  --      6.4786                 6.5967                 6.6981
 IR Inten    --     13.9617                 8.1989                 3.2458

 - Thermochemistry -
 -------------------
 Temperature   298.150 Kelvin.  Pressure   1.00000 Atm.
 Atom     1 has atomic number  6 and mass  12.00000

 Molecular mass:   204.09977 amu.
 Principal axes and moments of inertia in atomic units:
                           1         2         3
     Eigenvalues --  1480.061864318.304155015.74296
           X            0.99996   0.00124   0.00923
           Y           -0.00109   0.99987  -0.01598
           Z           -0.00925   0.01597   0.99983
 This molecule is an asymmetric top.
 Rotational symmetry number  1.
 Warning -- assumption of classical behavior for rotation
           may cause significant error
 Rotational temperatures (Kelvin)      0.05852     0.02006     0.01727
 Rotational constants (GHZ):           1.21937     0.41793     0.35982
 Zero-point vibrational energy     663892.3 (Joules/Mol)
                                  158.67407 (Kcal/Mol)
 Warning -- explicit consideration of  24 degrees of freedom as
           vibrations may cause significant error
 Vibrational temperatures:     25.33    45.98    70.60   141.07   148.91
          (Kelvin)            165.23   194.80   196.29   228.08   280.83
                              298.18   338.85   365.67   384.99   420.62
                              437.36   473.38   550.45   591.83   623.13
                              693.50   751.78   823.56   860.22   897.27
                             1018.64  1115.00  1147.32  1209.18  1223.31
                             1285.64  1357.91  1383.15  1452.62  1478.37
                             1521.15  1555.31  1560.21  1606.66  1628.30
                             1692.42  1707.02  1711.61  1721.38  1782.46
                             1805.06  1842.02  1920.27  1949.69  1997.25
                             2001.75  2040.08  2042.15  2059.49  2064.36
                             2090.15  2158.49  2160.02  2162.50  2167.86
                             2175.45  2183.04  2186.75  2204.47  2210.86
                             2213.25  2603.28  2640.73  4343.98  4388.77
                             4410.19  4416.75  4420.86  4423.71  4426.59
                             4454.12  4504.03  4521.00  4521.37  4526.61
                             4532.78  4544.52  4581.26  4634.72

 Zero-point correction=                           0.252863 (Hartree/Particle)
 Thermal correction to Energy=                    0.269054
 Thermal correction to Enthalpy=                  0.269998
 Thermal correction to Gibbs Free Energy=         0.207771
 Sum of electronic and zero-point Energies=           -728.512093
 Sum of electronic and thermal Energies=              -728.495903
 Sum of electronic and thermal Enthalpies=            -728.494959
 Sum of electronic and thermal Free Energies=         -728.557186

                     E (Thermal)             CV                S
                      KCal/Mol        Cal/Mol-Kelvin    Cal/Mol-Kelvin
 Total                  168.834             57.251            130.967
 Electronic               0.000              0.000              0.000
 Translational            0.889              2.981             41.845
 Rotational               0.889              2.981             31.839
 Vibrational            167.056             51.290             57.284
 Vibration     1          0.593              1.986              6.887
 Vibration     2          0.594              1.983              5.704
 Vibration     3          0.595              1.978              4.854
 Vibration     4          0.603              1.951              3.493
 Vibration     5          0.605              1.946              3.387
 Vibration     6          0.608              1.937              3.185
 Vibration     7          0.613              1.918              2.868
 Vibration     8          0.614              1.917              2.853
 Vibration     9          0.621              1.893              2.567
 Vibration    10          0.636              1.847              2.178
 Vibration    11          0.641              1.830              2.068
 Vibration    12          0.655              1.786              1.837
 Vibration    13          0.665              1.756              1.702
 Vibration    14          0.673              1.733              1.612
 Vibration    15          0.688              1.688              1.460
 Vibration    16          0.695              1.666              1.395
 Vibration    17          0.712              1.618              1.265
 Vibration    18          0.752              1.507              1.029
 Vibration    19          0.775              1.446              0.922
 Vibration    20          0.794              1.398              0.849
 Vibration    21          0.838              1.290              0.705
 Vibration    22          0.877              1.200              0.604
 Vibration    23          0.929              1.091              0.500
 Vibration    24          0.956              1.036              0.453

                           ! Non-Optimized Parameters !

 1\1\GINC-NODE362\Freq\RB3LYP\6-31G(d)\C9H16O5\VSC10255\10-Dec-2020\0\\
 #N Geom=AllCheck Guess=TCheck SCRF=Check GenChk RB3LYP/6-31G(d) Freq\\
 CID_150704913_JID_4070_neutraal\\0,1\C,1.1161695347,-0.0114101778,-0.8
 263640757\C,0.6019530681,-1.0190784875,-1.8496585602\C,1.131653059,-2.
 4500280444,-1.7389449984\O,0.5708522762,-3.1797414254,-0.6423661667\C,
 1.2069523686,-3.085207616,0.5543625807\O,2.2660826474,-2.5188939579,0.
 708055572\C,0.394172646,-3.7536326592,1.6296881375\O,-0.8480475741,-1.
 0503488387,-1.9790302388\C,-1.653844618,-1.1539740513,-0.9080729962\O,

 Normal termination of Gaussian 16 at Thu Dec 10 09:28:28 2020.

 ----------------------------------------------------------------------
 # B3LYP/6-311++G(d,p) empiricaldispersion=gd3bj scf=xqc pop=npa geom=c
 heck
 ----------------------------------------------------------------------

 ---------------------------------------
 CID_150704913_JID_4070_Energie_neutraal
 ---------------------------------------
 Structure from the checkpoint file:  "JID_4070.chk"
 Charge =  0 Multiplicity = 1

 SCF Done:  E(RB3LYP) =  -728.983481232     A.U. after   14 cycles
 Normal termination of Gaussian 16 at Thu Dec 10 09:31:20 2020.

 ----------------------------------------------------------------------
 # B3LYP/6-311++G(d,p) empiricaldispersion=gd3bj scf=xqc pop=npa geom=c
 heck
 ----------------------------------------------------------------------

 -------------------------------------
 CID_150704913_JID_4070_Energie_kation
 -------------------------------------
 Structure from the checkpoint file:  "JID_4070.chk"
 Charge =  1 Multiplicity = 2

 SCF Done:  E(UB3LYP) =  -728.651143582     A.U. after   26 cycles
 Normal termination of Gaussian 16 at Thu Dec 10 09:39:37 2020.
 Gaussian 16:  ES64L-G16RevA.03 25-Dec-2016

 ------------------------------------
 CID_150704913_JID_4070_Energie_anion
 ------------------------------------
 Structure from the checkpoint file:  "JID_4070.chk"
 Charge = -1 Multiplicity = 2

                         Standard orientation:
 ---------------------------------------------------------------------
 Center     Atomic      Atomic             Coordinates (Angstroms)
 Number     Number       Type             X           Y           Z
 ---------------------------------------------------------------------
      1          6           0       -0.895983   -1.761866    1.354301
      2          6           0       -0.560060   -1.693719   -0.132123
      3          6           0       -1.671591   -1.223737   -1.072373
      4          8           0       -1.920721    0.184046   -0.997908
      5          6           0       -2.824192    0.605117   -0.074783
      6          8           0       -3.498655   -0.145381    0.594501
      7          6           0       -2.831086    2.107883   -0.001472
      8          8           0        0.665625   -0.967807   -0.433723
      9          6           0        0.905684    0.257218    0.064959
     10          8           0        0.189705    0.879925    0.820323
     11          6           0        2.227874    0.821073   -0.490282
     12          6           0        2.748527    1.953068    0.395523
     13          8           0        3.186454   -0.178954   -0.779481
     14          6           0        3.671242   -0.891823    0.344563
     15          1           0       -1.205631   -0.803150    1.760611
     16          1           0       -0.021260   -2.117787    1.909138
     17          1           0       -1.709600   -2.480407    1.494867
     18          1           0       -0.307058   -2.706134   -0.466895
     19          1           0       -1.361105   -1.395430   -2.105176
     20          1           0       -2.588474   -1.780801   -0.861116
     21          1           0       -1.893216    2.425019    0.467088
     22          1           0       -2.869529    2.545511   -1.003026
     23          1           0       -3.678741    2.444081    0.596274
     24          1           0        1.972892    1.232603   -1.476051
     25          1           0        2.919788    1.620212    1.423193
     26          1           0        3.687460    2.333002   -0.017624
     27          1           0        2.017859    2.763976    0.433260
     28          1           0        4.257766   -0.255651    1.021223
     29          1           0        2.856590   -1.361653    0.913721
     30          1           0        4.320515   -1.677311   -0.049061
 ---------------------------------------------------------------------

 SCF Done:  E(UB3LYP) =  -728.970481887     A.U. after   32 cycles

 The electronic state is 2-A.
 Alpha  occ. eigenvalues --  -19.07184 -19.06810 -19.02898 -19.02014 -19.01242
 Alpha  occ. eigenvalues --  -10.21188 -10.20194 -10.14546 -10.13663 -10.13476
 Alpha  occ. eigenvalues --  -10.11002 -10.08428 -10.06514 -10.06441  -1.01696
 Alpha  occ. eigenvalues --   -1.00530  -0.94099  -0.93058  -0.92479  -0.71192
 Alpha  occ. eigenvalues --   -0.67725  -0.66217  -0.60729  -0.59656  -0.57377
 Alpha  occ. eigenvalues --   -0.52021  -0.48285  -0.43153  -0.42588  -0.41199
 Alpha  occ. eigenvalues --   -0.40563  -0.39766  -0.39268  -0.38039  -0.35624
 Alpha  occ. eigenvalues --   -0.35326  -0.34909  -0.33361  -0.32319  -0.31746
 Alpha  occ. eigenvalues --   -0.31382  -0.29844  -0.29740  -0.29297  -0.28039
 Alpha  occ. eigenvalues --   -0.26960  -0.26752  -0.26098  -0.24848  -0.23166
 Alpha  occ. eigenvalues --   -0.22423  -0.19969  -0.18975  -0.18702  -0.15671
 Alpha  occ. eigenvalues --    0.04328
 Alpha virt. eigenvalues --    0.06566   0.06731   0.07774   0.08511   0.09097
 Alpha virt. eigenvalues --    0.09160   0.09528   0.09763   0.10146   0.10757
 Alpha virt. eigenvalues --    0.11309   0.11725   0.12146   0.12885   0.13742

  Beta  occ. eigenvalues --  -19.07180 -19.06802 -19.02894 -19.02006 -19.01215
  Beta  occ. eigenvalues --  -10.21186 -10.20163 -10.14528 -10.13657 -10.13450
  Beta  occ. eigenvalues --  -10.10961 -10.08405 -10.06483 -10.06422  -1.01680
  Beta  occ. eigenvalues --   -1.00499  -0.94088  -0.93041  -0.92445  -0.71146
  Beta  occ. eigenvalues --   -0.67687  -0.66185  -0.60684  -0.59593  -0.57320
  Beta  occ. eigenvalues --   -0.51962  -0.48242  -0.43096  -0.42532  -0.41157
  Beta  occ. eigenvalues --   -0.40517  -0.39734  -0.39239  -0.37998  -0.35582
  Beta  occ. eigenvalues --   -0.35288  -0.34865  -0.33334  -0.32281  -0.31680
  Beta  occ. eigenvalues --   -0.31353  -0.29817  -0.29701  -0.29262  -0.27998
  Beta  occ. eigenvalues --   -0.26923  -0.26706  -0.26065  -0.24813  -0.23132
  Beta  occ. eigenvalues --   -0.22381  -0.19925  -0.18962  -0.18678  -0.15644
  Beta virt. eigenvalues --    0.06500   0.07376   0.07572   0.08201   0.08822
  Beta virt. eigenvalues --    0.09331   0.09619   0.09975   0.10353   0.10587
  Beta virt. eigenvalues --    0.11066   0.11701   0.12197   0.12447   0.13129

 Mulliken charges and spin densities:
               1          2
     1  C    0.750885  -1.198864
     2  C   -0.874142   1.034833
     3  C    1.324388  -1.696813
     4  O   -0.025569   0.043593
     5  C   -0.472668   0.535103
     6  O   -0.257471   0.006132
     7  C    0.445262  -0.946700
     8  O    0.103032  -0.041591
     9  C    1.205475  -1.333102
    10  O   -0.163451  -0.004442
    11  C   -2.458637   2.091730
    12  C    1.063337  -1.604529
    13  O   -0.056266   0.004381
    14  C    0.883200  -1.156358
    15  H    0.159843   0.063383
    16  H   -0.170842   0.286729
    17  H    0.041195   0.125669
    18  H   -0.788911   1.015963
    19  H   -0.239289   0.436535
    20  H   -0.053095   0.250588
    21  H    0.096758   0.107795
    22  H   -0.166960   0.334917
    23  H    0.044064   0.105008
    24  H   -0.440668   0.664900
    25  H   -0.083250   0.257716
    26  H   -0.216353   0.380983
    27  H   -0.011484   0.163524
    28  H   -0.254413   0.382214
    29  H   -0.172090   0.323671
    30  H   -0.211881   0.367031
 Sum of Mulliken charges =  -1.00000   1.00000

 Dipole moment (field-independent basis, Debye):
    X=             -2.5191    Y=              1.9316    Z=              0.9824  Tot=              3.3229
 Quadrupole moment (field-independent basis, Debye-Ang):
   XX=           -150.4469   YY=           -132.1339   ZZ=           -118.7556
   XY=             -2.5615   XZ=              0.6798   YZ=             -0.6035

 Summary of Natural Population Analysis:

                                       Natural Population
                Natural  -----------------------------------------------
    Atom  No    Charge         Core      Valence    Rydberg      Total
 -----------------------------------------------------------------------
      C    1   -0.30134      0.99963     2.29468    0.00703     3.30134
      C    2    0.05407      0.99952     1.93174    0.01467     2.94593
      C    3   -0.02581      0.99951     2.01336    0.01294     3.02581
      O    4   -0.28497      0.99986     3.27416    0.01095     4.28497
      C    5    0.41342      0.99971     1.56145    0.02542     2.58658
      O    6   -0.30805      0.99987     3.30250    0.00568     4.30805
      C    7   -0.33648      0.99961     2.33103    0.00583     3.33648
      O    8   -0.28113      0.99985     3.27025    0.01102     4.28113
      C    9    0.40806      0.99967     1.56672    0.02556     2.59194
      O   10   -0.31001      0.99987     3.30389    0.00625     4.31001
      C   11    0.02490      0.99952     1.95948    0.01610     2.97510
      C   12   -0.29837      0.99965     2.29343    0.00529     3.29837
      O   13   -0.29326      0.99989     3.28323    0.01015     4.29326
      C   14   -0.09953      0.99960     2.09121    0.00872     3.09953
      H   15    0.11445      0.00000     0.38435    0.00120     0.38555
      H   16    0.10266      0.00000     0.39608    0.00126     0.39734
      H   17    0.10493      0.00000     0.39418    0.00089     0.39507
      H   18    0.10077      0.00000     0.39598    0.00325     0.39923
      H   19    0.09927      0.00000     0.39900    0.00174     0.40073
      H   20    0.10190      0.00000     0.39673    0.00137     0.39810
      H   21    0.12623      0.00000     0.37265    0.00112     0.37377
      H   22    0.11211      0.00000     0.38676    0.00113     0.38789
      H   23    0.10625      0.00000     0.39303    0.00072     0.39375
      H   24    0.10499      0.00000     0.39281    0.00220     0.39501
      H   25    0.10127      0.00000     0.39736    0.00137     0.39873
      H   26    0.10203      0.00000     0.39666    0.00131     0.39797
      H   27    0.11024      0.00000     0.38840    0.00136     0.38976
      H   28    0.07839      0.00000     0.41955    0.00205     0.42161
      H   29    0.08148      0.00000     0.41639    0.00213     0.41852
      H   30    0.09152      0.00000     0.40691    0.00157     0.40848
 =======================================================================
   * Total *    0.00000     13.99576    40.81397    0.19027    55.00000

 Normal termination of Gaussian 16 at Thu Dec 10 09:48:40 2020.
