 Gaussian 16, Revision A.03,

 -----------------------------------------------------------
 # opt freq B3LYP/6-31G(d) empiricaldispersion=gd3bj scf=xqc
 -----------------------------------------------------------

 -------------------------------
 CID_103303015_JID_9283_neutraal
 -------------------------------
 Symbolic Z-matrix:
 Charge =  0 Multiplicity = 1

 SCF Done:  E(RB3LYP) =  -1249.39562159     A.U. after   15 cycles
 SCF Done:  E(RB3LYP) =  -1249.40728506     A.U. after   13 cycles
 SCF Done:  E(RB3LYP) =  -1249.40762964     A.U. after   14 cycles
 SCF Done:  E(RB3LYP) =  -1249.40913184     A.U. after   13 cycles
 SCF Done:  E(RB3LYP) =  -1249.40939204     A.U. after   12 cycles
 SCF Done:  E(RB3LYP) =  -1249.40951791     A.U. after   12 cycles
 SCF Done:  E(RB3LYP) =  -1249.40954037     A.U. after   10 cycles
 SCF Done:  E(RB3LYP) =  -1249.40955357     A.U. after   10 cycles
 SCF Done:  E(RB3LYP) =  -1249.40955701     A.U. after   10 cycles
 SCF Done:  E(RB3LYP) =  -1249.40955941     A.U. after   10 cycles
 SCF Done:  E(RB3LYP) =  -1249.41029483     A.U. after    7 cycles
 SCF Done:  E(RB3LYP) =  -1249.41029493     A.U. after    7 cycles
 SCF Done:  E(RB3LYP) =  -1249.41029506     A.U. after    7 cycles
 SCF Done:  E(RB3LYP) =  -1249.41029518     A.U. after    7 cycles
 SCF Done:  E(RB3LYP) =  -1249.41029521     A.U. after    7 cycles
 Optimization completed.
    -- Stationary point found.
 Normal termination of Gaussian 16 at Sun Dec 13 17:00:34 2020.

 --------------------------------------------------------------------
 #N Geom=AllCheck Guess=TCheck SCRF=Check GenChk RB3LYP/6-31G(d) Freq
 --------------------------------------------------------------------

 Structure from the checkpoint file:  "JID_9283.chk"
 -------------------------------
 CID_103303015_JID_9283_neutraal
 -------------------------------
 Charge =  0 Multiplicity = 1

 SCF Done:  E(RB3LYP) =  -1249.41029521     A.U. after    1 cycles

  Exact polarizability: 192.710  24.648 171.625  -3.391 -13.310 135.737
 Approx polarizability: 261.418  40.169 291.136  -5.564 -36.071 246.032

                      1                      2                      3
                      A                      A                      A
 Frequencies --     24.1928                27.7935                33.5899
 Red. masses --      4.3107                 5.0905                 4.3758
 Frc consts  --      0.0015                 0.0023                 0.0029
 IR Inten    --      0.3464                 0.4559                 2.3563

                      4                      5                      6
                      A                      A                      A
 Frequencies --     54.2427                59.7687                78.4978
 Red. masses --      1.0686                 1.0429                 6.6830
 Frc consts  --      0.0019                 0.0022                 0.0243
 IR Inten    --      0.6816                 0.2548                 0.6552

                      7                      8                      9
                      A                      A                      A
 Frequencies --    107.2207               159.6160               175.2584
 Red. masses --      5.4992                 5.4984                 3.0219
 Frc consts  --      0.0372                 0.0825                 0.0547
 IR Inten    --      0.5717                 2.3236                 0.0337

                     10                     11                     12
                      A                      A                      A
 Frequencies --    188.0452               208.8833               219.0221
 Red. masses --      5.8668                 7.9226                 5.2148
 Frc consts  --      0.1222                 0.2037                 0.1474
 IR Inten    --      2.2722                 1.7738                 0.4512

                     13                     14                     15
                      A                      A                      A
 Frequencies --    251.5616               258.8321               294.5984
 Red. masses --      5.8010                 3.8365                 7.6484
 Frc consts  --      0.2163                 0.1514                 0.3911
 IR Inten    --      2.9260                 3.2271                 0.6400

                     16                     17                     18
                      A                      A                      A
 Frequencies --    307.3404               341.7608               365.2384
 Red. masses --      4.0363                 3.5064                 4.4483
 Frc consts  --      0.2246                 0.2413                 0.3496
 IR Inten    --      1.0024                 9.7818                 3.3644

                     19                     20                     21
                      A                      A                      A
 Frequencies --    405.4456               441.6894               456.4741
 Red. masses --      1.3148                 4.5218                 3.2193
 Frc consts  --      0.1273                 0.5197                 0.3952
 IR Inten    --     27.2196                23.9910                 8.1077

                     22                     23                     24
                      A                      A                      A
 Frequencies --    478.7036               525.9703               544.4209
 Red. masses --      4.0732                 3.0460                 2.3675
 Frc consts  --      0.5499                 0.4965                 0.4134
 IR Inten    --     15.9717               120.7851                88.4017

                     25                     26                     27
                      A                      A                      A
 Frequencies --    549.4959               550.2052               563.7413
 Red. masses --      5.5443                 6.2963                 3.7556
 Frc consts  --      0.9863                 1.1230                 0.7032
 IR Inten    --     28.9974                81.8895                 1.5913

                     28                     29                     30
                      A                      A                      A
 Frequencies --    568.1609               579.5973               590.2015
 Red. masses --      4.2751                 4.9390                 3.7503
 Frc consts  --      0.8131                 0.9776                 0.7697
 IR Inten    --      7.9901                23.3004                85.1689

                     31                     32                     33
                      A                      A                      A
 Frequencies --    635.0517               677.8152               697.5735
 Red. masses --      2.3927                 3.5507                 5.2094
 Frc consts  --      0.5685                 0.9612                 1.4936
 IR Inten    --     76.9459                23.1264                21.7434

                     34                     35                     36
                      A                      A                      A
 Frequencies --    729.1123               757.7587               814.1169
 Red. masses --      4.3034                 4.6364                 4.2888
 Frc consts  --      1.3479                 1.5685                 1.6748
 IR Inten    --     71.5474                 3.7984                34.9349

                     37                     38                     39
                      A                      A                      A
 Frequencies --    814.7610               848.2778               859.4284
 Red. masses --      1.6918                 2.6813                 1.2169
 Frc consts  --      0.6617                 1.1368                 0.5296
 IR Inten    --     23.2600               105.7810                 7.8079

                     40                     41                     42
                      A                      A                      A
 Frequencies --    869.4893               914.1301               977.6308
 Red. masses --      4.0974                 1.3657                 1.3082
 Frc consts  --      1.8251                 0.6724                 0.7367
 IR Inten    --    112.0685                 1.1340                 0.0969

                     43                     44                     45
                      A                      A                      A
 Frequencies --    978.9517               990.6984              1020.7456
 Red. masses --      2.1522                 4.1548                 5.5153
 Frc consts  --      1.2152                 2.4026                 3.3857
 IR Inten    --     35.9408                18.8432                 2.3185

                     46                     47                     48
                      A                      A                      A
 Frequencies --   1049.7610              1065.9757              1070.5234
 Red. masses --      1.4677                 3.8721                 1.6423
 Frc consts  --      0.9530                 2.5923                 1.1089
 IR Inten    --      2.1061                18.1001                10.8899

                     49                     50                     51
                      A                      A                      A
 Frequencies --   1078.0891              1098.0356              1099.8866
 Red. masses --      1.5946                 2.0372                 2.7088
 Frc consts  --      1.0920                 1.4472                 1.9307
 IR Inten    --      0.1506                12.0685                50.2143

                     52                     53                     54
                      A                      A                      A
 Frequencies --   1104.8197              1161.3960              1180.3021
 Red. masses --      3.1162                 3.9212                 1.2227
 Frc consts  --      2.2411                 3.1162                 1.0036
 IR Inten    --     66.9118               105.7382                17.4774

                     55                     56                     57
                      A                      A                      A
 Frequencies --   1210.3882              1281.6579              1286.7785
 Red. masses --      1.4746                 5.4742                 1.9004
 Frc consts  --      1.2729                 5.2980                 1.8539
 IR Inten    --      8.0548                10.9501                 6.6429

                     58                     59                     60
                      A                      A                      A
 Frequencies --   1330.0816              1351.8321              1355.4886
 Red. masses --      2.6454                 6.7033                 3.3073
 Frc consts  --      2.7574                 7.2174                 3.5802
 IR Inten    --     72.8642                 6.7744                73.0601

                     61                     62                     63
                      A                      A                      A
 Frequencies --   1371.8562              1389.5357              1431.6236
 Red. masses --      2.1057                 3.5652                 1.5281
 Frc consts  --      2.3349                 4.0558                 1.8453
 IR Inten    --     57.1826                58.8149               109.6015

                     64                     65                     66
                      A                      A                      A
 Frequencies --   1434.9646              1460.1596              1485.0507
 Red. masses --      1.2923                 3.8102                 2.5288
 Frc consts  --      1.5678                 4.7863                 3.2859
 IR Inten    --     40.7603               238.1407                23.2907

                     67                     68                     69
                      A                      A                      A
 Frequencies --   1502.5056              1504.3199              1506.4995
 Red. masses --      1.0488                 1.0463                 1.4210
 Frc consts  --      1.3950                 1.3950                 1.9001
 IR Inten    --      6.4363                 9.1429                36.2349

                     70                     71                     72
                      A                      A                      A
 Frequencies --   1513.7514              1516.5409              1520.6577
 Red. masses --      1.2586                 2.7097                 1.8533
 Frc consts  --      1.6992                 3.6717                 2.5249
 IR Inten    --     86.9901                82.7907                35.8488

                     73                     74                     75
                      A                      A                      A
 Frequencies --   1609.2689              1613.4285              1646.1920
 Red. masses --      5.0414                 6.3091                 6.2366
 Frc consts  --      7.6923                 9.6765                 9.9577
 IR Inten    --      4.1626               287.3762               232.1854

                     76                     77                     78
                      A                      A                      A
 Frequencies --   1651.0182              1703.1020              3061.5259
 Red. masses --      4.4155                 1.2729                 1.0362
 Frc consts  --      7.0915                 2.1754                 5.7220
 IR Inten    --     16.9484               106.0522                11.2935

                     79                     80                     81
                      A                      A                      A
 Frequencies --   3062.1990              3122.2599              3123.9141
 Red. masses --      1.0359                 1.1005                 1.1004
 Frc consts  --      5.7229                 6.3211                 6.3271
 IR Inten    --      5.8161                 7.2151                 6.6564

                     82                     83                     84
                      A                      A                      A
 Frequencies --   3148.0605              3148.8052              3183.4069
 Red. masses --      1.1034                 1.1039                 1.0882
 Frc consts  --      6.4427                 6.4485                 6.4975
 IR Inten    --     11.9827                20.5730                 7.5022

                     85                     86                     87
                      A                      A                      A
 Frequencies --   3194.7172              3215.0961              3219.1590
 Red. masses --      1.0897                 1.0971                 1.0922
 Frc consts  --      6.5526                 6.6815                 6.6687
 IR Inten    --     15.5433                24.6644                 7.7979

                     88                     89                     90
                      A                      A                      A
 Frequencies --   3535.4777              3538.3989              3654.8476
 Red. masses --      1.0640                 1.0603                 1.0982
 Frc consts  --      7.8359                 7.8217                 8.6431
 IR Inten    --    124.6893                31.5091                51.5545

 - Thermochemistry -
 -------------------
 Temperature   298.150 Kelvin.  Pressure   1.00000 Atm.
 Atom     1 has atomic number  6 and mass  12.00000

 Molecular mass:   279.07900 amu.
 Principal axes and moments of inertia in atomic units:
                           1         2         3
     Eigenvalues --  3207.954486838.510078060.89077
           X            0.99995   0.00902   0.00368
           Y           -0.00889   0.99932  -0.03572
           Z           -0.00400   0.03569   0.99936
 This molecule is an asymmetric top.
 Rotational symmetry number  1.
 Warning -- assumption of classical behavior for rotation
           may cause significant error
 Rotational temperatures (Kelvin)      0.02700     0.01267     0.01074
 Rotational constants (GHZ):           0.56258     0.26391     0.22389
 Zero-point vibrational energy     644718.2 (Joules/Mol)
                                  154.09135 (Kcal/Mol)
 Warning -- explicit consideration of  30 degrees of freedom as
           vibrations may cause significant error
 Vibrational temperatures:     34.81    39.99    48.33    78.04    85.99
          (Kelvin)            112.94   154.27   229.65   252.16   270.56
                              300.54   315.12   361.94   372.40   423.86
                              442.19   491.72   525.50   583.35   635.49
                              656.76   688.75   756.75   783.30   790.60
                              791.62   811.10   817.46   833.91   849.17
                              913.70   975.22  1003.65  1049.03  1090.25
                             1171.33  1172.26  1220.48  1236.53  1251.00
                             1315.23  1406.59  1408.49  1425.39  1468.63
                             1510.37  1533.70  1540.24  1551.13  1579.83
                             1582.49  1589.59  1670.99  1698.19  1741.48
                             1844.02  1851.39  1913.69  1944.98  1950.25
                             1973.80  1999.23  2059.79  2064.59  2100.84
                             2136.66  2161.77  2164.38  2167.52  2177.95
                             2181.96  2187.89  2315.38  2321.36  2368.50
                             2375.45  2450.38  4404.85  4405.82  4492.24
                             4494.62  4529.36  4530.43  4580.21  4596.49
                             4625.81  4631.65  5086.76  5090.97  5258.51

 Zero-point correction=                           0.245560 (Hartree/Particle)
 Thermal correction to Energy=                    0.263606
 Thermal correction to Enthalpy=                  0.264550
 Thermal correction to Gibbs Free Energy=         0.197272
 Sum of electronic and zero-point Energies=          -1249.164735
 Sum of electronic and thermal Energies=             -1249.146689
 Sum of electronic and thermal Enthalpies=           -1249.145745
 Sum of electronic and thermal Free Energies=        -1249.213023

                     E (Thermal)             CV                S
                      KCal/Mol        Cal/Mol-Kelvin    Cal/Mol-Kelvin
 Total                  165.415             67.240            141.599
 Electronic               0.000              0.000              0.000
 Translational            0.889              2.981             42.777
 Rotational               0.889              2.981             33.536
 Vibrational            163.638             61.278             65.286
 Vibration     1          0.593              1.985              6.256
 Vibration     2          0.593              1.984              5.981
 Vibration     3          0.594              1.983              5.605
 Vibration     4          0.596              1.976              4.656
 Vibration     5          0.597              1.973              4.465
 Vibration     6          0.600              1.964              3.928
 Vibration     7          0.606              1.943              3.319
 Vibration     8          0.621              1.892              2.554
 Vibration     9          0.627              1.873              2.378
 Vibration    10          0.633              1.856              2.247
 Vibration    11          0.642              1.827              2.053
 Vibration    12          0.647              1.812              1.967
 Vibration    13          0.664              1.760              1.720
 Vibration    14          0.668              1.748              1.670
 Vibration    15          0.689              1.684              1.447
 Vibration    16          0.697              1.660              1.377
 Vibration    17          0.721              1.592              1.204
 Vibration    18          0.738              1.544              1.100
 Vibration    19          0.770              1.458              0.943
 Vibration    20          0.801              1.379              0.821
 Vibration    21          0.815              1.347              0.776
 Vibration    22          0.835              1.297              0.714
 Vibration    23          0.881              1.193              0.596
 Vibration    24          0.900              1.152              0.556
 Vibration    25          0.905              1.141              0.545
 Vibration    26          0.905              1.139              0.544
 Vibration    27          0.920              1.110              0.516
 Vibration    28          0.924              1.100              0.508
 Vibration    29          0.936              1.075              0.486
 Vibration    30          0.948              1.053              0.467

 Optimization completed.
    -- Stationary point found.
 Normal termination of Gaussian 16 at Sun Dec 13 17:17:42 2020.

 ----------------------------------------------------------------------
 # B3LYP/6-311++G(d,p) empiricaldispersion=gd3bj scf=xqc pop=npa geom=c
 heck
 ----------------------------------------------------------------------

 ---------------------------------------
 CID_103303015_JID_9283_Energie_neutraal
 ---------------------------------------
 Structure from the checkpoint file:  "JID_9283.chk"
 Charge =  0 Multiplicity = 1

 SCF Done:  E(RB3LYP) =  -1249.67477521     A.U. after   17 cycles
 Normal termination of Gaussian 16 at Sun Dec 13 17:25:51 2020.

 ----------------------------------------------------------------------
 # B3LYP/6-311++G(d,p) empiricaldispersion=gd3bj scf=xqc pop=npa geom=c
 heck
 ----------------------------------------------------------------------

 -------------------------------------
 CID_103303015_JID_9283_Energie_kation
 -------------------------------------
 Structure from the checkpoint file:  "JID_9283.chk"
 Charge =  1 Multiplicity = 2

 SCF Done:  E(UB3LYP) =  -1249.37422140     A.U. after   28 cycles
 Normal termination of Gaussian 16 at Sun Dec 13 17:45:08 2020.
 Gaussian 16:  ES64L-G16RevA.03 25-Dec-2016

 ----------------------------------------------------------------------
 # B3LYP/6-311++G(d,p) empiricaldispersion=gd3bj scf=xqc pop=npa geom=c
 heck
 ----------------------------------------------------------------------

 ------------------------------------
 CID_103303015_JID_9283_Energie_anion
 ------------------------------------
 Structure from the checkpoint file:  "JID_9283.chk"
 Charge = -1 Multiplicity = 2

                         Standard orientation:
 ---------------------------------------------------------------------
 Center     Atomic      Atomic             Coordinates (Angstroms)
 Number     Number       Type             X           Y           Z
 ---------------------------------------------------------------------
      1          6           0       -5.051305   -0.412996    0.588754
      2          6           0       -3.638567    0.020019    0.314957
      3          6           0       -3.317338    1.326832   -0.060549
      4          6           0       -1.972681    1.633133   -0.286005
      5          7           0       -1.020187    0.702704   -0.133948
      6          6           0       -1.437796   -0.517499    0.200323
      7          7           0       -2.687771   -0.921749    0.436818
      8          7           0       -0.439015   -1.488928    0.367953
      9         16           0        0.914770   -1.557369   -0.721324
     10          8           0        1.554379   -2.812913   -0.319052
     11          8           0        0.474358   -1.338921   -2.091389
     12          6           0        1.905182   -0.150238   -0.169677
     13          6           0        2.201356    0.061528    1.197301
     14          6           0        3.023944    1.174350    1.461701
     15          6           0        3.490348    1.960514    0.420623
     16          6           0        3.131374    1.636675   -0.891604
     17          7           0        2.347502    0.596372   -1.166444
     18          7           0        1.768807   -0.758283    2.211792
     19          6           0       -1.508039    2.998414   -0.705380
     20          1           0       -5.133817   -0.806610    1.607727
     21          1           0       -5.757870    0.412343    0.468535
     22          1           0       -5.333261   -1.223779   -0.091689
     23          1           0       -4.088896    2.080133   -0.174406
     24          1           0       -0.817863   -2.427916    0.482560
     25          1           0        3.287632    1.401979    2.491664
     26          1           0        4.125598    2.818032    0.620751
     27          1           0        3.478088    2.223781   -1.737559
     28          1           0        0.926163   -1.290965    2.026689
     29          1           0        1.818080   -0.368446    3.143187
     30          1           0       -1.033358    2.938616   -1.690977
     31          1           0       -2.333034    3.714188   -0.749626
     32          1           0       -0.747899    3.366021   -0.008019
 ---------------------------------------------------------------------

 SCF Done:  E(UB3LYP) =  -1249.68052902     A.U. after   33 cycles
 SCF Done:  E(UB3LYP) =  -1249.68052902     a.u. after    1 cycles

 The electronic state is 2-A.
 Alpha  occ. eigenvalues --  -88.93638 -18.99401 -18.99374 -14.22966 -14.21088
 Alpha  occ. eigenvalues --  -14.17441 -14.17336 -14.16567 -10.14730 -10.11113
 Alpha  occ. eigenvalues --  -10.09339 -10.08589 -10.08324 -10.07421 -10.06267
 Alpha  occ. eigenvalues --  -10.05330 -10.05233 -10.05220 -10.04939  -7.99823
 Alpha  occ. eigenvalues --   -5.96168  -5.96050  -5.95853  -0.99577  -0.88689
 Alpha  occ. eigenvalues --   -0.87494  -0.83195  -0.80222  -0.79172  -0.76426
 Alpha  occ. eigenvalues --   -0.67319  -0.66922  -0.63928  -0.62563  -0.58551
 Alpha  occ. eigenvalues --   -0.56540  -0.52148  -0.51198  -0.49317  -0.47346
 Alpha  occ. eigenvalues --   -0.42671  -0.41274  -0.41023  -0.40051  -0.38066
 Alpha  occ. eigenvalues --   -0.37304  -0.35237  -0.34370  -0.34171  -0.33476
 Alpha  occ. eigenvalues --   -0.32744  -0.31049  -0.29995  -0.29651  -0.29108
 Alpha  occ. eigenvalues --   -0.28624  -0.28298  -0.27717  -0.27171  -0.25858
 Alpha  occ. eigenvalues --   -0.23424  -0.22100  -0.21424  -0.20467  -0.19168
 Alpha  occ. eigenvalues --   -0.18485  -0.18010  -0.17325  -0.16114  -0.13441
 Alpha  occ. eigenvalues --   -0.12695  -0.12558  -0.10256   0.04546
 Alpha virt. eigenvalues --    0.06676   0.07263   0.07754   0.08592   0.09076
 Alpha virt. eigenvalues --    0.09937   0.10102   0.10589   0.10988   0.11381
 Alpha virt. eigenvalues --    0.11470   0.12592   0.13007   0.13233   0.13886

  Beta  occ. eigenvalues --  -88.93636 -18.99404 -18.99339 -14.22963 -14.21096
  Beta  occ. eigenvalues --  -14.17158 -14.17111 -14.16393 -10.14761 -10.11171
  Beta  occ. eigenvalues --  -10.09173 -10.08266 -10.08011 -10.07481 -10.06295
  Beta  occ. eigenvalues --  -10.05260 -10.05178 -10.05045 -10.05011  -7.99821
  Beta  occ. eigenvalues --   -5.96158  -5.96044  -5.95857  -0.99523  -0.88645
  Beta  occ. eigenvalues --   -0.87264  -0.82939  -0.79990  -0.79024  -0.75952
  Beta  occ. eigenvalues --   -0.66953  -0.66567  -0.63682  -0.62306  -0.58526
  Beta  occ. eigenvalues --   -0.56369  -0.51992  -0.51061  -0.49036  -0.47065
  Beta  occ. eigenvalues --   -0.42554  -0.41115  -0.40840  -0.39912  -0.37949
  Beta  occ. eigenvalues --   -0.37199  -0.35162  -0.34263  -0.34064  -0.33056
  Beta  occ. eigenvalues --   -0.32479  -0.30668  -0.29833  -0.29428  -0.28750
  Beta  occ. eigenvalues --   -0.28420  -0.27967  -0.27589  -0.27032  -0.25664
  Beta  occ. eigenvalues --   -0.23247  -0.21688  -0.21186  -0.20281  -0.19022
  Beta  occ. eigenvalues --   -0.18237  -0.17751  -0.15934  -0.14881  -0.13072
  Beta  occ. eigenvalues --   -0.12295  -0.12188  -0.09719
  Beta virt. eigenvalues --    0.07206   0.07670   0.08538   0.09013   0.09212
  Beta virt. eigenvalues --    0.09455   0.10078   0.10253   0.10703   0.10961
  Beta virt. eigenvalues --    0.11382   0.11534   0.12614   0.12977   0.13194

 Mulliken charges and spin densities:
               1          2
     1  C   -0.478119  -0.044087
     2  C    0.305224   0.198118
     3  C   -0.798421  -0.073556
     4  C    0.542436   0.205227
     5  N    0.137085   0.088231
     6  C   -0.779358  -0.033808
     7  N   -0.060846   0.101340
     8  N   -0.507646  -0.001654
     9  S    0.956828   0.027403
    10  O   -0.177929  -0.007734
    11  O   -0.125614   0.006863
    12  C   -1.374803   0.091989
    13  C    0.238816  -0.033587
    14  C   -0.092587   0.126875
    15  C   -0.262953   0.157180
    16  C   -0.073784  -0.041135
    17  N    0.105440   0.159906
    18  N   -0.303691   0.004949
    19  C   -0.360205  -0.039807
    20  H    0.120708   0.029304
    21  H    0.123995   0.000913
    22  H    0.123561   0.032015
    23  H    0.103343   0.005958
    24  H    0.326333   0.004383
    25  H    0.127756  -0.014402
    26  H    0.123114  -0.008808
    27  H    0.156618   0.004172
    28  H    0.274300   0.006667
    29  H    0.220231   0.003995
    30  H    0.148348   0.025540
    31  H    0.124973   0.000256
    32  H    0.136848   0.017294
 Sum of Mulliken charges =  -1.00000   1.00000

 Dipole moment (field-independent basis, Debye):
    X=             -2.1432    Y=              3.0679    Z=              4.0963  Tot=              5.5485
 Quadrupole moment (field-independent basis, Debye-Ang):
   XX=           -155.6043   YY=           -139.8718   ZZ=           -130.7691
   XY=              3.3307   XZ=              5.7954   YZ=             -3.3760

 Summary of Natural Population Analysis:

                                       Natural Population
                Natural  -----------------------------------------------
    Atom  No    Charge         Core      Valence    Rydberg      Total
 -----------------------------------------------------------------------
      C    1   -0.30019      0.99964     2.29580    0.00476     3.30019
      C    2    0.17766      0.99957     1.81113    0.01164     2.82234
      C    3   -0.18333      0.99946     2.17683    0.00704     3.18333
      C    4    0.18378      0.99957     1.80509    0.01155     2.81622
      N    5   -0.24995      0.99963     2.73791    0.01241     3.74995
      C    6    0.28990      0.99960     1.68796    0.02253     2.71010
      N    7   -0.26132      0.99963     2.75100    0.01069     3.76132
      N    8   -0.43702      0.99968     2.92228    0.01506     3.93702
      S    9    1.09235      4.99925     1.80941    0.09899     6.90765
      O   10   -0.46695      0.99991     3.46165    0.00539     4.46695
      O   11   -0.44277      0.99990     3.43741    0.00547     4.44277
      C   12    0.00230      0.99937     1.97621    0.02212     2.99770
      C   13    0.06946      0.99945     1.91974    0.01135     2.93054
      C   14   -0.07892      0.99954     2.07069    0.00869     3.07892
      C   15   -0.08649      0.99958     2.07826    0.00865     3.08649
      C   16   -0.01036      0.99960     1.99568    0.01508     3.01036
      N   17   -0.16705      0.99964     2.65672    0.01069     3.66705
      N   18   -0.39435      0.99970     2.88634    0.00831     3.89435
      C   19   -0.30222      0.99964     2.29767    0.00490     3.30222
      H   20    0.10568      0.00000     0.39332    0.00100     0.39432
      H   21    0.09361      0.00000     0.40559    0.00079     0.40639
      H   22    0.10702      0.00000     0.39198    0.00100     0.39298
      H   23    0.09599      0.00000     0.40296    0.00105     0.40401
      H   24    0.20289      0.00000     0.29571    0.00140     0.29711
      H   25    0.08914      0.00000     0.40929    0.00157     0.41086
      H   26    0.09278      0.00000     0.40601    0.00122     0.40722
      H   27    0.08366      0.00000     0.41505    0.00129     0.41634
      H   28    0.20128      0.00000     0.29733    0.00140     0.29872
      H   29    0.18028      0.00000     0.31819    0.00152     0.31972
      H   30    0.11235      0.00000     0.38665    0.00100     0.38765
      H   31    0.09112      0.00000     0.40805    0.00083     0.40888
      H   32    0.10968      0.00000     0.38932    0.00100     0.39032
 =======================================================================
   * Total *   -0.00000     22.99236    49.69724    0.31039    73.00000

 Normal termination of Gaussian 16 at Sun Dec 13 18:07:55 2020.
