 Gaussian 16, Revision A.03,

 -----------------------------------------------------------
 # opt freq B3LYP/6-31G(d) empiricaldispersion=gd3bj scf=xqc
 -----------------------------------------------------------

 -------------------------------
 CID_114326988_JID_7297_neutraal
 -------------------------------
 Symbolic Z-matrix:
 Charge =  0 Multiplicity = 1

 SCF Done:  E(RB3LYP) =  -730.312412558     A.U. after   14 cycles
 SCF Done:  E(RB3LYP) =  -730.317775913     A.U. after   12 cycles
 SCF Done:  E(RB3LYP) =  -730.318521777     A.U. after   11 cycles
 SCF Done:  E(RB3LYP) =  -730.318431413     A.U. after   12 cycles
 SCF Done:  E(RB3LYP) =  -730.318807080     A.U. after   11 cycles
 SCF Done:  E(RB3LYP) =  -730.318849235     A.U. after    9 cycles
 SCF Done:  E(RB3LYP) =  -730.318859906     A.U. after    9 cycles
 SCF Done:  E(RB3LYP) =  -730.318861516     A.U. after    8 cycles
 SCF Done:  E(RB3LYP) =  -730.318862487     A.U. after    8 cycles
 SCF Done:  E(RB3LYP) =  -730.318862786     A.U. after    7 cycles
 SCF Done:  E(RB3LYP) =  -730.318862918     A.U. after    7 cycles
 Optimization completed.
    -- Stationary point found.
 Normal termination of Gaussian 16 at Mon Dec 14 16:37:44 2020.

 --------------------------------------------------------------------
 #N Geom=AllCheck Guess=TCheck SCRF=Check GenChk RB3LYP/6-31G(d) Freq
 --------------------------------------------------------------------

 Structure from the checkpoint file:  "JID_7297.chk"
 -------------------------------
 CID_114326988_JID_7297_neutraal
 -------------------------------
 Charge =  0 Multiplicity = 1

 SCF Done:  E(RB3LYP) =  -730.318862918     A.U. after    1 cycles

  Exact polarizability: 174.561   7.444 169.101 -20.932   7.586 123.939
 Approx polarizability: 231.644  13.874 266.934 -42.829  20.138 206.220

                      1                      2                      3
                      A                      A                      A
 Frequencies --     31.2950                42.4696                87.9644
 Red. masses --      4.2155                 4.8656                 3.4691
 Frc consts  --      0.0024                 0.0052                 0.0158
 IR Inten    --      0.5216                 0.4245                 0.2037

                      4                      5                      6
                      A                      A                      A
 Frequencies --     98.9712               154.7817               188.0703
 Red. masses --      4.1131                 2.3092                 3.5816
 Frc consts  --      0.0237                 0.0326                 0.0746
 IR Inten    --      0.1851                 1.0242                 3.2401

                      7                      8                      9
                      A                      A                      A
 Frequencies --    192.7688               232.2691               242.1765
 Red. masses --      4.0393                 3.5800                 2.5449
 Frc consts  --      0.0884                 0.1138                 0.0879
 IR Inten    --      1.0416                 5.9195                 6.8828

                     10                     11                     12
                      A                      A                      A
 Frequencies --    253.4943               274.7987               305.0050
 Red. masses --      3.1532                 1.0495                 3.2099
 Frc consts  --      0.1194                 0.0467                 0.1759
 IR Inten    --      0.2295                71.6868                 5.2560

                     13                     14                     15
                      A                      A                      A
 Frequencies --    381.5754               391.0583               402.6270
 Red. masses --      2.4112                 2.2969                 2.0278
 Frc consts  --      0.2068                 0.2070                 0.1937
 IR Inten    --      2.2772                 1.6590                 2.1866

                     16                     17                     18
                      A                      A                      A
 Frequencies --    419.0006               458.4838               483.5599
 Red. masses --      2.6169                 2.4864                 3.6904
 Frc consts  --      0.2707                 0.3079                 0.5084
 IR Inten    --      3.9118                 2.7642                 8.9950

                     19                     20                     21
                      A                      A                      A
 Frequencies --    512.9388               517.2001               539.2363
 Red. masses --      4.2566                 3.4648                 2.3697
 Frc consts  --      0.6598                 0.5461                 0.4060
 IR Inten    --      3.8113                 8.6685                39.2750

                     22                     23                     24
                      A                      A                      A
 Frequencies --    563.5112               603.5467               620.0580
 Red. masses --      3.2094                 4.5843                 2.7528
 Frc consts  --      0.6005                 0.9839                 0.6236
 IR Inten    --     13.8221                 0.3734                68.6240

                     25                     26                     27
                      A                      A                      A
 Frequencies --    686.1279               711.5891               741.9815
 Red. masses --      3.3803                 3.0162                 2.2723
 Frc consts  --      0.9376                 0.8998                 0.7371
 IR Inten    --     10.0061                 1.3942                11.0526

                     28                     29                     30
                      A                      A                      A
 Frequencies --    766.6288               781.7628               812.5874
 Red. masses --      1.5353                 2.5170                 3.1472
 Frc consts  --      0.5316                 0.9063                 1.2244
 IR Inten    --     46.8431                14.2631                21.6480

                     31                     32                     33
                      A                      A                      A
 Frequencies --    822.0390               835.1814               868.2650
 Red. masses --      1.5749                 2.9432                 2.4894
 Frc consts  --      0.6270                 1.2096                 1.1057
 IR Inten    --      0.7028                 3.7099                 2.3998

                     34                     35                     36
                      A                      A                      A
 Frequencies --    898.8169               902.3131               916.7360
 Red. masses --      2.3505                 2.3343                 1.3834
 Frc consts  --      1.1188                 1.1197                 0.6850
 IR Inten    --      7.0220                 1.3669                 0.1313

                     37                     38                     39
                      A                      A                      A
 Frequencies --    948.6162               957.6714               960.1045
 Red. masses --      1.2875                 2.4945                 2.1630
 Frc consts  --      0.6826                 1.3479                 1.1747
 IR Inten    --      1.4308                 8.0815                 2.5740

                     40                     41                     42
                      A                      A                      A
 Frequencies --    986.7140              1007.1969              1016.3693
 Red. masses --      2.6903                 2.5806                 2.5298
 Frc consts  --      1.5432                 1.5424                 1.5397
 IR Inten    --     20.2759                 4.6080                11.3682

                     43                     44                     45
                      A                      A                      A
 Frequencies --   1033.8157              1063.2543              1065.6407
 Red. masses --      1.5211                 2.1232                 2.4048
 Frc consts  --      0.9579                 1.4142                 1.6090
 IR Inten    --      2.8686                 7.9145                 6.8195

                     46                     47                     48
                      A                      A                      A
 Frequencies --   1091.4112              1097.3052              1119.3131
 Red. masses --      1.8723                 1.9125                 1.5043
 Frc consts  --      1.3140                 1.3568                 1.1104
 IR Inten    --      2.0000                39.8543                 0.8174

                     49                     50                     51
                      A                      A                      A
 Frequencies --   1128.6848              1143.8875              1145.9397
 Red. masses --      2.4106                 2.3842                 2.1772
 Frc consts  --      1.8093                 1.8381                 1.6845
 IR Inten    --     70.5582                22.5642                41.8496

                     52                     53                     54
                      A                      A                      A
 Frequencies --   1192.4825              1200.5807              1211.2895
 Red. masses --      1.2665                 1.2374                 1.4221
 Frc consts  --      1.0611                 1.0508                 1.2293
 IR Inten    --      2.0477                 6.4283                 3.6492

                     55                     56                     57
                      A                      A                      A
 Frequencies --   1220.4316              1222.7676              1237.3435
 Red. masses --      1.2976                 1.2167                 2.1263
 Frc consts  --      1.1387                 1.0718                 1.9180
 IR Inten    --      2.3147                10.2187                 3.4715

                     58                     59                     60
                      A                      A                      A
 Frequencies --   1258.1827              1285.7416              1295.9578
 Red. masses --      1.3454                 2.4476                 1.5607
 Frc consts  --      1.2548                 2.3840                 1.5444
 IR Inten    --      9.9804                 9.8375                28.8667

                     61                     62                     63
                      A                      A                      A
 Frequencies --   1320.1192              1328.0609              1338.8891
 Red. masses --      1.4547                 1.6596                 1.3651
 Frc consts  --      1.4937                 1.7246                 1.4418
 IR Inten    --      3.4379                 8.8076                13.6116

                     64                     65                     66
                      A                      A                      A
 Frequencies --   1352.0766              1359.8459              1365.2343
 Red. masses --      1.5328                 1.6841                 1.4753
 Frc consts  --      1.6509                 1.8349                 1.6202
 IR Inten    --     13.3064                53.9480                 2.0735

                     67                     68                     69
                      A                      A                      A
 Frequencies --   1379.4476              1383.3799              1390.2009
 Red. masses --      1.5108                 1.3171                 1.8989
 Frc consts  --      1.6938                 1.4851                 2.1623
 IR Inten    --      6.0337                31.5249                 4.9444

                     70                     71                     72
                      A                      A                      A
 Frequencies --   1409.0583              1414.1098              1436.3089
 Red. masses --      1.4632                 1.4491                 1.3647
 Frc consts  --      1.7116                 1.7073                 1.6588
 IR Inten    --      0.0864                 0.1063                38.7808

                     73                     74                     75
                      A                      A                      A
 Frequencies --   1451.4556              1460.5230              1494.3317
 Red. masses --      1.3174                 1.6597                 1.1108
 Frc consts  --      1.6352                 2.0859                 1.4614
 IR Inten    --     16.5596                 3.3313                 0.9665

                     76                     77                     78
                      A                      A                      A
 Frequencies --   1498.3423              1508.0914              1510.6159
 Red. masses --      2.1167                 1.0979                 1.1119
 Frc consts  --      2.7998                 1.4712                 1.4949
 IR Inten    --     57.7499                10.6772                 6.6002

                     79                     80                     81
                      A                      A                      A
 Frequencies --   1515.9642              1528.9513              1539.8894
 Red. masses --      1.2841                 2.4899                 1.0793
 Frc consts  --      1.7387                 3.4294                 1.5079
 IR Inten    --     12.5201                15.0475                 1.2778

                     82                     83                     84
                      A                      A                      A
 Frequencies --   1549.8034              1550.9968              1659.8762
 Red. masses --      1.0990                 1.1372                 6.4487
 Frc consts  --      1.5552                 1.6118                10.4682
 IR Inten    --     17.5221                 0.5502                11.9945

                     85                     86                     87
                      A                      A                      A
 Frequencies --   1665.2795              2905.1152              2922.7696
 Red. masses --      6.3538                 1.0724                 1.0728
 Frc consts  --     10.3815                 5.3328                 5.3997
 IR Inten    --     16.3179                44.3788                71.2891

                     88                     89                     90
                      A                      A                      A
 Frequencies --   2993.4622              3037.2750              3042.9935
 Red. masses --      1.0738                 1.0689                 1.0634
 Frc consts  --      5.6692                 5.8097                 5.8017
 IR Inten    --     69.3188                36.4853                25.8771

                     91                     92                     93
                      A                      A                      A
 Frequencies --   3047.1171              3055.4215              3060.3083
 Red. masses --      1.0743                 1.0633                 1.0693
 Frc consts  --      5.8770                 5.8484                 5.9003
 IR Inten    --     35.2773                22.8639                40.1248

                     94                     95                     96
                      A                      A                      A
 Frequencies --   3075.6240              3087.0015              3087.5544
 Red. masses --      1.0857                 1.1005                 1.0896
 Frc consts  --      6.0512                 6.1789                 6.1200
 IR Inten    --     35.8842                34.3753                59.7787

                     97                     98                     99
                      A                      A                      A
 Frequencies --   3104.0679              3104.0976              3106.7443
 Red. masses --      1.0927                 1.1027                 1.1050
 Frc consts  --      6.2034                 6.2600                 6.2836
 IR Inten    --     20.8698                35.2953                35.6574

                    100                    101                    102
                      A                      A                      A
 Frequencies --   3110.4375              3174.4819              3184.5375
 Red. masses --      1.0960                 1.0868                 1.0897
 Frc consts  --      6.2475                 6.4526                 6.5110
 IR Inten    --     43.1489                 7.4612                19.9190

                    103                    104                    105
                      A                      A                      A
 Frequencies --   3206.8350              3601.0488              3740.2513
 Red. masses --      1.0956                 1.0752                 1.0655
 Frc consts  --      6.6381                 8.2148                 8.7821
 IR Inten    --     28.7154                12.6868                 9.1064

 - Thermochemistry -
 -------------------
 Temperature   298.150 Kelvin.  Pressure   1.00000 Atm.
 Atom     1 has atomic number  6 and mass  12.00000

 Molecular mass:   232.15756 amu.
 Principal axes and moments of inertia in atomic units:
                           1         2         3
     Eigenvalues --  2275.326055864.222696550.01703
           X            0.99989   0.01059  -0.01017
           Y           -0.01054   0.99993   0.00460
           Z            0.01022  -0.00449   0.99994
 This molecule is an asymmetric top.
 Rotational symmetry number  1.
 Warning -- assumption of classical behavior for rotation
           may cause significant error
 Rotational temperatures (Kelvin)      0.03807     0.01477     0.01322
 Rotational constants (GHZ):           0.79318     0.30775     0.27553
 Zero-point vibrational energy     859454.6 (Joules/Mol)
                                  205.41458 (Kcal/Mol)
 Warning -- explicit consideration of  24 degrees of freedom as
           vibrations may cause significant error
 Vibrational temperatures:     45.03    61.10   126.56   142.40   222.70
          (Kelvin)            270.59   277.35   334.18   348.44   364.72
                              395.37   438.83   549.00   562.65   579.29
                              602.85   659.66   695.73   738.00   744.14
                              775.84   810.77   868.37   892.13   987.18
                             1023.82  1067.55  1103.01  1124.78  1169.13
                             1182.73  1201.64  1249.24  1293.20  1298.23
                             1318.98  1364.85  1377.88  1381.38  1419.66
                             1449.13  1462.33  1487.43  1529.79  1533.22
                             1570.30  1578.78  1610.44  1623.93  1645.80
                             1648.75  1715.72  1727.37  1742.78  1755.93
                             1759.29  1780.26  1810.24  1849.90  1864.59
                             1899.36  1910.78  1926.36  1945.34  1956.52
                             1964.27  1984.72  1990.38  2000.19  2027.32
                             2034.59  2066.53  2088.32  2101.37  2150.01
                             2155.78  2169.81  2173.44  2181.13  2199.82
                             2215.56  2229.82  2231.54  2388.19  2395.97
                             4179.81  4205.21  4306.92  4369.96  4378.19
                             4384.12  4396.07  4403.10  4425.14  4441.51
                             4442.30  4466.06  4466.10  4469.91  4475.23
                             4567.37  4581.84  4613.92  5181.11  5381.39

 Zero-point correction=                           0.327349 (Hartree/Particle)
 Thermal correction to Energy=                    0.342083
 Thermal correction to Enthalpy=                  0.343028
 Thermal correction to Gibbs Free Energy=         0.285350
 Sum of electronic and zero-point Energies=           -729.991514
 Sum of electronic and thermal Energies=              -729.976779
 Sum of electronic and thermal Enthalpies=            -729.975835
 Sum of electronic and thermal Free Energies=         -730.033513

                     E (Thermal)             CV                S
                      KCal/Mol        Cal/Mol-Kelvin    Cal/Mol-Kelvin
 Total                  214.661             59.937            121.392
 Electronic               0.000              0.000              0.000
 Translational            0.889              2.981             42.229
 Rotational               0.889              2.981             32.835
 Vibrational            212.883             53.976             46.328
 Vibration     1          0.594              1.983              5.746
 Vibration     2          0.595              1.980              5.140
 Vibration     3          0.601              1.958              3.705
 Vibration     4          0.604              1.950              3.474
 Vibration     5          0.620              1.897              2.613
 Vibration     6          0.633              1.856              2.247
 Vibration     7          0.635              1.850              2.201
 Vibration     8          0.653              1.792              1.861
 Vibration     9          0.658              1.776              1.787
 Vibration    10          0.665              1.757              1.706
 Vibration    11          0.677              1.720              1.566
 Vibration    12          0.696              1.664              1.389
 Vibration    13          0.751              1.509              1.033
 Vibration    14          0.759              1.489              0.996
 Vibration    15          0.768              1.464              0.953
 Vibration    16          0.782              1.429              0.895
 Vibration    17          0.817              1.342              0.771
 Vibration    18          0.840              1.287              0.701
 Vibration    19          0.868              1.221              0.627
 Vibration    20          0.872              1.212              0.616
 Vibration    21          0.894              1.163              0.567
 Vibration    22          0.919              1.110              0.517
 Vibration    23          0.962              1.024              0.444
 Vibration    24          0.980              0.990              0.416

 Optimization completed.
    -- Stationary point found.
 Normal termination of Gaussian 16 at Mon Dec 14 16:53:23 2020.

 ----------------------------------------------------------------------
 # B3LYP/6-311++G(d,p) empiricaldispersion=gd3bj scf=xqc pop=npa geom=c
 heck
 ----------------------------------------------------------------------

 ---------------------------------------
 CID_114326988_JID_7297_Energie_neutraal
 ---------------------------------------
 Structure from the checkpoint file:  "JID_7297.chk"
 Charge =  0 Multiplicity = 1

 SCF Done:  E(RB3LYP) =  -730.523863494     A.U. after   14 cycles
 Normal termination of Gaussian 16 at Mon Dec 14 17:00:44 2020.

 ----------------------------------------------------------------------
 # B3LYP/6-311++G(d,p) empiricaldispersion=gd3bj scf=xqc pop=npa geom=c
 heck
 ----------------------------------------------------------------------

 -------------------------------------
 CID_114326988_JID_7297_Energie_kation
 -------------------------------------
 Structure from the checkpoint file:  "JID_7297.chk"
 Charge =  1 Multiplicity = 2

 SCF Done:  E(UB3LYP) =  -730.257518555     A.U. after   24 cycles
 Normal termination of Gaussian 16 at Mon Dec 14 17:19:44 2020.
 Gaussian 16:  ES64L-G16RevA.03 25-Dec-2016

 ----------------------------------------------------------------------
 # B3LYP/6-311++G(d,p) empiricaldispersion=gd3bj scf=xqc pop=npa geom=c
 heck
 ----------------------------------------------------------------------

 ------------------------------------
 CID_114326988_JID_7297_Energie_anion
 ------------------------------------
 Structure from the checkpoint file:  "JID_7297.chk"
 Charge = -1 Multiplicity = 2

                         Standard orientation:
 ---------------------------------------------------------------------
 Center     Atomic      Atomic             Coordinates (Angstroms)
 Number     Number       Type             X           Y           Z
 ---------------------------------------------------------------------
      1          6           0        3.495121    0.880202    0.103500
      2          6           0        2.069707    1.228337   -0.331549
      3          7           0        1.516426    0.187262   -1.195938
      4          6           0        1.489875   -1.113323   -0.533302
      5          6           0        2.893667   -1.539575   -0.096387
      6          6           0        3.538774   -0.481573    0.807725
      7          8           0        2.919636   -0.436740    2.095382
      8          6           0        0.225219    0.566127   -1.793030
      9          6           0       -0.916324    0.827727   -0.826273
     10          6           0       -1.110466    2.103124   -0.269689
     11          6           0       -2.120368    2.369208    0.653343
     12          6           0       -2.993042    1.345392    1.047345
     13          6           0       -2.828606    0.079358    0.510289
     14          6           0       -1.803522   -0.176721   -0.418194
     15          7           0       -1.876856   -1.505398   -0.868394
     16          6           0       -2.691730   -2.259833    0.103512
     17          6           0       -3.637417   -1.187223    0.690175
     18          1           0        3.879465    1.654265    0.776880
     19          1           0        4.139399    0.847254   -0.783321
     20          1           0        2.069139    2.171812   -0.889370
     21          1           0        1.436739    1.402238    0.561470
     22          1           0        1.098113   -1.850041   -1.246248
     23          1           0        0.810836   -1.120276    0.344339
     24          1           0        3.514836   -1.675480   -0.989995
     25          1           0        2.844618   -2.495980    0.435639
     26          1           0        4.576942   -0.759313    1.016388
     27          1           0        2.007605   -0.128479    1.977147
     28          1           0        0.403446    1.470730   -2.386531
     29          1           0       -0.052916   -0.226502   -2.498559
     30          1           0       -0.446794    2.907175   -0.579355
     31          1           0       -2.232928    3.368964    1.061717
     32          1           0       -3.786251    1.542475    1.764202
     33          1           0       -0.996635   -1.940113   -1.112149
     34          1           0       -3.223388   -3.079436   -0.387720
     35          1           0       -2.063039   -2.684042    0.902904
     36          1           0       -3.911666   -1.397403    1.728361
     37          1           0       -4.566917   -1.134345    0.106683
 ---------------------------------------------------------------------

 SCF Done:  E(UB3LYP) =  -730.511550121     A.U. after   33 cycles
 SCF Done:  E(UB3LYP) =  -730.511550121     a.u. after    1 cycles

 The electronic state is 2-A.
 Alpha  occ. eigenvalues --  -19.02532 -14.22243 -14.21087 -10.12503 -10.10916
 Alpha  occ. eigenvalues --  -10.10692 -10.10138 -10.09779 -10.09766 -10.08463
 Alpha  occ. eigenvalues --  -10.07868 -10.07766 -10.07759 -10.07569 -10.07205
 Alpha  occ. eigenvalues --  -10.07188 -10.06872  -0.92839  -0.85213  -0.83355
 Alpha  occ. eigenvalues --   -0.74770  -0.70194  -0.68216  -0.66346  -0.64492
 Alpha  occ. eigenvalues --   -0.63038  -0.59253  -0.53912  -0.53590  -0.52109
 Alpha  occ. eigenvalues --   -0.49735  -0.48859  -0.45972  -0.43172  -0.41120
 Alpha  occ. eigenvalues --   -0.39350  -0.38374  -0.37903  -0.36932  -0.36815
 Alpha  occ. eigenvalues --   -0.36275  -0.34881  -0.34142  -0.32746  -0.31472
 Alpha  occ. eigenvalues --   -0.30532  -0.29640  -0.29153  -0.28704  -0.28462
 Alpha  occ. eigenvalues --   -0.27105  -0.26350  -0.26177  -0.25923  -0.25390
 Alpha  occ. eigenvalues --   -0.24357  -0.23997  -0.21888  -0.20251  -0.17787
 Alpha  occ. eigenvalues --   -0.15197  -0.12543  -0.10628   0.04203
 Alpha virt. eigenvalues --    0.06159   0.06466   0.07341   0.07592   0.07920
 Alpha virt. eigenvalues --    0.08229   0.09057   0.09474   0.09614   0.09880
 Alpha virt. eigenvalues --    0.10416   0.10504   0.10891   0.11429   0.12109

  Beta  occ. eigenvalues --  -19.02518 -14.22219 -14.21085 -10.12499 -10.10913
  Beta  occ. eigenvalues --  -10.10663 -10.10124 -10.09763 -10.09731 -10.08449
  Beta  occ. eigenvalues --  -10.07857 -10.07754 -10.07753 -10.07552 -10.07204
  Beta  occ. eigenvalues --  -10.07175 -10.06854  -0.92807  -0.85182  -0.83336
  Beta  occ. eigenvalues --   -0.74743  -0.70162  -0.68183  -0.66305  -0.64460
  Beta  occ. eigenvalues --   -0.62996  -0.59219  -0.53857  -0.53552  -0.52051
  Beta  occ. eigenvalues --   -0.49696  -0.48825  -0.45918  -0.43123  -0.41073
  Beta  occ. eigenvalues --   -0.39309  -0.38335  -0.37874  -0.36898  -0.36788
  Beta  occ. eigenvalues --   -0.36237  -0.34853  -0.34116  -0.32715  -0.31435
  Beta  occ. eigenvalues --   -0.30487  -0.29597  -0.29120  -0.28671  -0.28421
  Beta  occ. eigenvalues --   -0.27072  -0.26314  -0.26138  -0.25894  -0.25364
  Beta  occ. eigenvalues --   -0.24332  -0.23966  -0.21853  -0.20210  -0.17765
  Beta  occ. eigenvalues --   -0.15132  -0.12517  -0.10578
  Beta virt. eigenvalues --    0.06244   0.06796   0.07119   0.07562   0.08043
  Beta virt. eigenvalues --    0.08470   0.08573   0.09383   0.09625   0.09925
  Beta virt. eigenvalues --    0.10067   0.10743   0.10866   0.11119   0.11733

 Mulliken charges and spin densities:
               1          2
     1  C    0.450973  -1.164575
     2  C   -0.292855   0.133720
     3  N    0.101974   0.123118
     4  C   -0.501490   0.137722
     5  C    1.031122  -1.559541
     6  C   -0.641663   0.469822
     7  O   -0.178264  -0.007298
     8  C    0.114680  -0.713981
     9  C   -0.523859   1.017976
    10  C    0.205414  -0.423648
    11  C   -0.120347  -0.253558
    12  C   -0.088847  -0.541024
    13  C    0.212551   0.040741
    14  C   -0.712035   0.906585
    15  N   -0.019688   0.053837
    16  C    0.638907  -0.974248
    17  C    0.502589  -0.903797
    18  H   -0.016403   0.205123
    19  H   -0.082107   0.231112
    20  H   -0.142679   0.307645
    21  H    0.308003  -0.166170
    22  H   -0.594914   0.780230
    23  H    0.695557  -0.561586
    24  H   -0.059369   0.202884
    25  H   -0.232520   0.427598
    26  H    0.053172   0.158073
    27  H    0.094527   0.138832
    28  H   -0.216078   0.420116
    29  H   -0.004464   0.188589
    30  H   -0.113108   0.258511
    31  H   -0.133086   0.291204
    32  H   -0.090327   0.231549
    33  H    0.055469   0.194614
    34  H   -0.454836   0.634639
    35  H   -0.182361   0.333205
    36  H   -0.228987   0.392921
    37  H    0.165352  -0.010942
 Sum of Mulliken charges =  -1.00000   1.00000

 Dipole moment (field-independent basis, Debye):
    X=             -0.8854    Y=              3.0649    Z=              0.0555  Tot=              3.1907
 Quadrupole moment (field-independent basis, Debye-Ang):
   XX=           -165.3346   YY=           -159.1488   ZZ=           -146.0205
   XY=             -4.6348   XZ=              0.7252   YZ=              1.7459

 Summary of Natural Population Analysis:

                                       Natural Population
                Natural  -----------------------------------------------
    Atom  No    Charge         Core      Valence    Rydberg      Total
 -----------------------------------------------------------------------
      C    1   -0.20510      0.99960     2.19643    0.00907     3.20510
      C    2   -0.09137      0.99960     2.07902    0.01274     3.09137
      N    3   -0.27875      0.99971     2.76552    0.01351     3.77875
      C    4   -0.09154      0.99960     2.07831    0.01362     3.09154
      C    5   -0.20396      0.99960     2.19461    0.00975     3.20396
      C    6    0.06531      0.99955     1.92126    0.01388     2.93469
      O    7   -0.37354      0.99990     3.36709    0.00655     4.37354
      C    8   -0.08837      0.99958     2.07630    0.01249     3.08837
      C    9   -0.05108      0.99945     2.04246    0.00917     3.05108
      C   10   -0.09181      0.99953     2.08213    0.01015     3.09181
      C   11   -0.11885      0.99957     2.10972    0.00956     3.11885
      C   12   -0.09554      0.99951     2.08738    0.00865     3.09554
      C   13   -0.03079      0.99947     2.02115    0.01016     3.03079
      C   14    0.09275      0.99940     1.89643    0.01142     2.90725
      N   15   -0.31973      0.99969     2.80975    0.01029     3.81973
      C   16   -0.07924      0.99964     2.06915    0.01044     3.07924
      C   17   -0.19875      0.99961     2.19077    0.00837     3.19875
      H   18    0.10229      0.00000     0.39674    0.00097     0.39771
      H   19    0.10199      0.00000     0.39652    0.00149     0.39801
      H   20    0.10074      0.00000     0.39767    0.00159     0.39926
      H   21    0.08037      0.00000     0.41763    0.00200     0.41963
      H   22    0.09828      0.00000     0.39932    0.00241     0.40172
      H   23    0.07856      0.00000     0.41848    0.00295     0.42144
      H   24    0.10141      0.00000     0.39700    0.00159     0.39859
      H   25    0.10524      0.00000     0.39366    0.00109     0.39476
      H   26    0.08819      0.00000     0.41067    0.00114     0.41181
      H   27    0.22773      0.00000     0.26909    0.00318     0.27227
      H   28    0.09990      0.00000     0.39880    0.00129     0.40010
      H   29    0.09992      0.00000     0.39856    0.00152     0.40008
      H   30    0.09915      0.00000     0.39923    0.00161     0.40085
      H   31    0.09855      0.00000     0.40064    0.00081     0.40145
      H   32    0.09893      0.00000     0.40022    0.00084     0.40107
      H   33    0.19064      0.00000     0.30506    0.00430     0.30936
      H   34    0.09531      0.00000     0.40309    0.00160     0.40469
      H   35    0.08642      0.00000     0.41140    0.00218     0.41358
      H   36    0.10683      0.00000     0.39190    0.00127     0.39317
      H   37    0.09990      0.00000     0.39900    0.00110     0.40010
 =======================================================================
   * Total *   -0.00000     16.99303    45.79219    0.21478    63.00000

 Normal termination of Gaussian 16 at Mon Dec 14 17:47:58 2020.
