 Gaussian 16, Revision A.03,

 -----------------------------------------------------------
 # opt freq B3LYP/6-31G(d) empiricaldispersion=gd3bj scf=xqc
 -----------------------------------------------------------

 ------------------------------
 CID_151527581_JID_113_neutraal
 ------------------------------
 Symbolic Z-matrix:
 Charge =  0 Multiplicity = 1

 SCF Done:  E(RB3LYP) =  -453.598253120     A.U. after   15 cycles
 SCF Done:  E(RB3LYP) =  -453.600881859     A.U. after   13 cycles
 SCF Done:  E(RB3LYP) =  -453.601910816     A.U. after   13 cycles
 SCF Done:  E(RB3LYP) =  -453.602364395     A.U. after   12 cycles
 SCF Done:  E(RB3LYP) =  -453.602609356     A.U. after   12 cycles
 SCF Done:  E(RB3LYP) =  -453.602710148     A.U. after   12 cycles
 SCF Done:  E(RB3LYP) =  -453.602858869     A.U. after   13 cycles
 SCF Done:  E(RB3LYP) =  -453.602852843     A.U. after   13 cycles
 SCF Done:  E(RB3LYP) =  -453.603194965     A.U. after   13 cycles
 SCF Done:  E(RB3LYP) =  -453.603446051     A.U. after   14 cycles
 SCF Done:  E(RB3LYP) =  -453.603352218     A.U. after   13 cycles
 SCF Done:  E(RB3LYP) =  -453.603518086     A.U. after   13 cycles
 SCF Done:  E(RB3LYP) =  -453.603527291     A.U. after   11 cycles
 SCF Done:  E(RB3LYP) =  -453.603528631     A.U. after   10 cycles
 SCF Done:  E(RB3LYP) =  -453.603528760     A.U. after    8 cycles
 SCF Done:  E(RB3LYP) =  -453.603528795     A.U. after    7 cycles
 Optimization completed.
    -- Stationary point found.

 1\1\GINC-NODE310\FOpt\RB3LYP\6-31G(d)\C6H10N4\VSC10255\08-Dec-2020\0\\
 # opt freq B3LYP/6-31G(d) empiricaldispersion=gd3bj scf=xqc\\CID_15152
 7581_JID_113_neutraal\\0,1\C,-0.6610947428,-1.306506478,0.1356386731\C
 ,0.6322531846,-1.1170058185,-0.6591742932\N,1.3923110429,0.0042549871,
 -0.1053859962\C,0.697465309,1.2843559247,-0.2535336749\C,-0.7578442731
 ,1.175524296,0.1064544332\C,-1.3745071145,0.0088469076,0.3010717029\C,
 2.7603038574,0.0520252756,-0.4992795928\N,3.0021070624,0.3408617803,-1
 .9699318872\N,3.0678820079,-0.6557238975,-2.6918508595\N,3.1567242025,

 Normal termination of Gaussian 16 at Tue Dec  8 10:18:14 2020.

 --------------------------------------------------------------------
 #N Geom=AllCheck Guess=TCheck SCRF=Check GenChk RB3LYP/6-31G(d) Freq
 --------------------------------------------------------------------

 Structure from the checkpoint file:  "JID_113.chk"
 ------------------------------
 CID_151527581_JID_113_neutraal
 ------------------------------
 Charge =  0 Multiplicity = 1

 SCF Done:  E(RB3LYP) =  -453.603528795     A.U. after    1 cycles

  Exact polarizability: 102.119  -8.589  95.048   1.491   0.436  62.291
 Approx polarizability: 140.114 -31.329 178.397  10.969  -4.805  95.327

                      1                      2                      3
                      A                      A                      A
 Frequencies --     45.1053                77.2455               108.3919
 Red. masses --      7.4880                 4.1875                 4.0617
 Frc consts  --      0.0090                 0.0147                 0.0281
 IR Inten    --      0.1939                 0.9523                 1.0753

                      4                      5                      6
                      A                      A                      A
 Frequencies --    196.8483               213.1767               265.0734
 Red. masses --      2.1371                 5.7207                 3.0838
 Frc consts  --      0.0488                 0.1532                 0.1277
 IR Inten    --      3.7813                 0.9356                 5.2930

                      7                      8                      9
                      A                      A                      A
 Frequencies --    389.7484               395.3583               405.8195
 Red. masses --      2.5435                 2.2155                 2.3042
 Frc consts  --      0.2276                 0.2040                 0.2236
 IR Inten    --      3.4541                 0.7007                 5.0893

                     10                     11                     12
                      A                      A                      A
 Frequencies --    527.8624               567.8195               585.4086
 Red. masses --      3.7293                 7.6997                10.8492
 Frc consts  --      0.6122                 1.4627                 2.1906
 IR Inten    --      1.1249                 5.6884                22.2353

                     13                     14                     15
                      A                      A                      A
 Frequencies --    664.3695               677.8053               763.1470
 Red. masses --      1.6917                 2.4284                 3.5406
 Frc consts  --      0.4399                 0.6573                 1.2149
 IR Inten    --     54.1554                11.1162                 3.1255

                     16                     17                     18
                      A                      A                      A
 Frequencies --    809.8895               822.0408               909.7502
 Red. masses --      2.5461                 3.5945                 2.7695
 Frc consts  --      0.9840                 1.4311                 1.3505
 IR Inten    --      7.8873               132.1743                 1.5279

                     19                     20                     21
                      A                      A                      A
 Frequencies --    940.9418               990.2635               999.5026
 Red. masses --      2.5529                 1.2479                 2.2967
 Frc consts  --      1.3317                 0.7210                 1.3518
 IR Inten    --      2.9776                 3.5179                10.9795

                     22                     23                     24
                      A                      A                      A
 Frequencies --   1029.2282              1052.2672              1062.2073
 Red. masses --      1.8466                 2.0062                 1.7823
 Frc consts  --      1.1525                 1.3088                 1.1848
 IR Inten    --     15.3489                13.8747                 8.9734

                     25                     26                     27
                      A                      A                      A
 Frequencies --   1085.5174              1164.1134              1190.1667
 Red. masses --      2.0410                 1.5133                 2.0394
 Frc consts  --      1.4170                 1.2083                 1.7020
 IR Inten    --     15.8737                 9.0557               127.0571

                     28                     29                     30
                      A                      A                      A
 Frequencies --   1234.5225              1237.7448              1268.3398
 Red. masses --      1.3006                 1.1632                 1.2322
 Frc consts  --      1.1679                 1.0499                 1.1679
 IR Inten    --      2.2730                15.0097                 4.4317

                     31                     32                     33
                      A                      A                      A
 Frequencies --   1314.2578              1339.7307              1372.0660
 Red. masses --      4.0711                 1.5201                 1.4066
 Frc consts  --      4.1431                 1.6075                 1.5601
 IR Inten    --    169.8368                45.3190                 9.0947

                     34                     35                     36
                      A                      A                      A
 Frequencies --   1383.9098              1399.9027              1414.5866
 Red. masses --      1.3160                 1.4828                 1.5042
 Frc consts  --      1.4850                 1.7121                 1.7734
 IR Inten    --     10.8162                 7.2072                14.1167

                     37                     38                     39
                      A                      A                      A
 Frequencies --   1439.5183              1444.0085              1503.3423
 Red. masses --      1.7140                 1.4102                 1.0920
 Frc consts  --      2.0926                 1.7325                 1.4540
 IR Inten    --      4.5254                 8.0749                 2.5448

                     40                     41                     42
                      A                      A                      A
 Frequencies --   1506.0649              1521.1354              1535.8910
 Red. masses --      1.1051                 1.0830                 1.1005
 Frc consts  --      1.4768                 1.4765                 1.5295
 IR Inten    --      3.0096                 1.2620                 7.8833

                     43                     44                     45
                      A                      A                      A
 Frequencies --   1747.4664              2247.7527              2951.4706
 Red. masses --      6.3619                13.6424                 1.0727
 Frc consts  --     11.4460                40.6105                 5.5054
 IR Inten    --      2.0947               554.1232                37.7789

                     46                     47                     48
                      A                      A                      A
 Frequencies --   2974.0616              3032.4223              3041.1416
 Red. masses --      1.0716                 1.0625                 1.0865
 Frc consts  --      5.5845                 5.7564                 5.9203
 IR Inten    --     41.4434                31.8059                32.3099

                     49                     50                     51
                      A                      A                      A
 Frequencies --   3065.2670              3068.5959              3084.9046
 Red. masses --      1.0655                 1.0982                 1.0912
 Frc consts  --      5.8985                 6.0926                 6.1185
 IR Inten    --     41.2899                20.9074                42.1457

                     52                     53                     54
                      A                      A                      A
 Frequencies --   3144.5725              3167.5550              3189.8976
 Red. masses --      1.1044                 1.0848                 1.0973
 Frc consts  --      6.4341                 6.4130                 6.5786
 IR Inten    --     16.2416                 9.0916                37.9434

 - Thermochemistry -
 -------------------
 Temperature   298.150 Kelvin.  Pressure   1.00000 Atm.
 Atom     1 has atomic number  6 and mass  12.00000

 Molecular mass:   138.09055 amu.
 Principal axes and moments of inertia in atomic units:
                           1         2         3
     Eigenvalues --   634.594372184.435412492.19742
           X            0.99983   0.01259  -0.01354
           Y           -0.01227   0.99964   0.02392
           Z            0.01383  -0.02375   0.99962
 This molecule is an asymmetric top.
 Rotational symmetry number  1.
 Warning -- assumption of classical behavior for rotation
           may cause significant error
 Rotational temperatures (Kelvin)      0.13649     0.03965     0.03475
 Rotational constants (GHZ):           2.84393     0.82618     0.72416
 Zero-point vibrational energy     440041.5 (Joules/Mol)
                                  105.17245 (Kcal/Mol)
 Warning -- explicit consideration of  12 degrees of freedom as
           vibrations may cause significant error
 Vibrational temperatures:     64.90   111.14   155.95   283.22   306.71
          (Kelvin)            381.38   560.76   568.83   583.88   759.48
                              816.97   842.27   955.88   975.21  1098.00
                             1165.25  1182.73  1308.93  1353.81  1424.77
                             1438.06  1480.83  1513.98  1528.28  1561.82
                             1674.90  1712.38  1776.20  1780.84  1824.86
                             1890.92  1927.57  1974.10  1991.14  2014.15
                             2035.27  2071.15  2077.61  2162.97  2166.89
                             2188.57  2209.80  2514.21  3234.01  4246.51
                             4279.01  4362.98  4375.52  4410.24  4415.03
                             4438.49  4524.34  4557.41  4589.55

 Zero-point correction=                           0.167603 (Hartree/Particle)
 Thermal correction to Energy=                    0.176780
 Thermal correction to Enthalpy=                  0.177724
 Thermal correction to Gibbs Free Energy=         0.132425
 Sum of electronic and zero-point Energies=           -453.435926
 Sum of electronic and thermal Energies=              -453.426749
 Sum of electronic and thermal Enthalpies=            -453.425805
 Sum of electronic and thermal Free Energies=         -453.471104

                     E (Thermal)             CV                S
                      KCal/Mol        Cal/Mol-Kelvin    Cal/Mol-Kelvin
 Total                  110.931             33.920             95.340
 Electronic               0.000              0.000              0.000
 Translational            0.889              2.981             40.680
 Rotational               0.889              2.981             29.625
 Vibrational            109.153             27.959             25.034
 Vibration     1          0.595              1.979              5.021
 Vibration     2          0.599              1.964              3.960
 Vibration     3          0.606              1.943              3.298
 Vibration     4          0.636              1.844              2.162
 Vibration     5          0.644              1.821              2.016
 Vibration     6          0.671              1.737              1.628
 Vibration     7          0.758              1.492              1.001
 Vibration     8          0.762              1.480              0.980
 Vibration     9          0.771              1.458              0.942
 Vibration    10          0.883              1.188              0.592
 Vibration    11          0.924              1.101              0.508
 Vibration    12          0.942              1.063              0.475

 Optimization completed.
    -- Stationary point found.

 1\1\GINC-NODE310\Freq\RB3LYP\6-31G(d)\C6H10N4\VSC10255\08-Dec-2020\0\\
 #N Geom=AllCheck Guess=TCheck SCRF=Check GenChk RB3LYP/6-31G(d) Freq\\
 CID_151527581_JID_113_neutraal\\0,1\C,-0.6610947428,-1.306506478,0.135
 6386731\C,0.6322531846,-1.1170058185,-0.6591742932\N,1.3923110429,0.00
 42549871,-0.1053859962\C,0.697465309,1.2843559247,-0.2535336749\C,-0.7
 578442731,1.175524296,0.1064544332\C,-1.3745071145,0.0088469076,0.3010
 717029\C,2.7603038574,0.0520252756,-0.4992795928\N,3.0021070624,0.3408
 617803,-1.9699318872\N,3.0678820079,-0.6557238975,-2.6918508595\N,3.15

 Normal termination of Gaussian 16 at Tue Dec  8 10:21:21 2020.

 ----------------------------------------------------------------------
 # B3LYP/6-311++G(d,p) empiricaldispersion=gd3bj scf=xqc pop=npa geom=c
 heck
 ----------------------------------------------------------------------

 --------------------------------------
 CID_151527581_JID_113_Energie_neutraal
 --------------------------------------
 Structure from the checkpoint file:  "JID_113.chk"
 Charge =  0 Multiplicity = 1

 SCF Done:  E(RB3LYP) =  -453.728894753     A.U. after   15 cycles
 Normal termination of Gaussian 16 at Tue Dec  8 10:22:16 2020.

 ----------------------------------------------------------------------
 # B3LYP/6-311++G(d,p) empiricaldispersion=gd3bj scf=xqc pop=npa geom=c
 heck
 ----------------------------------------------------------------------

 ------------------------------------
 CID_151527581_JID_113_Energie_kation
 ------------------------------------
 Structure from the checkpoint file:  "JID_113.chk"
 Charge =  1 Multiplicity = 2

 SCF Done:  E(UB3LYP) =  -453.418994268     A.U. after   26 cycles
 Normal termination of Gaussian 16 at Tue Dec  8 10:24:46 2020.
 Gaussian 16:  ES64L-G16RevA.03 25-Dec-2016

 -----------------------------------
 CID_151527581_JID_113_Energie_anion
 -----------------------------------
 Structure from the checkpoint file:  "JID_113.chk"
 Charge = -1 Multiplicity = 2

                         Standard orientation:
 ---------------------------------------------------------------------
 Center     Atomic      Atomic             Coordinates (Angstroms)
 Number     Number       Type             X           Y           Z
 ---------------------------------------------------------------------
      1          6           0        1.861022    1.439884    0.341597
      2          6           0        0.399053    0.997770    0.254588
      3          7           0        0.283225   -0.405891    0.651973
      4          6           0        0.979615   -1.310667   -0.264453
      5          6           0        2.342575   -0.794215   -0.631848
      6          6           0        2.754311    0.441879   -0.345790
      7          6           0       -1.038310   -0.829511    0.972803
      8          7           0       -2.010374   -0.860751   -0.192886
      9          7           0       -2.637062    0.184467   -0.375797
     10          7           0       -3.274628    1.103309   -0.618698
     11          1           0        1.971351    2.430916   -0.117544
     12          1           0        2.154571    1.548265    1.395250
     13          1           0        0.029439    1.158178   -0.773435
     14          1           0       -0.226252    1.598176    0.924706
     15          1           0        1.074022   -2.287039    0.230964
     16          1           0        0.388877   -1.485107   -1.183532
     17          1           0        2.993253   -1.490776   -1.155913
     18          1           0        3.759186    0.759064   -0.616990
     19          1           0       -1.013179   -1.863147    1.322916
     20          1           0       -1.448991   -0.187316    1.760061
 ---------------------------------------------------------------------

 SCF Done:  E(UB3LYP) =  -453.715393795     A.U. after   32 cycles

 The electronic state is 2-A.
 Alpha  occ. eigenvalues --  -14.34606 -14.24502 -14.23134 -14.20460 -10.12414
 Alpha  occ. eigenvalues --  -10.09005 -10.08759 -10.06562 -10.06069 -10.05968
 Alpha  occ. eigenvalues --   -1.01076  -0.86066  -0.82244  -0.69735  -0.65084
 Alpha  occ. eigenvalues --   -0.60698  -0.53395  -0.51432  -0.43982  -0.41040
 Alpha  occ. eigenvalues --   -0.39728  -0.39209  -0.37350  -0.35931  -0.35092
 Alpha  occ. eigenvalues --   -0.33002  -0.32081  -0.30406  -0.29326  -0.27842
 Alpha  occ. eigenvalues --   -0.27093  -0.23964  -0.22066  -0.19275  -0.14752
 Alpha  occ. eigenvalues --   -0.13796  -0.11652   0.04951
 Alpha virt. eigenvalues --    0.06901   0.08022   0.08414   0.09628   0.09968
 Alpha virt. eigenvalues --    0.10299   0.11330   0.12069   0.12255   0.13025
 Alpha virt. eigenvalues --    0.13347   0.13661   0.15090   0.17605   0.18039

  Beta  occ. eigenvalues --  -14.34428 -14.24228 -14.23189 -14.20447 -10.12333
  Beta  occ. eigenvalues --  -10.08992 -10.08732 -10.06544 -10.06052 -10.05952
  Beta  occ. eigenvalues --   -1.00713  -0.85927  -0.82163  -0.69683  -0.65042
  Beta  occ. eigenvalues --   -0.60552  -0.53325  -0.51326  -0.43897  -0.40942
  Beta  occ. eigenvalues --   -0.39227  -0.39076  -0.37203  -0.35618  -0.35017
  Beta  occ. eigenvalues --   -0.32485  -0.32001  -0.30323  -0.29175  -0.27771
  Beta  occ. eigenvalues --   -0.26996  -0.23901  -0.22016  -0.18953  -0.14654
  Beta  occ. eigenvalues --   -0.13724  -0.11529
  Beta virt. eigenvalues --    0.07459   0.08512   0.08795   0.09718   0.09995
  Beta virt. eigenvalues --    0.10877   0.10896   0.11513   0.12308   0.12451
  Beta virt. eigenvalues --    0.13441   0.13599   0.14200   0.15250   0.17692

 Mulliken charges and spin densities:
               1          2
     1  C    1.363299  -2.139903
     2  C   -0.575893   0.376212
     3  N   -0.069853   0.290009
     4  C    0.298282  -0.721282
     5  C    0.436149  -0.507308
     6  C    0.028285  -0.010069
     7  C    0.296130  -0.773369
     8  N   -0.474840   0.240100
     9  N    0.444069   0.044828
    10  N   -0.217443   0.028547
    11  H   -0.074919   0.213716
    12  H   -0.168130   0.326867
    13  H    0.016429   0.127863
    14  H    0.215273  -0.062241
    15  H   -0.366851   0.536129
    16  H    0.024405   0.120534
    17  H   -0.574960   0.754492
    18  H   -0.782163   0.958781
    19  H   -0.458900   0.661355
    20  H   -0.358368   0.534741
 Sum of Mulliken charges =  -1.00000   1.00000

 Dipole moment (field-independent basis, Debye):
    X=             -2.4374    Y=              2.0257    Z=             -0.1067  Tot=              3.1711
 Quadrupole moment (field-independent basis, Debye-Ang):
   XX=           -122.6025   YY=            -95.9122   ZZ=            -87.4167
   XY=              1.6263   XZ=              1.4391   YZ=              3.2388

 Summary of Natural Population Analysis:

                                       Natural Population
                Natural  -----------------------------------------------
    Atom  No    Charge         Core      Valence    Rydberg      Total
 -----------------------------------------------------------------------
      C    1   -0.20951      0.99962     2.19919    0.01071     3.20951
      C    2   -0.08292      0.99962     2.07414    0.00916     3.08292
      N    3   -0.27470      0.99970     2.76001    0.01499     3.77470
      C    4   -0.10237      0.99959     2.09002    0.01277     3.10237
      C    5   -0.09517      0.99952     2.08528    0.01037     3.09517
      C    6   -0.09445      0.99952     2.08435    0.01058     3.09445
      C    7    0.01025      0.99958     1.97433    0.01584     2.98975
      N    8   -0.21291      0.99972     2.69900    0.01420     3.71291
      N    9    0.12703      0.99970     2.35788    0.01538     3.37297
      N   10   -0.03869      0.99982     2.52517    0.01370     3.53869
      H   11    0.10008      0.00000     0.39878    0.00113     0.39992
      H   12    0.10304      0.00000     0.39519    0.00177     0.39696
      H   13    0.08461      0.00000     0.41379    0.00160     0.41539
      H   14    0.09777      0.00000     0.40092    0.00131     0.40223
      H   15    0.10386      0.00000     0.39392    0.00222     0.39614
      H   16    0.09471      0.00000     0.40357    0.00173     0.40529
      H   17    0.09971      0.00000     0.39865    0.00165     0.40029
      H   18    0.09886      0.00000     0.39875    0.00238     0.40114
      H   19    0.10022      0.00000     0.39718    0.00260     0.39978
      H   20    0.09059      0.00000     0.40770    0.00172     0.40941
 =======================================================================
   * Total *   -0.00000      9.99638    26.85782    0.14581    37.00000

 Normal termination of Gaussian 16 at Tue Dec  8 10:27:49 2020.
