 Gaussian 16, Revision A.03,

 -----------------------------------------------------------
 # opt freq B3LYP/6-31G(d) empiricaldispersion=gd3bj scf=xqc
 -----------------------------------------------------------

 ------------------------------
 CID_18006645_JID_5625_neutraal
 ------------------------------
 Symbolic Z-matrix:
 Charge =  0 Multiplicity = 1

 SCF Done:  E(RB3LYP) =  -704.858472769     A.U. after   15 cycles
 SCF Done:  E(RB3LYP) =  -704.863938221     A.U. after   12 cycles
 SCF Done:  E(RB3LYP) =  -704.857284436     A.U. after   13 cycles
 SCF Done:  E(RB3LYP) =  -704.865712593     A.U. after   12 cycles
 SCF Done:  E(RB3LYP) =  -704.867178982     A.U. after   12 cycles
 SCF Done:  E(RB3LYP) =  -704.868644484     A.U. after   12 cycles
 SCF Done:  E(RB3LYP) =  -704.868879558     A.U. after   12 cycles
 SCF Done:  E(RB3LYP) =  -704.869191861     A.U. after   11 cycles
 SCF Done:  E(RB3LYP) =  -704.869313723     A.U. after   11 cycles
 SCF Done:  E(RB3LYP) =  -704.869328986     A.U. after   10 cycles
 SCF Done:  E(RB3LYP) =  -704.869339592     A.U. after    9 cycles
 SCF Done:  E(RB3LYP) =  -704.869342095     A.U. after    9 cycles
 SCF Done:  E(RB3LYP) =  -704.869342598     A.U. after    8 cycles
 SCF Done:  E(RB3LYP) =  -704.869342810     A.U. after    8 cycles
 SCF Done:  E(RB3LYP) =  -704.869342888     A.U. after    7 cycles
 Optimization completed.
    -- Stationary point found.
 Normal termination of Gaussian 16 at Thu Dec 10 16:36:23 2020.

 --------------------------------------------------------------------
 #N Geom=AllCheck Guess=TCheck SCRF=Check GenChk RB3LYP/6-31G(d) Freq
 --------------------------------------------------------------------

 Structure from the checkpoint file:  "JID_5625.chk"
 ------------------------------
 CID_18006645_JID_5625_neutraal
 ------------------------------
 Charge =  0 Multiplicity = 1

 SCF Done:  E(RB3LYP) =  -704.869342888     A.U. after    1 cycles

  Exact polarizability: 194.842   5.912 119.736  14.110  -8.599  90.537
 Approx polarizability: 270.407  18.803 203.120  35.641 -16.721 133.026

                      1                      2                      3
                      A                      A                      A
 Frequencies --     36.1338                46.4881                63.7335
 Red. masses --      3.2441                 3.8010                 3.7312
 Frc consts  --      0.0025                 0.0048                 0.0089
 IR Inten    --      0.9926                 0.4570                 2.6971

                      4                      5                      6
                      A                      A                      A
 Frequencies --     95.2663               104.4211               150.4723
 Red. masses --      5.0482                 3.3490                 3.7609
 Frc consts  --      0.0270                 0.0215                 0.0502
 IR Inten    --      1.8229                 0.2403                 5.8995

                      7                      8                      9
                      A                      A                      A
 Frequencies --    163.5685               202.9370               220.1972
 Red. masses --      2.2891                 1.7567                 1.7603
 Frc consts  --      0.0361                 0.0426                 0.0503
 IR Inten    --      2.1016                 0.2978                 0.3794

                     10                     11                     12
                      A                      A                      A
 Frequencies --    235.5042               255.0474               287.7661
 Red. masses --      2.3349                 2.1168                 3.4382
 Frc consts  --      0.0763                 0.0811                 0.1677
 IR Inten    --      1.0755                 0.7506                 1.3994

                     13                     14                     15
                      A                      A                      A
 Frequencies --    309.8465               349.7291               369.2633
 Red. masses --      3.5624                 4.6484                 2.7448
 Frc consts  --      0.2015                 0.3350                 0.2205
 IR Inten    --      4.5761                 6.9125                30.0778

                     16                     17                     18
                      A                      A                      A
 Frequencies --    415.5065               430.5049               477.3920
 Red. masses --      2.9665                 2.4731                 3.1613
 Frc consts  --      0.3018                 0.2700                 0.4245
 IR Inten    --     59.5444                17.5505                 5.4793

                     19                     20                     21
                      A                      A                      A
 Frequencies --    504.4573               510.6070               545.8856
 Red. masses --      3.8795                 2.9226                 3.1086
 Frc consts  --      0.5817                 0.4489                 0.5458
 IR Inten    --     18.1245                77.1046                39.5387

                     22                     23                     24
                      A                      A                      A
 Frequencies --    571.7675               611.2547               634.4469
 Red. masses --      1.5064                 4.2817                 3.3029
 Frc consts  --      0.2902                 0.9426                 0.7833
 IR Inten    --     44.9417                12.3250                15.4270

                     25                     26                     27
                      A                      A                      A
 Frequencies --    645.7353               702.0465               708.0810
 Red. masses --      3.2139                 2.3301                 2.0005
 Frc consts  --      0.7896                 0.6766                 0.5910
 IR Inten    --      9.9930                14.4230                17.7466

                     28                     29                     30
                      A                      A                      A
 Frequencies --    754.5536               766.4619               778.4791
 Red. masses --      5.0636                 1.5931                 2.0188
 Frc consts  --      1.6986                 0.5514                 0.7208
 IR Inten    --      4.9758                10.4369                45.9105

                     31                     32                     33
                      A                      A                      A
 Frequencies --    798.1079               829.3740               846.0358
 Red. masses --      1.5213                 2.1030                 1.5147
 Frc consts  --      0.5710                 0.8523                 0.6388
 IR Inten    --     22.2749                47.9450                19.9051

                     34                     35                     36
                      A                      A                      A
 Frequencies --    885.9880               923.8424               930.3037
 Red. masses --      2.9465                 1.3311                 1.4444
 Frc consts  --      1.3628                 0.6694                 0.7365
 IR Inten    --     19.9341                 1.1523                26.4176

                     37                     38                     39
                      A                      A                      A
 Frequencies --    961.2179               988.4311              1083.9859
 Red. masses --      2.4979                 3.1850                 2.8233
 Frc consts  --      1.3598                 1.8334                 1.9546
 IR Inten    --     18.6686                16.2212                16.0513

                     40                     41                     42
                      A                      A                      A
 Frequencies --   1093.5837              1139.4029              1156.7715
 Red. masses --      2.2693                 2.0249                 1.5518
 Frc consts  --      1.5990                 1.5488                 1.2235
 IR Inten    --      3.6132                27.5971                23.4568

                     43                     44                     45
                      A                      A                      A
 Frequencies --   1162.1379              1175.6781              1191.6565
 Red. masses --      1.3529                 2.0037                 1.6128
 Frc consts  --      1.0766                 1.6318                 1.3494
 IR Inten    --      6.7420                58.8070                 5.4158

                     46                     47                     48
                      A                      A                      A
 Frequencies --   1250.2180              1254.1504              1277.6599
 Red. masses --      1.8650                 3.0122                 1.5912
 Frc consts  --      1.7175                 2.7915                 1.5304
 IR Inten    --     90.5796                11.3550                32.9355

                     49                     50                     51
                      A                      A                      A
 Frequencies --   1314.5868              1327.4398              1377.1729
 Red. masses --      2.4356                 1.4795                 2.5793
 Frc consts  --      2.4799                 1.5360                 2.8822
 IR Inten    --    117.2840                32.9829                18.2931

                     52                     53                     54
                      A                      A                      A
 Frequencies --   1396.6176              1420.4542              1431.8432
 Red. masses --      1.3989                 2.1683                 2.2710
 Frc consts  --      1.6076                 2.5777                 2.7431
 IR Inten    --     37.9195               142.5270               187.2117

                     55                     56                     57
                      A                      A                      A
 Frequencies --   1442.9713              1469.0475              1482.3522
 Red. masses --      1.2676                 1.5204                 1.4292
 Frc consts  --      1.5550                 1.9332                 1.8503
 IR Inten    --      5.2812                32.3005                 2.8799

                     58                     59                     60
                      A                      A                      A
 Frequencies --   1487.4678              1506.5717              1516.4888
 Red. masses --      1.1972                 1.4043                 1.1699
 Frc consts  --      1.5607                 1.8780                 1.5851
 IR Inten    --     17.2196                 7.7421                11.1003

                     61                     62                     63
                      A                      A                      A
 Frequencies --   1520.8284              1525.3117              1536.7291
 Red. masses --      1.0729                 1.0507                 1.1082
 Frc consts  --      1.4621                 1.4402                 1.5420
 IR Inten    --      5.0586                 5.9821                 8.1118

                     64                     65                     66
                      A                      A                      A
 Frequencies --   1547.9004              1553.9175              1572.2406
 Red. masses --      2.0688                 1.1093                 2.8317
 Frc consts  --      2.9204                 1.5782                 4.1241
 IR Inten    --      7.2664                17.3663               275.5660

                     67                     68                     69
                      A                      A                      A
 Frequencies --   1637.0224              1688.1323              1813.5684
 Red. masses --      4.6236                 5.7195                 6.5599
 Frc consts  --      7.3003                 9.6034                12.7120
 IR Inten    --     54.5706               200.3042               616.4813

                     70                     71                     72
                      A                      A                      A
 Frequencies --   3000.8861              3052.3719              3083.3062
 Red. masses --      1.0531                 1.0355                 1.0857
 Frc consts  --      5.5873                 5.6841                 6.0812
 IR Inten    --     82.0545                19.2606                35.2571

                     73                     74                     75
                      A                      A                      A
 Frequencies --   3085.8644              3117.3775              3128.5716
 Red. masses --      1.0688                 1.1021                 1.1002
 Frc consts  --      5.9966                 6.3102                 6.3446
 IR Inten    --     22.0241                14.2981                29.4435

                     76                     77                     78
                      A                      A                      A
 Frequencies --   3139.9107              3153.2101              3178.2565
 Red. masses --      1.0999                 1.1008                 1.0866
 Frc consts  --      6.3891                 6.4488                 6.4669
 IR Inten    --     26.3231                11.5742                11.9643

                     79                     80                     81
                      A                      A                      A
 Frequencies --   3195.3610              3234.0392              3380.7561
 Red. masses --      1.0948                 1.0896                 1.0682
 Frc consts  --      6.5862                 6.7142                 7.1932
 IR Inten    --     17.7040                 4.7350               664.7237

                     82                     83                     84
                      A                      A                      A
 Frequencies --   3538.6597              3594.8979              3602.0379
 Red. masses --      1.0744                 1.0755                 1.0760
 Frc consts  --      7.9270                 8.1889                 8.2256
 IR Inten    --     15.7630                35.2737                15.7200

 - Thermochemistry -
 -------------------
 Temperature   298.150 Kelvin.  Pressure   1.00000 Atm.
 Atom     1 has atomic number  6 and mass  12.00000

 Molecular mass:   209.11643 amu.
 Principal axes and moments of inertia in atomic units:
                           1         2         3
     Eigenvalues --  1478.328435724.166785796.21006
           X            0.99982  -0.01236  -0.01464
           Y            0.01142   0.99796  -0.06288
           Z            0.01538   0.06270   0.99791
 This molecule is an asymmetric top.
 Rotational symmetry number  1.
 Warning -- assumption of classical behavior for rotation
           may cause significant error
 Rotational temperatures (Kelvin)      0.05859     0.01513     0.01494
 Rotational constants (GHZ):           1.22080     0.31528     0.31137
 Zero-point vibrational energy     663630.0 (Joules/Mol)
                                  158.61138 (Kcal/Mol)
 Warning -- explicit consideration of  23 degrees of freedom as
           vibrations may cause significant error
 Vibrational temperatures:     51.99    66.89    91.70   137.07   150.24
          (Kelvin)            216.50   235.34   291.98   316.81   338.84
                              366.96   414.03   445.80   503.18   531.29
                              597.82   619.40   686.86   725.80   734.65
                              785.41   822.65   879.46   912.83   929.07
                             1010.09  1018.77  1085.63  1102.77  1120.06
                             1148.30  1193.28  1217.26  1274.74  1329.20
                             1338.50  1382.98  1422.13  1559.61  1573.42
                             1639.35  1664.34  1672.06  1691.54  1714.53
                             1798.78  1804.44  1838.27  1891.40  1909.89
                             1981.44  2009.42  2043.72  2060.10  2076.11
                             2113.63  2132.77  2140.13  2167.62  2181.89
                             2188.13  2194.58  2211.01  2227.08  2235.74
                             2262.10  2355.31  2428.85  2609.32  4317.61
                             4391.68  4436.19  4439.87  4485.21  4501.32
                             4517.63  4536.77  4572.80  4597.41  4653.06
                             4864.15  5091.34  5172.26  5182.53

 Zero-point correction=                           0.252763 (Hartree/Particle)
 Thermal correction to Energy=                    0.267753
 Thermal correction to Enthalpy=                  0.268697
 Thermal correction to Gibbs Free Energy=         0.210274
 Sum of electronic and zero-point Energies=           -704.616580
 Sum of electronic and thermal Energies=              -704.601590
 Sum of electronic and thermal Enthalpies=            -704.600646
 Sum of electronic and thermal Free Energies=         -704.659069

                     E (Thermal)             CV                S
                      KCal/Mol        Cal/Mol-Kelvin    Cal/Mol-Kelvin
 Total                  168.018             56.736            122.963
 Electronic               0.000              0.000              0.000
 Translational            0.889              2.981             41.917
 Rotational               0.889              2.981             32.261
 Vibrational            166.240             50.774             48.785
 Vibration     1          0.594              1.982              5.461
 Vibration     2          0.595              1.979              4.961
 Vibration     3          0.597              1.972              4.338
 Vibration     4          0.603              1.953              3.549
 Vibration     5          0.605              1.946              3.370
 Vibration     6          0.618              1.902              2.666
 Vibration     7          0.623              1.887              2.508
 Vibration     8          0.639              1.836              2.106
 Vibration     9          0.647              1.810              1.957
 Vibration    10          0.655              1.786              1.837
 Vibration    11          0.665              1.754              1.695
 Vibration    12          0.685              1.696              1.487
 Vibration    13          0.699              1.655              1.363
 Vibration    14          0.727              1.576              1.167
 Vibration    15          0.742              1.535              1.083
 Vibration    16          0.779              1.437              0.907
 Vibration    17          0.792              1.404              0.857
 Vibration    18          0.834              1.300              0.717
 Vibration    19          0.860              1.240              0.647
 Vibration    20          0.866              1.226              0.632
 Vibration    21          0.901              1.149              0.553
 Vibration    22          0.928              1.092              0.501
 Vibration    23          0.970              1.008              0.431

                           ! Non-Optimized Parameters !
 Normal termination of Gaussian 16 at Thu Dec 10 16:46:20 2020.

 ----------------------------------------------------------------------
 # B3LYP/6-311++G(d,p) empiricaldispersion=gd3bj scf=xqc pop=npa geom=c
 heck
 ----------------------------------------------------------------------

 --------------------------------------
 CID_18006645_JID_5625_Energie_neutraal
 --------------------------------------
 Structure from the checkpoint file:  "JID_5625.chk"
 Charge =  0 Multiplicity = 1

 SCF Done:  E(RB3LYP) =  -705.084955133     A.U. after   15 cycles
 Normal termination of Gaussian 16 at Thu Dec 10 16:51:28 2020.

 ----------------------------------------------------------------------
 # B3LYP/6-311++G(d,p) empiricaldispersion=gd3bj scf=xqc pop=npa geom=c
 heck
 ----------------------------------------------------------------------

 ------------------------------------
 CID_18006645_JID_5625_Energie_kation
 ------------------------------------
 Structure from the checkpoint file:  "JID_5625.chk"
 Charge =  1 Multiplicity = 2

 SCF Done:  E(UB3LYP) =  -704.820373332     A.U. after   23 cycles
 Normal termination of Gaussian 16 at Thu Dec 10 17:01:12 2020.
 Gaussian 16:  ES64L-G16RevA.03 25-Dec-2016

 ----------------------------------------------------------------------
 # B3LYP/6-311++G(d,p) empiricaldispersion=gd3bj scf=xqc pop=npa geom=c
 heck
 ----------------------------------------------------------------------

 -----------------------------------
 CID_18006645_JID_5625_Energie_anion
 -----------------------------------
 Structure from the checkpoint file:  "JID_5625.chk"
 Charge = -1 Multiplicity = 2

                         Standard orientation:
 ---------------------------------------------------------------------
 Center     Atomic      Atomic             Coordinates (Angstroms)
 Number     Number       Type             X           Y           Z
 ---------------------------------------------------------------------
      1          6           0       -3.079021    1.062729    1.977483
      2          6           0       -2.163508   -0.120804    1.670823
      3          7           0       -2.544691   -0.860187    0.445091
      4          6           0       -2.610855   -0.181232   -0.797099
      5          8           0       -3.603341   -0.244081   -1.508989
      6          7           0       -1.479412    0.498085   -1.171147
      7          6           0       -0.137073    0.425287   -0.693034
      8          6           0        0.497276   -0.778445   -0.319894
      9          6           0        1.851623   -0.769845    0.030711
     10          6           0        2.606844    0.409121    0.007187
     11          6           0        1.965774    1.610251   -0.358670
     12          6           0        0.620375    1.604003   -0.686900
     13          7           0        3.945363    0.430918    0.379877
     14          6           0        4.720706   -0.792112    0.455594
     15          8           0       -0.135015   -1.980028   -0.293377
     16          1           0       -3.039012    1.801782    1.170426
     17          1           0       -2.767325    1.555158    2.905284
     18          1           0       -4.120514    0.741922    2.094070
     19          1           0       -1.130447    0.214248    1.565771
     20          1           0       -2.180781   -0.850291    2.486628
     21          1           0       -3.441543   -1.326408    0.557934
     22          1           0       -1.611713    0.958887   -2.062826
     23          1           0        2.288832   -1.718994    0.315252
     24          1           0        2.525777    2.541543   -0.368803
     25          1           0        0.128708    2.532810   -0.964772
     26          1           0        4.453199    1.228181    0.022077
     27          1           0        4.687263   -1.387448   -0.471011
     28          1           0        5.760777   -0.534887    0.670659
     29          1           0        4.358386   -1.422693    1.275197
     30          1           0       -1.086428   -1.836356   -0.070903
 ---------------------------------------------------------------------

 SCF Done:  E(UB3LYP) =  -705.075155041     A.U. after   33 cycles
 SCF Done:  E(UB3LYP) =  -705.075155041     a.u. after    1 cycles

 The electronic state is 2-A.
 Alpha  occ. eigenvalues --  -19.04572 -19.00736 -14.26354 -14.25411 -14.22904
 Alpha  occ. eigenvalues --  -10.21779 -10.14496 -10.12280 -10.12261 -10.11900
 Alpha  occ. eigenvalues --  -10.10456 -10.08791 -10.07886 -10.07435 -10.07115
 Alpha  occ. eigenvalues --   -0.97518  -0.96030  -0.85794  -0.84259  -0.83137
 Alpha  occ. eigenvalues --   -0.74619  -0.66940  -0.65579  -0.65040  -0.59302
 Alpha  occ. eigenvalues --   -0.56052  -0.54201  -0.52482  -0.51076  -0.46845
 Alpha  occ. eigenvalues --   -0.44293  -0.42269  -0.40788  -0.39948  -0.38761
 Alpha  occ. eigenvalues --   -0.36738  -0.36076  -0.35152  -0.34850  -0.34163
 Alpha  occ. eigenvalues --   -0.33539  -0.32922  -0.31686  -0.30898  -0.29724
 Alpha  occ. eigenvalues --   -0.29193  -0.28214  -0.27038  -0.26232  -0.24893
 Alpha  occ. eigenvalues --   -0.22330  -0.20723  -0.17929  -0.17789  -0.14303
 Alpha  occ. eigenvalues --   -0.10475   0.03861
 Alpha virt. eigenvalues --    0.05250   0.06541   0.07398   0.07698   0.08060
 Alpha virt. eigenvalues --    0.08518   0.09023   0.09496   0.09770   0.10566
 Alpha virt. eigenvalues --    0.10860   0.11416   0.11841   0.12468   0.12913

  Beta  occ. eigenvalues --  -19.04568 -19.00733 -14.26347 -14.25397 -14.22874
  Beta  occ. eigenvalues --  -10.21780 -10.14491 -10.12282 -10.12239 -10.11901
  Beta  occ. eigenvalues --  -10.10419 -10.08781 -10.07852 -10.07419 -10.07104
  Beta  occ. eigenvalues --   -0.97510  -0.96022  -0.85782  -0.84214  -0.83109
  Beta  occ. eigenvalues --   -0.74597  -0.66896  -0.65553  -0.65011  -0.59243
  Beta  occ. eigenvalues --   -0.55998  -0.54156  -0.52450  -0.51038  -0.46821
  Beta  occ. eigenvalues --   -0.44246  -0.42236  -0.40753  -0.39912  -0.38723
  Beta  occ. eigenvalues --   -0.36706  -0.36040  -0.35123  -0.34818  -0.34140
  Beta  occ. eigenvalues --   -0.33499  -0.32901  -0.31652  -0.30867  -0.29678
  Beta  occ. eigenvalues --   -0.29143  -0.28180  -0.27006  -0.26212  -0.24877
  Beta  occ. eigenvalues --   -0.22315  -0.20711  -0.17908  -0.17773  -0.14279
  Beta  occ. eigenvalues --   -0.10453
  Beta virt. eigenvalues --    0.06062   0.06718   0.06956   0.07650   0.08285
  Beta virt. eigenvalues --    0.08541   0.08840   0.09178   0.09942   0.10118
  Beta virt. eigenvalues --    0.10804   0.11136   0.11743   0.11906   0.12641

 Mulliken charges and spin densities:
               1          2
     1  C    0.937009  -1.428072
     2  C   -0.677116   0.437569
     3  N   -0.399437  -0.009571
     4  C    0.342558  -0.272197
     5  O   -0.363714   0.028402
     6  N   -0.275395   0.050128
     7  C    1.661811  -1.231766
     8  C   -0.352043   0.370716
     9  C    1.159861  -0.939736
    10  C    0.486086  -1.485559
    11  C   -1.937043   1.807376
    12  C   -0.264264   0.019277
    13  N   -0.197665   0.131975
    14  C    0.754850  -1.191011
    15  O   -0.282134  -0.011632
    16  H   -0.034002   0.195693
    17  H   -0.264185   0.422580
    18  H   -0.108068   0.243743
    19  H    0.435270  -0.249973
    20  H   -0.632714   0.823314
    21  H    0.150171   0.167162
    22  H    0.318283   0.008877
    23  H    0.154534   0.047373
    24  H   -0.743903   0.919325
    25  H   -0.143540   0.312962
    26  H   -0.174600   0.435877
    27  H    0.013529   0.134697
    28  H   -0.864371   1.032478
    29  H   -0.037185   0.185594
    30  H    0.337414   0.044399
 Sum of Mulliken charges =  -1.00000   1.00000

 Dipole moment (field-independent basis, Debye):
    X=             -4.1481    Y=             -1.4730    Z=             -2.2562  Tot=              4.9465
 Quadrupole moment (field-independent basis, Debye-Ang):
   XX=           -201.7689   YY=           -126.3409   ZZ=           -128.7508
   XY=            -11.3956   XZ=             -0.0236   YZ=             -2.5238

 Summary of Natural Population Analysis:

                                       Natural Population
                Natural  -----------------------------------------------
    Atom  No    Charge         Core      Valence    Rydberg      Total
 -----------------------------------------------------------------------
      C    1   -0.29395      0.99967     2.28933    0.00495     3.29395
      C    2   -0.09280      0.99962     2.08225    0.01093     3.09280
      N    3   -0.36209      0.99971     2.85028    0.01210     3.86209
      C    4    0.40747      0.99969     1.56881    0.02403     2.59253
      O    5   -0.33034      0.99987     3.32488    0.00559     4.33034
      N    6   -0.31777      0.99963     2.80862    0.00951     3.81777
      C    7    0.00774      0.99941     1.98090    0.01195     2.99226
      C    8    0.16330      0.99936     1.82460    0.01274     2.83670
      C    9   -0.15203      0.99949     2.14445    0.00810     3.15203
      C   10    0.09638      0.99950     1.89205    0.01207     2.90362
      C   11   -0.12672      0.99953     2.11699    0.01020     3.12672
      C   12   -0.09240      0.99954     2.08278    0.01008     3.09240
      N   13   -0.30835      0.99968     2.79630    0.01236     3.80835
      C   14   -0.18013      0.99965     2.17139    0.00908     3.18013
      O   15   -0.35591      0.99987     3.34901    0.00703     4.35591
      H   16    0.10062      0.00000     0.39834    0.00103     0.39938
      H   17    0.10493      0.00000     0.39402    0.00106     0.39507
      H   18    0.09893      0.00000     0.39975    0.00133     0.40107
      H   19    0.10354      0.00000     0.39432    0.00214     0.39646
      H   20    0.09918      0.00000     0.39900    0.00182     0.40082
      H   21    0.19643      0.00000     0.30178    0.00179     0.30357
      H   22    0.19912      0.00000     0.29886    0.00202     0.30088
      H   23    0.10894      0.00000     0.38979    0.00127     0.39106
      H   24    0.10406      0.00000     0.39437    0.00158     0.39594
      H   25    0.10214      0.00000     0.39674    0.00112     0.39786
      H   26    0.18962      0.00000     0.30246    0.00792     0.31038
      H   27    0.08618      0.00000     0.41234    0.00147     0.41382
      H   28    0.10344      0.00000     0.39447    0.00209     0.39656
      H   29    0.09233      0.00000     0.40631    0.00136     0.40767
      H   30    0.24813      0.00000     0.24838    0.00349     0.25187
 =======================================================================
   * Total *   -0.00000     14.99423    40.81357    0.19220    56.00000

 Normal termination of Gaussian 16 at Thu Dec 10 17:16:11 2020.
