 Gaussian 16, Revision A.03,

 -----------------------------------------------------------
 # opt freq B3LYP/6-31G(d) empiricaldispersion=gd3bj scf=xqc
 -----------------------------------------------------------

 -------------------------------
 CID_142793544_JID_1698_neutraal
 -------------------------------
 Symbolic Z-matrix:
 Charge =  0 Multiplicity = 1

 SCF Done:  E(RB3LYP) =  -872.890817478     A.U. after   15 cycles
 SCF Done:  E(RB3LYP) =  -872.899401722     A.U. after   14 cycles
 SCF Done:  E(RB3LYP) =  -872.894247314     A.U. after   14 cycles
 SCF Done:  E(RB3LYP) =  -872.900745685     A.U. after   13 cycles
 SCF Done:  E(RB3LYP) =  -872.902489648     A.U. after   14 cycles
 SCF Done:  E(RB3LYP) =  -872.905324063     A.U. after   13 cycles
 SCF Done:  E(RB3LYP) =  -872.906029649     A.U. after   13 cycles
 SCF Done:  E(RB3LYP) =  -872.906495485     A.U. after   13 cycles
 SCF Done:  E(RB3LYP) =  -872.906824020     A.U. after   13 cycles
 SCF Done:  E(RB3LYP) =  -872.907034597     A.U. after   13 cycles
 SCF Done:  E(RB3LYP) =  -872.918884122     A.U. after   12 cycles
 SCF Done:  E(RB3LYP) =  -872.918925513     A.U. after   11 cycles
 SCF Done:  E(RB3LYP) =  -872.918955901     A.U. after   11 cycles
 SCF Done:  E(RB3LYP) =  -872.918963115     A.U. after   10 cycles
 SCF Done:  E(RB3LYP) =  -872.918964621     A.U. after    9 cycles
 SCF Done:  E(RB3LYP) =  -872.918965108     A.U. after    8 cycles
 Optimization completed.
    -- Stationary point found.
 Normal termination of Gaussian 16 at Tue Dec  8 21:12:32 2020.

 --------------------------------------------------------------------
 #N Geom=AllCheck Guess=TCheck SCRF=Check GenChk RB3LYP/6-31G(d) Freq
 --------------------------------------------------------------------

 Structure from the checkpoint file:  "JID_1698.chk"
 -------------------------------
 CID_142793544_JID_1698_neutraal
 -------------------------------
 Charge =  0 Multiplicity = 1

 SCF Done:  E(RB3LYP) =  -872.918965108     A.U. after    1 cycles

  Exact polarizability: 137.345  10.449  93.545 -15.094  -0.896  82.368
 Approx polarizability: 191.251  21.006 149.160 -37.167   1.737 131.374

                      1                      2                      3
                      A                      A                      A
 Frequencies --     45.8091                74.0874                81.1982
 Red. masses --      6.7379                 4.2000                 4.1143
 Frc consts  --      0.0083                 0.0136                 0.0160
 IR Inten    --      1.2073                 4.1220                 1.8195

                      4                      5                      6
                      A                      A                      A
 Frequencies --    113.2309               169.6214               185.5243
 Red. masses --      2.8341                 3.3904                 2.7953
 Frc consts  --      0.0214                 0.0575                 0.0567
 IR Inten    --      0.7105                 1.1430                12.3743

                      7                      8                      9
                      A                      A                      A
 Frequencies --    241.0419               263.5479               276.5043
 Red. masses --      3.5711                 3.0282                 1.5043
 Frc consts  --      0.1222                 0.1239                 0.0678
 IR Inten    --      1.7769                 7.4307                17.7731

                     10                     11                     12
                      A                      A                      A
 Frequencies --    305.2748               319.0546               431.0037
 Red. masses --      4.0899                 4.7233                 4.0999
 Frc consts  --      0.2246                 0.2833                 0.4487
 IR Inten    --      2.3453                 7.0605                20.2805

                     13                     14                     15
                      A                      A                      A
 Frequencies --    500.6763               579.4373               619.4515
 Red. masses --      6.9149                 2.1816                 2.2235
 Frc consts  --      1.0213                 0.4316                 0.5027
 IR Inten    --      4.0260                32.1123                 8.7887

                     16                     17                     18
                      A                      A                      A
 Frequencies --    645.3267               659.4914               703.7677
 Red. masses --      2.3232                 3.5685                 1.7326
 Frc consts  --      0.5700                 0.9144                 0.5056
 IR Inten    --     68.2631                29.7364                75.8062

                     19                     20                     21
                      A                      A                      A
 Frequencies --    739.2800               772.3813               811.5286
 Red. masses --      2.1416                 1.6469                 1.4532
 Frc consts  --      0.6896                 0.5789                 0.5639
 IR Inten    --    108.0294                 5.8163                12.8643

                     22                     23                     24
                      A                      A                      A
 Frequencies --    881.8819               914.5306               945.6375
 Red. masses --      2.3001                 1.7795                 2.3270
 Frc consts  --      1.0539                 0.8769                 1.2260
 IR Inten    --      6.2678               121.8050                14.4189

                     25                     26                     27
                      A                      A                      A
 Frequencies --    954.3966               963.1823               993.3113
 Red. masses --      2.2105                 2.3851                 4.3866
 Frc consts  --      1.1863                 1.3037                 2.5501
 IR Inten    --      0.2493                 3.6714                28.1122

                     28                     29                     30
                      A                      A                      A
 Frequencies --   1044.9313              1057.2422              1127.0364
 Red. masses --      3.4468                 1.4571                 2.5798
 Frc consts  --      2.2174                 0.9596                 1.9307
 IR Inten    --      2.1030                 1.1272                44.7960

                     31                     32                     33
                      A                      A                      A
 Frequencies --   1148.4575              1215.2111              1224.5382
 Red. masses --      2.3337                 3.0110                 1.2970
 Frc consts  --      1.8135                 2.6197                 1.1459
 IR Inten    --     17.2157               144.9877                 6.7120

                     34                     35                     36
                      A                      A                      A
 Frequencies --   1244.7516              1264.2209              1278.1599
 Red. masses --      2.3724                 1.3336                 1.2990
 Frc consts  --      2.1657                 1.2558                 1.2503
 IR Inten    --    380.1868                10.5483                 1.6881

                     37                     38                     39
                      A                      A                      A
 Frequencies --   1287.9182              1305.0382              1309.7381
 Red. masses --      1.1798                 1.4232                 1.3729
 Frc consts  --      1.1530                 1.4281                 1.3876
 IR Inten    --      1.9377                29.5310                13.2928

                     40                     41                     42
                      A                      A                      A
 Frequencies --   1349.7045              1418.5836              1420.7154
 Red. masses --      1.1608                 2.7730                 2.8855
 Frc consts  --      1.2459                 3.2878                 3.4315
 IR Inten    --      0.7949               196.6020               136.3132

                     43                     44                     45
                      A                      A                      A
 Frequencies --   1441.1116              1502.6606              1514.3375
 Red. masses --      1.2069                 1.0880                 1.0859
 Frc consts  --      1.4767                 1.4474                 1.4671
 IR Inten    --     17.2234                 0.9648                 4.9105

                     46                     47                     48
                      A                      A                      A
 Frequencies --   1537.4043              1548.5862              1726.4400
 Red. masses --      1.1391                 1.6555                 1.0630
 Frc consts  --      1.5863                 2.3391                 1.8668
 IR Inten    --      3.6438               245.6215                14.2044

                     49                     50                     51
                      A                      A                      A
 Frequencies --   1793.7803              3065.9351              3080.2238
 Red. masses --      9.0676                 1.0616                 1.0601
 Frc consts  --     17.1902                 5.8795                 5.9259
 IR Inten    --    274.8480                41.6947                42.2026

                     52                     53                     54
                      A                      A                      A
 Frequencies --   3094.0315              3120.6425              3131.8816
 Red. masses --      1.0589                 1.1016                 1.0962
 Frc consts  --      5.9725                 6.3206                 6.3351
 IR Inten    --     22.1438                 4.8021                 6.2248

                     55                     56                     57
                      A                      A                      A
 Frequencies --   3139.8133              3157.9128              3472.3384
 Red. masses --      1.1037                 1.1066                 1.0482
 Frc consts  --      6.4106                 6.5016                 7.4460
 IR Inten    --     19.8139                27.9108                 4.1530

                     58                     59                     60
                      A                      A                      A
 Frequencies --   3570.8796              3587.1874              3596.5093
 Red. masses --      1.0945                 1.0760                 1.0781
 Frc consts  --      8.2225                 8.1579                 8.2165
 IR Inten    --     10.9390                64.8553                47.8422

 - Thermochemistry -
 -------------------
 Temperature   298.150 Kelvin.  Pressure   1.00000 Atm.
 Atom     1 has atomic number  6 and mass  12.00000

 Molecular mass:   173.06228 amu.
 Principal axes and moments of inertia in atomic units:
                           1         2         3
     Eigenvalues --  1125.292943217.298003483.76278
           X            0.99982   0.00041   0.01923
           Y            0.00043   0.99905  -0.04369
           Z           -0.01923   0.04369   0.99886
 This molecule is an asymmetric top.
 Rotational symmetry number  1.
 Warning -- assumption of classical behavior for rotation
           may cause significant error
 Rotational temperatures (Kelvin)      0.07697     0.02692     0.02486
 Rotational constants (GHZ):           1.60380     0.56095     0.51804
 Zero-point vibrational energy     478315.5 (Joules/Mol)
                                  114.32014 (Kcal/Mol)
 Warning -- explicit consideration of  15 degrees of freedom as
           vibrations may cause significant error
 Vibrational temperatures:     65.91   106.60   116.83   162.91   244.05
          (Kelvin)            266.93   346.81   379.19   397.83   439.22
                              459.05   620.12   720.36   833.68   891.25
                              928.48   948.86  1012.56  1063.66  1111.28
                             1167.61  1268.83  1315.81  1360.56  1373.16
                             1385.80  1429.15  1503.42  1521.14  1621.55
                             1652.37  1748.42  1761.84  1790.92  1818.93
                             1838.99  1853.03  1877.66  1884.42  1941.92
                             2041.03  2044.09  2073.44  2161.99  2178.79
                             2211.98  2228.07  2483.96  2580.85  4411.20
                             4431.76  4451.62  4489.91  4506.08  4517.49
                             4543.53  4995.92  5137.70  5161.16  5174.57

 Zero-point correction=                           0.182181 (Hartree/Particle)
 Thermal correction to Energy=                    0.193543
 Thermal correction to Enthalpy=                  0.194487
 Thermal correction to Gibbs Free Energy=         0.143996
 Sum of electronic and zero-point Energies=           -872.736784
 Sum of electronic and thermal Energies=              -872.725422
 Sum of electronic and thermal Enthalpies=            -872.724478
 Sum of electronic and thermal Free Energies=         -872.774969

                     E (Thermal)             CV                S
                      KCal/Mol        Cal/Mol-Kelvin    Cal/Mol-Kelvin
 Total                  121.450             41.461            106.268
 Electronic               0.000              0.000              0.000
 Translational            0.889              2.981             41.353
 Rotational               0.889              2.981             30.912
 Vibrational            119.673             35.500             34.003
 Vibration     1          0.595              1.979              4.991
 Vibration     2          0.599              1.966              4.042
 Vibration     3          0.600              1.962              3.862
 Vibration     4          0.607              1.938              3.213
 Vibration     5          0.625              1.880              2.440
 Vibration     6          0.632              1.860              2.272
 Vibration     7          0.658              1.778              1.795
 Vibration     8          0.670              1.740              1.638
 Vibration     9          0.678              1.717              1.555
 Vibration    10          0.696              1.664              1.388
 Vibration    11          0.705              1.637              1.315
 Vibration    12          0.792              1.403              0.855
 Vibration    13          0.856              1.249              0.656
 Vibration    14          0.936              1.076              0.486
 Vibration    15          0.979              0.991              0.417

                           ! Non-Optimized Parameters !
 Normal termination of Gaussian 16 at Tue Dec  8 21:17:40 2020.

 ----------------------------------------------------------------------
 # B3LYP/6-311++G(d,p) empiricaldispersion=gd3bj scf=xqc pop=npa geom=c
 heck
 ----------------------------------------------------------------------

 ---------------------------------------
 CID_142793544_JID_1698_Energie_neutraal
 ---------------------------------------
 Structure from the checkpoint file:  "JID_1698.chk"
 Charge =  0 Multiplicity = 1

 SCF Done:  E(RB3LYP) =  -873.091699974     A.U. after   15 cycles
 Normal termination of Gaussian 16 at Tue Dec  8 21:22:03 2020.

 ----------------------------------------------------------------------
 # B3LYP/6-311++G(d,p) empiricaldispersion=gd3bj scf=xqc pop=npa geom=c
 heck
 ----------------------------------------------------------------------

 -------------------------------------
 CID_142793544_JID_1698_Energie_kation
 -------------------------------------
 Structure from the checkpoint file:  "JID_1698.chk"
 Charge =  1 Multiplicity = 2

 SCF Done:  E(UB3LYP) =  -872.777612754     A.U. after   26 cycles
 Normal termination of Gaussian 16 at Tue Dec  8 21:30:23 2020.
 Gaussian 16:  ES64L-G16RevA.03 25-Dec-2016

 ----------------------------------------------------------------------
 # B3LYP/6-311++G(d,p) empiricaldispersion=gd3bj scf=xqc pop=npa geom=c
 heck
 ----------------------------------------------------------------------

 ------------------------------------
 CID_142793544_JID_1698_Energie_anion
 ------------------------------------
 Structure from the checkpoint file:  "JID_1698.chk"
 Charge = -1 Multiplicity = 2

                         Standard orientation:
 ---------------------------------------------------------------------
 Center     Atomic      Atomic             Coordinates (Angstroms)
 Number     Number       Type             X           Y           Z
 ---------------------------------------------------------------------
      1          6           0       -3.362904   -0.279176   -0.932773
      2          6           0       -2.328216    0.862441   -1.085523
      3          6           0       -1.301535   -0.001947   -0.286164
      4          6           0       -2.513998   -0.834406    0.237079
      5          6           0       -0.510315    0.764860    0.746890
      6          8           0       -1.049126    1.514171    1.542425
      7          7           0        0.894957    0.695436    0.743015
      8          6           0        1.771274   -0.048975   -0.045865
      9         16           0        3.128395    0.627493   -0.730860
     10          7           0        1.470467   -1.372768   -0.179746
     11          7           0        0.764869   -2.140744    0.771495
     12          1           0       -3.356773   -0.953946   -1.794532
     13          1           0       -4.396272    0.002012   -0.713304
     14          1           0       -2.031415    1.162467   -2.093829
     15          1           0       -2.606754    1.744734   -0.504754
     16          1           0       -0.666120   -0.572039   -0.965004
     17          1           0       -2.844299   -0.440742    1.202055
     18          1           0       -2.394909   -1.921210    0.309207
     19          1           0        1.319269    1.514437    1.164999
     20          1           0        2.167318   -1.901967   -0.689725
     21          1           0        0.943871   -1.766518    1.702893
     22          1           0       -0.233112   -2.070735    0.591158
 ---------------------------------------------------------------------

 SCF Done:  E(UB3LYP) =  -873.100741071     A.U. after   29 cycles

 The electronic state is 2-A.
 Alpha  occ. eigenvalues --  -88.63320 -18.94341 -14.21615 -14.21515 -14.20430
 Alpha  occ. eigenvalues --  -10.11659 -10.09524 -10.06612 -10.06338 -10.06058
 Alpha  occ. eigenvalues --  -10.05688  -7.72081  -5.68449  -5.67937  -5.67680
 Alpha  occ. eigenvalues --   -0.90242  -0.86907  -0.78169  -0.73750  -0.68226
 Alpha  occ. eigenvalues --   -0.58113  -0.56145  -0.55315  -0.48136  -0.47289
 Alpha  occ. eigenvalues --   -0.42665  -0.40134  -0.39630  -0.37544  -0.36599
 Alpha  occ. eigenvalues --   -0.33779  -0.31899  -0.30026  -0.28103  -0.27473
 Alpha  occ. eigenvalues --   -0.24301  -0.23169  -0.22261  -0.21759  -0.20415
 Alpha  occ. eigenvalues --   -0.19624  -0.16292  -0.12968  -0.12576  -0.08277
 Alpha  occ. eigenvalues --   -0.06208   0.04953
 Alpha virt. eigenvalues --    0.07727   0.09157   0.09693   0.10347   0.11693
 Alpha virt. eigenvalues --    0.12077   0.12647   0.13413   0.13631   0.13647
 Alpha virt. eigenvalues --    0.14729   0.15672   0.15968   0.17349   0.18010

  Beta  occ. eigenvalues --  -88.63277 -18.94002 -14.21493 -14.21470 -14.20595
  Beta  occ. eigenvalues --  -10.11312 -10.08771 -10.06609 -10.06301 -10.06087
  Beta  occ. eigenvalues --  -10.05644  -7.72043  -5.68453  -5.67782  -5.67647
  Beta  occ. eigenvalues --   -0.89644  -0.86505  -0.77892  -0.73668  -0.67888
  Beta  occ. eigenvalues --   -0.57724  -0.55772  -0.55230  -0.47564  -0.47030
  Beta  occ. eigenvalues --   -0.42488  -0.39953  -0.39421  -0.37417  -0.36477
  Beta  occ. eigenvalues --   -0.33587  -0.31633  -0.29100  -0.27894  -0.27176
  Beta  occ. eigenvalues --   -0.23826  -0.22222  -0.21967  -0.21061  -0.20164
  Beta  occ. eigenvalues --   -0.18710  -0.16020  -0.12543  -0.12221  -0.07262
  Beta  occ. eigenvalues --   -0.05925
  Beta virt. eigenvalues --    0.07619   0.09152   0.09594   0.10191   0.11591
  Beta virt. eigenvalues --    0.11747   0.12119   0.12704   0.13407   0.13757
  Beta virt. eigenvalues --    0.14634   0.15444   0.15822   0.15912   0.17497

 Mulliken charges and spin densities:
               1          2
     1  C   -0.120671  -0.034975
     2  C   -0.264830  -0.318126
     3  C    0.355844   0.208426
     4  C   -0.517787   0.011321
     5  C   -0.278359   0.164645
     6  O   -0.397924   0.118826
     7  N   -0.108838  -0.084285
     8  C    0.155656   0.303125
     9  S   -0.953975   0.171849
    10  N   -0.314722   0.124825
    11  N   -0.279651  -0.053617
    12  H    0.054912   0.053451
    13  H    0.112374   0.012713
    14  H    0.021835   0.101417
    15  H    0.176078  -0.003878
    16  H    0.156070   0.122649
    17  H    0.168028   0.008910
    18  H    0.109277  -0.020457
    19  H    0.243548   0.036057
    20  H    0.312011  -0.000856
    21  H    0.200180   0.043012
    22  H    0.170945   0.034968
 Sum of Mulliken charges =  -1.00000   1.00000

 Dipole moment (field-independent basis, Debye):
    X=             -5.9699    Y=             -3.2542    Z=              0.5333  Tot=              6.8201
 Quadrupole moment (field-independent basis, Debye-Ang):
   XX=           -118.0279   YY=            -92.8358   ZZ=            -90.3974
   XY=             -0.6935   XZ=              8.0678   YZ=             -1.8753

 Summary of Natural Population Analysis:

                                       Natural Population
                Natural  -----------------------------------------------
    Atom  No    Charge         Core      Valence    Rydberg      Total
 -----------------------------------------------------------------------
      C    1   -0.19206      0.99965     2.18505    0.00736     3.19206
      C    2   -0.17637      0.99964     2.16670    0.01002     3.17637
      C    3   -0.16345      0.99957     2.15133    0.01255     3.16345
      C    4   -0.18211      0.99964     2.17489    0.00758     3.18211
      C    5    0.38804      0.99964     1.58912    0.02320     2.61196
      O    6   -0.29595      0.99988     3.29024    0.00583     4.29595
      N    7   -0.35257      0.99963     2.84096    0.01198     3.85257
      C    8    0.24675      0.99967     1.73225    0.02133     2.75325
      S    9   -0.15397      4.99958     3.13916    0.01523     8.15397
      N   10   -0.22153      0.99961     2.70717    0.01475     3.72153
      N   11   -0.32186      0.99978     2.81100    0.01109     3.82186
      H   12    0.09142      0.00000     0.40700    0.00158     0.40858
      H   13    0.09039      0.00000     0.40838    0.00123     0.40961
      H   14    0.09516      0.00000     0.40385    0.00099     0.40484
      H   15    0.10495      0.00000     0.39389    0.00115     0.39505
      H   16    0.11279      0.00000     0.38544    0.00176     0.38721
      H   17    0.10406      0.00000     0.39461    0.00133     0.39594
      H   18    0.08832      0.00000     0.41060    0.00108     0.41168
      H   19    0.20608      0.00000     0.29218    0.00175     0.29392
      H   20    0.18804      0.00000     0.30949    0.00247     0.31196
      H   21    0.17272      0.00000     0.32517    0.00211     0.32728
      H   22    0.17113      0.00000     0.32595    0.00292     0.32887
 =======================================================================
   * Total *    0.00000     14.99628    30.84443    0.15929    46.00000

 Normal termination of Gaussian 16 at Tue Dec  8 21:42:17 2020.
