 Gaussian 16, Revision A.03,

 -----------------------------------------------------------
 # opt freq B3LYP/6-31G(d) empiricaldispersion=gd3bj scf=xqc
 -----------------------------------------------------------

 -------------------------------
 CID_114134824_JID_8164_neutraal
 -------------------------------
 Symbolic Z-matrix:
 Charge =  0 Multiplicity = 1

 SCF Done:  E(RB3LYP) =  -1146.98315301     A.U. after   15 cycles
 SCF Done:  E(RB3LYP) =  -1146.99163434     A.U. after   13 cycles
 SCF Done:  E(RB3LYP) =  -1146.99229364     A.U. after   13 cycles
 SCF Done:  E(RB3LYP) =  -1146.99325283     A.U. after   12 cycles
 SCF Done:  E(RB3LYP) =  -1146.99396946     A.U. after   13 cycles
 SCF Done:  E(RB3LYP) =  -1146.99425811     A.U. after   12 cycles
 SCF Done:  E(RB3LYP) =  -1146.99442294     A.U. after   12 cycles
 SCF Done:  E(RB3LYP) =  -1146.99449465     A.U. after   10 cycles
 SCF Done:  E(RB3LYP) =  -1146.99454726     A.U. after   11 cycles
 SCF Done:  E(RB3LYP) =  -1146.99457319     A.U. after   10 cycles
 SCF Done:  E(RB3LYP) =  -1146.99463393     A.U. after    9 cycles
 SCF Done:  E(RB3LYP) =  -1146.99463681     A.U. after    8 cycles
 SCF Done:  E(RB3LYP) =  -1146.99464079     A.U. after    9 cycles
 SCF Done:  E(RB3LYP) =  -1146.99464108     A.U. after    7 cycles
 Optimization completed.
    -- Stationary point found.
 Normal termination of Gaussian 16 at Fri Dec 11 19:20:25 2020.

 --------------------------------------------------------------------
 #N Geom=AllCheck Guess=TCheck SCRF=Check GenChk RB3LYP/6-31G(d) Freq
 --------------------------------------------------------------------

 Structure from the checkpoint file:  "JID_8164.chk"
 -------------------------------
 CID_114134824_JID_8164_neutraal
 -------------------------------
 Charge =  0 Multiplicity = 1

 SCF Done:  E(RB3LYP) =  -1146.99464108     A.U. after    1 cycles

  Exact polarizability: 220.355   5.116 148.853  10.105   2.310 152.339
 Approx polarizability: 263.822  18.152 232.522  22.689  -1.428 255.264

                      1                      2                      3
                      A                      A                      A
 Frequencies --     23.9780                25.1438                40.5756
 Red. masses --      4.2440                 3.8424                 3.4454
 Frc consts  --      0.0014                 0.0014                 0.0033
 IR Inten    --      0.4539                 0.1918                 0.6935

                      4                      5                      6
                      A                      A                      A
 Frequencies --     45.7426                58.5172                67.5287
 Red. masses --      3.2985                 3.3452                 2.6298
 Frc consts  --      0.0041                 0.0067                 0.0071
 IR Inten    --      1.1179                 1.8352                 1.6640

                      7                      8                      9
                      A                      A                      A
 Frequencies --     85.4242               109.5384               143.8621
 Red. masses --      5.0705                 4.4623                 2.1397
 Frc consts  --      0.0218                 0.0315                 0.0261
 IR Inten    --      1.5231                 1.3340                 0.6423

                     10                     11                     12
                      A                      A                      A
 Frequencies --    160.7711               206.3964               217.5525
 Red. masses --      3.0417                 2.1866                 3.5662
 Frc consts  --      0.0463                 0.0549                 0.0994
 IR Inten    --      0.0958                 0.4188                 2.0104

                     13                     14                     15
                      A                      A                      A
 Frequencies --    229.2776               241.4970               262.2946
 Red. masses --      1.3048                 1.6192                 4.8658
 Frc consts  --      0.0404                 0.0556                 0.1972
 IR Inten    --      1.2258                 6.4257                 2.4017

                     16                     17                     18
                      A                      A                      A
 Frequencies --    295.8262               311.2771               338.5840
 Red. masses --      2.2870                 2.0656                 2.6475
 Frc consts  --      0.1179                 0.1179                 0.1788
 IR Inten    --      0.7131                 2.7046                 0.6531

                     19                     20                     21
                      A                      A                      A
 Frequencies --    358.4003               388.7063               392.2055
 Red. masses --      2.4555                 3.4660                 2.0628
 Frc consts  --      0.1858                 0.3085                 0.1870
 IR Inten    --     14.8932                 3.7543                53.4535

                     22                     23                     24
                      A                      A                      A
 Frequencies --    404.3197               426.5486               448.5416
 Red. masses --      2.6301                 1.9576                 2.4070
 Frc consts  --      0.2533                 0.2098                 0.2853
 IR Inten    --      1.0645                62.3981                21.5984

                     25                     26                     27
                      A                      A                      A
 Frequencies --    458.9339               511.5294               552.1143
 Red. masses --      2.7836                 2.5383                 3.1275
 Frc consts  --      0.3454                 0.3913                 0.5617
 IR Inten    --     12.6229                13.5244                 0.5524

                     28                     29                     30
                      A                      A                      A
 Frequencies --    555.9963               594.9977               617.9240
 Red. masses --      2.4280                 4.6641                 6.8331
 Frc consts  --      0.4422                 0.9729                 1.5372
 IR Inten    --      2.3135                 8.0328                 5.2089

                     31                     32                     33
                      A                      A                      A
 Frequencies --    663.9313               719.0160               737.9808
 Red. masses --      3.4853                 3.7570                 5.6187
 Frc consts  --      0.9052                 1.1444                 1.8029
 IR Inten    --      1.7302                 4.4490                14.1074

                     34                     35                     36
                      A                      A                      A
 Frequencies --    742.5880               758.5053               772.7005
 Red. masses --      4.8177                 2.5600                 3.2696
 Frc consts  --      1.5652                 0.8678                 1.1502
 IR Inten    --     13.8972                 3.5751                 2.7093

                     37                     38                     39
                      A                      A                      A
 Frequencies --    801.8348               852.1986               883.3887
 Red. masses --      1.2564                 1.8137                 2.1791
 Frc consts  --      0.4759                 0.7761                 1.0019
 IR Inten    --     10.1528                 2.8223                 1.3684

                     40                     41                     42
                      A                      A                      A
 Frequencies --    898.1207               913.8409               924.6431
 Red. masses --      1.6301                 1.5567                 2.4254
 Frc consts  --      0.7747                 0.7659                 1.2217
 IR Inten    --      1.6621                 3.3936                 0.8166

                     43                     44                     45
                      A                      A                      A
 Frequencies --    929.3404               955.1115               975.6916
 Red. masses --      2.3710                 2.2131                 2.1308
 Frc consts  --      1.2065                 1.1895                 1.1951
 IR Inten    --      2.4460                 1.9626                 6.8694

                     46                     47                     48
                      A                      A                      A
 Frequencies --   1003.6219              1032.9610              1034.9666
 Red. masses --      2.1347                 2.9205                 1.8432
 Frc consts  --      1.2668                 1.8360                 1.1633
 IR Inten    --      3.7165                19.8191                13.5214

                     49                     50                     51
                      A                      A                      A
 Frequencies --   1042.5260              1055.1412              1082.7248
 Red. masses --      2.1221                 2.4103                 1.4682
 Frc consts  --      1.3589                 1.5810                 1.0141
 IR Inten    --      7.9910                16.9646                 4.2695

                     52                     53                     54
                      A                      A                      A
 Frequencies --   1104.0420              1106.0662              1118.0434
 Red. masses --      2.3771                 1.8183                 2.0900
 Frc consts  --      1.7072                 1.3106                 1.5392
 IR Inten    --      7.5414                 5.1727                17.4222

                     55                     56                     57
                      A                      A                      A
 Frequencies --   1122.4942              1126.5310              1164.4305
 Red. masses --      1.7108                 1.9775                 1.3237
 Frc consts  --      1.2701                 1.4786                 1.0574
 IR Inten    --     61.3987                 8.3768                 9.5041

                     58                     59                     60
                      A                      A                      A
 Frequencies --   1194.6482              1202.9593              1217.3217
 Red. masses --      1.4087                 2.0747                 1.5265
 Frc consts  --      1.1846                 1.7689                 1.3328
 IR Inten    --      5.3125                35.0155                56.7203

                     61                     62                     63
                      A                      A                      A
 Frequencies --   1258.5019              1261.9547              1270.1647
 Red. masses --      1.5996                 1.5625                 1.3491
 Frc consts  --      1.4927                 1.4661                 1.2824
 IR Inten    --    139.0338                58.4935                 2.6230

                     64                     65                     66
                      A                      A                      A
 Frequencies --   1271.8813              1284.1293              1302.1990
 Red. masses --      2.7908                 1.6415                 1.3818
 Frc consts  --      2.6600                 1.5948                 1.3806
 IR Inten    --      9.2331                 7.0582                 0.6237

                     67                     68                     69
                      A                      A                      A
 Frequencies --   1311.9517              1321.8108              1342.6779
 Red. masses --      1.4887                 1.3348                 1.4907
 Frc consts  --      1.5097                 1.3741                 1.5834
 IR Inten    --      3.2763                21.6099                 1.1012

                     70                     71                     72
                      A                      A                      A
 Frequencies --   1349.5655              1363.9863              1372.0468
 Red. masses --      1.4187                 1.2713                 1.4061
 Frc consts  --      1.5224                 1.3935                 1.5596
 IR Inten    --     94.9853                 2.8658                 5.6995

                     73                     74                     75
                      A                      A                      A
 Frequencies --   1373.1878              1383.4956              1400.3218
 Red. masses --      1.4383                 1.5385                 1.3443
 Frc consts  --      1.5979                 1.7350                 1.5531
 IR Inten    --      7.4422                 0.3323                59.5584

                     76                     77                     78
                      A                      A                      A
 Frequencies --   1407.8532              1435.2522              1461.9990
 Red. masses --      1.2548                 1.2729                 2.2979
 Frc consts  --      1.4654                 1.5449                 2.8938
 IR Inten    --      3.5729                13.9236                99.1811

                     79                     80                     81
                      A                      A                      A
 Frequencies --   1498.5563              1507.2643              1508.0750
 Red. masses --      1.1393                 1.0963                 1.0964
 Frc consts  --      1.5075                 1.4674                 1.4691
 IR Inten    --      7.6259                 8.2380                 8.2123

                     82                     83                     84
                      A                      A                      A
 Frequencies --   1518.7706              1520.5395              1521.9532
 Red. masses --      1.0873                 1.0791                 1.0806
 Frc consts  --      1.4777                 1.4700                 1.4748
 IR Inten    --      0.6822                 3.5591                 5.8991

                     85                     86                     87
                      A                      A                      A
 Frequencies --   1522.9080              1529.8849              1532.7157
 Red. masses --      1.0912                 1.1200                 1.0936
 Frc consts  --      1.4911                 1.5445                 1.5137
 IR Inten    --      1.5945                 6.6582                11.8348

                     88                     89                     90
                      A                      A                      A
 Frequencies --   1533.3892              1538.3773              1546.3054
 Red. masses --      1.0521                 1.0714                 1.1271
 Frc consts  --      1.4575                 1.4939                 1.5878
 IR Inten    --      7.7580                22.6228                16.9329

                     91                     92                     93
                      A                      A                      A
 Frequencies --   1547.9630              1557.4391              1715.9472
 Red. masses --      1.4583                 1.1957                 7.4547
 Frc consts  --      2.0589                 1.7089                12.9327
 IR Inten    --    162.7481                40.6216               289.1258

                     94                     95                     96
                      A                      A                      A
 Frequencies --   1753.8667              2993.6283              3032.0624
 Red. masses --      9.2881                 1.0705                 1.0437
 Frc consts  --     16.8334                 5.6525                 5.6533
 IR Inten    --    298.2783                48.4994                32.2428

                     97                     98                     99
                      A                      A                      A
 Frequencies --   3038.1245              3039.7777              3048.6539
 Red. masses --      1.0664                 1.0714                 1.0623
 Frc consts  --      5.7994                 5.8330                 5.8173
 IR Inten    --     23.3265                22.0677                24.3735

                    100                    101                    102
                      A                      A                      A
 Frequencies --   3054.2102              3063.4337              3066.7030
 Red. masses --      1.0359                 1.0910                 1.0681
 Frc consts  --      5.6935                 6.0324                 5.9186
 IR Inten    --     23.7703                48.7836                37.1118

                    103                    104                    105
                      A                      A                      A
 Frequencies --   3069.9582              3071.9978              3084.9581
 Red. masses --      1.0606                 1.0604                 1.0642
 Frc consts  --      5.8892                 5.8961                 5.9674
 IR Inten    --     37.2712                 5.4702                27.1855

                    106                    107                    108
                      A                      A                      A
 Frequencies --   3090.0031              3090.2326              3100.4619
 Red. masses --      1.0974                 1.0977                 1.0937
 Frc consts  --      6.1736                 6.1761                 6.1946
 IR Inten    --     13.1054                66.4418                33.8564

                    109                    110                    111
                      A                      A                      A
 Frequencies --   3105.0739              3114.1953              3115.3654
 Red. masses --      1.1027                 1.1056                 1.1021
 Frc consts  --      6.2637                 6.3174                 6.3024
 IR Inten    --     41.3169                39.4379                28.3083

                    112                    113                    114
                      A                      A                      A
 Frequencies --   3121.6894              3136.1725              3150.6821
 Red. masses --      1.1089                 1.0984                 1.1012
 Frc consts  --      6.3668                 6.3651                 6.4404
 IR Inten    --     13.0883                24.0299                18.4369

                    115                    116                    117
                      A                      A                      A
 Frequencies --   3153.1372              3173.7480              3622.1498
 Red. masses --      1.1010                 1.0981                 1.0771
 Frc consts  --      6.4495                 6.5170                 8.3257
 IR Inten    --      6.8749                 4.8282                36.0111

 - Thermochemistry -
 -------------------
 Temperature   298.150 Kelvin.  Pressure   1.00000 Atm.
 Atom     1 has atomic number  6 and mass  12.00000

 Molecular mass:   269.15618 amu.
 Principal axes and moments of inertia in atomic units:
                           1         2         3
     Eigenvalues --  1892.90791********************
           X            0.99992  -0.01194  -0.00346
           Y            0.01241   0.97712   0.21231
           Z            0.00085  -0.21233   0.97720
 This molecule is an asymmetric top.
 Rotational symmetry number  1.
 Warning -- assumption of classical behavior for rotation
           may cause significant error
 Rotational temperatures (Kelvin)      0.04576     0.00766     0.00759
 Rotational constants (GHZ):           0.95342     0.15968     0.15807
 Zero-point vibrational energy     946693.1 (Joules/Mol)
                                  226.26508 (Kcal/Mol)
 Warning -- explicit consideration of  30 degrees of freedom as
           vibrations may cause significant error
 Vibrational temperatures:     34.50    36.18    58.38    65.81    84.19
          (Kelvin)             97.16   122.91   157.60   206.99   231.31
                              296.96   313.01   329.88   347.46   377.38
                              425.63   447.86   487.15   515.66   559.26
                              564.30   581.73   613.71   645.35   660.30
                              735.98   794.37   799.95   856.07   889.05
                              955.25  1034.50  1061.79  1068.42  1091.32
                             1111.74  1153.66  1226.12  1271.00  1292.20
                             1314.81  1330.36  1337.11  1374.19  1403.80
                             1443.99  1486.20  1489.09  1499.96  1518.11
                             1557.80  1588.47  1591.38  1608.62  1615.02
                             1620.83  1675.36  1718.83  1730.79  1751.45
                             1810.70  1815.67  1827.48  1829.95  1847.58
                             1873.57  1887.61  1901.79  1931.81  1941.72
                             1962.47  1974.07  1975.71  1990.54  2014.75
                             2025.59  2065.01  2103.49  2156.09  2168.62
                             2169.78  2185.17  2187.72  2189.75  2191.12
                             2201.16  2205.24  2206.21  2213.38  2224.79
                             2227.17  2240.81  2468.87  2523.42  4307.16
                             4362.46  4371.18  4373.56  4386.33  4394.33
                             4407.60  4412.30  4416.99  4419.92  4438.57
                             4445.83  4446.16  4460.87  4467.51  4480.63
                             4482.32  4491.41  4512.25  4533.13  4536.66
                             4566.32  5211.47

 Zero-point correction=                           0.360576 (Hartree/Particle)
 Thermal correction to Energy=                    0.379746
 Thermal correction to Enthalpy=                  0.380690
 Thermal correction to Gibbs Free Energy=         0.310767
 Sum of electronic and zero-point Energies=          -1146.634065
 Sum of electronic and thermal Energies=             -1146.614895
 Sum of electronic and thermal Enthalpies=           -1146.613951
 Sum of electronic and thermal Free Energies=        -1146.683874

                     E (Thermal)             CV                S
                      KCal/Mol        Cal/Mol-Kelvin    Cal/Mol-Kelvin
 Total                  238.294             71.722            147.165
 Electronic               0.000              0.000              0.000
 Translational            0.889              2.981             42.669
 Rotational               0.889              2.981             33.857
 Vibrational            236.517             65.760             70.639
 Vibration     1          0.593              1.985              6.274
 Vibration     2          0.593              1.985              6.180
 Vibration     3          0.594              1.981              5.231
 Vibration     4          0.595              1.979              4.993
 Vibration     5          0.596              1.974              4.507
 Vibration     6          0.598              1.970              4.224
 Vibration     7          0.601              1.959              3.762
 Vibration     8          0.606              1.942              3.277
 Vibration     9          0.616              1.909              2.752
 Vibration    10          0.622              1.890              2.541
 Vibration    11          0.641              1.831              2.075
 Vibration    12          0.646              1.814              1.979
 Vibration    13          0.652              1.796              1.885
 Vibration    14          0.658              1.777              1.792
 Vibration    15          0.670              1.742              1.646
 Vibration    16          0.690              1.682              1.440
 Vibration    17          0.700              1.652              1.356
 Vibration    18          0.719              1.598              1.219
 Vibration    19          0.733              1.558              1.129
 Vibration    20          0.757              1.494              1.005
 Vibration    21          0.760              1.487              0.992
 Vibration    22          0.770              1.461              0.947
 Vibration    23          0.788              1.412              0.870
 Vibration    24          0.808              1.364              0.800
 Vibration    25          0.817              1.341              0.769
 Vibration    26          0.867              1.224              0.630
 Vibration    27          0.907              1.135              0.540
 Vibration    28          0.911              1.127              0.532
 Vibration    29          0.953              1.042              0.458
 Vibration    30          0.978              0.994              0.420

                           ! Non-Optimized Parameters !
 Normal termination of Gaussian 16 at Fri Dec 11 19:37:37 2020.

 ----------------------------------------------------------------------
 # B3LYP/6-311++G(d,p) empiricaldispersion=gd3bj scf=xqc pop=npa geom=c
 heck
 ----------------------------------------------------------------------

 ---------------------------------------
 CID_114134824_JID_8164_Energie_neutraal
 ---------------------------------------
 Structure from the checkpoint file:  "JID_8164.chk"
 Charge =  0 Multiplicity = 1

 SCF Done:  E(RB3LYP) =  -1147.23087327     A.U. after   16 cycles
 Normal termination of Gaussian 16 at Fri Dec 11 19:45:40 2020.

 ----------------------------------------------------------------------
 # B3LYP/6-311++G(d,p) empiricaldispersion=gd3bj scf=xqc pop=npa geom=c
 heck
 ----------------------------------------------------------------------

 -------------------------------------
 CID_114134824_JID_8164_Energie_kation
 -------------------------------------
 Structure from the checkpoint file:  "JID_8164.chk"
 Charge =  1 Multiplicity = 2

 SCF Done:  E(UB3LYP) =  -1146.93703944     A.U. after   33 cycles
 SCF Done:  E(UB3LYP) =  -1146.93703944     a.u. after    3 cycles
 Normal termination of Gaussian 16 at Fri Dec 11 20:49:29 2020.
 Gaussian 16:  ES64L-G16RevA.03 25-Dec-2016

 ----------------------------------------------------------------------
 # B3LYP/6-311++G(d,p) empiricaldispersion=gd3bj scf=xqc pop=npa geom=c
 heck
 ----------------------------------------------------------------------

 ------------------------------------
 CID_114134824_JID_8164_Energie_anion
 ------------------------------------
 Structure from the checkpoint file:  "JID_8164.chk"
 Charge = -1 Multiplicity = 2

                         Standard orientation:
 ---------------------------------------------------------------------
 Center     Atomic      Atomic             Coordinates (Angstroms)
 Number     Number       Type             X           Y           Z
 ---------------------------------------------------------------------
      1          6           0       -5.315507    1.388083   -0.103554
      2          6           0       -4.987943    0.250508    0.865876
      3          7           0       -3.595836   -0.192455    0.767889
      4          6           0       -2.607196    0.571980    1.514115
      5          6           0       -3.299842   -1.113655   -0.198270
      6          8           0       -4.167847   -1.639428   -0.893437
      7          6           0       -1.827780   -1.484433   -0.412444
      8          7           0       -1.066743   -0.371456   -0.961749
      9          6           0        0.137620    0.026632   -0.430927
     10          7           0        0.562194   -0.437522    0.679030
     11          6           0        1.795537    0.051935    1.264111
     12          6           0        2.929072    0.324411    0.259710
     13          6           0        4.238849    0.687179    1.023644
     14          6           0        5.094749   -0.587419    0.988039
     15          6           0        4.800919   -1.151879   -0.407556
     16          6           0        3.280957   -0.960492   -0.556036
     17          6           0        2.531203    1.496388   -0.639042
     18         16           0        0.907929    1.272693   -1.485853
     19          1           0       -4.673455    2.259422    0.067775
     20          1           0       -6.357231    1.706430    0.016043
     21          1           0       -5.176224    1.048555   -1.134091
     22          1           0       -5.162593    0.561315    1.902120
     23          1           0       -5.621100   -0.612621    0.653792
     24          1           0       -1.650856    0.052087    1.564896
     25          1           0       -2.430881    1.558583    1.064450
     26          1           0       -2.972495    0.719620    2.536557
     27          1           0       -1.334009   -1.788088    0.512021
     28          1           0       -1.830252   -2.333894   -1.102083
     29          1           0       -1.245442   -0.135809   -1.927680
     30          1           0        1.597453    0.970977    1.839293
     31          1           0        2.137127   -0.697042    1.988750
     32          1           0        4.767335    1.494627    0.499643
     33          1           0        4.033456    1.046971    2.038203
     34          1           0        4.753062   -1.294367    1.755409
     35          1           0        6.156811   -0.392535    1.169961
     36          1           0        5.111748   -2.194262   -0.532710
     37          1           0        5.335908   -0.559631   -1.162138
     38          1           0        2.747883   -1.817864   -0.131674
     39          1           0        2.963400   -0.882486   -1.600390
     40          1           0        2.482847    2.421918   -0.057641
     41          1           0        3.262280    1.635029   -1.441541
 ---------------------------------------------------------------------

 SCF Done:  E(UB3LYP) =  -1147.21995130     A.U. after   33 cycles
 SCF Done:  E(UB3LYP) =  -1147.21995130     a.u. after    1 cycles

 The electronic state is 2-A.
 Alpha  occ. eigenvalues --  -88.76627 -19.00353 -14.25898 -14.25638 -14.19888
 Alpha  occ. eigenvalues --  -10.18564 -10.18172 -10.12802 -10.11902 -10.11371
 Alpha  occ. eigenvalues --  -10.11073 -10.10351 -10.09868 -10.08087 -10.07610
 Alpha  occ. eigenvalues --  -10.07481 -10.07381 -10.07197  -7.85284  -5.81650
 Alpha  occ. eigenvalues --   -5.81287  -5.80696  -0.95554  -0.88816  -0.85164
 Alpha  occ. eigenvalues --   -0.81134  -0.75707  -0.70384  -0.68578  -0.66750
 Alpha  occ. eigenvalues --   -0.63278  -0.62152  -0.61539  -0.58263  -0.56160
 Alpha  occ. eigenvalues --   -0.54708  -0.49501  -0.48481  -0.45946  -0.45724
 Alpha  occ. eigenvalues --   -0.43395  -0.40889  -0.40508  -0.39669  -0.39339
 Alpha  occ. eigenvalues --   -0.37263  -0.36498  -0.35835  -0.35004  -0.34627
 Alpha  occ. eigenvalues --   -0.33973  -0.32900  -0.32060  -0.31618  -0.31072
 Alpha  occ. eigenvalues --   -0.30924  -0.30732  -0.29605  -0.28466  -0.28420
 Alpha  occ. eigenvalues --   -0.27392  -0.26584  -0.25373  -0.24932  -0.24782
 Alpha  occ. eigenvalues --   -0.23810  -0.23295  -0.22432  -0.18104  -0.16279
 Alpha  occ. eigenvalues --   -0.15793  -0.15372  -0.14515   0.03869
 Alpha virt. eigenvalues --    0.05253   0.06665   0.06848   0.07059   0.07417
 Alpha virt. eigenvalues --    0.07921   0.08276   0.08681   0.09238   0.09293
 Alpha virt. eigenvalues --    0.09725   0.09910   0.10402   0.10508   0.10909

  Beta  occ. eigenvalues --  -88.76624 -19.00352 -14.25898 -14.25637 -14.19886
  Beta  occ. eigenvalues --  -10.18562 -10.18172 -10.12799 -10.11889 -10.11338
  Beta  occ. eigenvalues --  -10.11048 -10.10331 -10.09869 -10.08069 -10.07585
  Beta  occ. eigenvalues --  -10.07462 -10.07360 -10.07183  -7.85280  -5.81644
  Beta  occ. eigenvalues --   -5.81283  -5.80694  -0.95551  -0.88809  -0.85157
  Beta  occ. eigenvalues --   -0.81124  -0.75685  -0.70353  -0.68556  -0.66726
  Beta  occ. eigenvalues --   -0.63254  -0.62111  -0.61506  -0.58227  -0.56117
  Beta  occ. eigenvalues --   -0.54662  -0.49476  -0.48417  -0.45917  -0.45691
  Beta  occ. eigenvalues --   -0.43374  -0.40870  -0.40479  -0.39633  -0.39315
  Beta  occ. eigenvalues --   -0.37237  -0.36465  -0.35805  -0.34985  -0.34604
  Beta  occ. eigenvalues --   -0.33954  -0.32878  -0.32030  -0.31592  -0.31041
  Beta  occ. eigenvalues --   -0.30901  -0.30708  -0.29583  -0.28442  -0.28393
  Beta  occ. eigenvalues --   -0.27371  -0.26566  -0.25338  -0.24898  -0.24748
  Beta  occ. eigenvalues --   -0.23780  -0.23260  -0.22397  -0.18098  -0.16269
  Beta  occ. eigenvalues --   -0.15783  -0.15360  -0.14505
  Beta virt. eigenvalues --    0.05790   0.06168   0.06998   0.07373   0.07407
  Beta virt. eigenvalues --    0.07859   0.08248   0.08494   0.08804   0.09325
  Beta virt. eigenvalues --    0.09614   0.09926   0.10075   0.10593   0.10845

 Mulliken charges and spin densities:
               1          2
     1  C    0.281487  -0.710892
     2  C   -0.445268   0.297182
     3  N    0.035021   0.049319
     4  C    0.124536  -0.534010
     5  C   -0.334491   0.309272
     6  O   -0.336429   0.004699
     7  C    0.111842  -0.350248
     8  N    0.063214   0.092129
     9  C   -0.790937   0.412733
    10  N    0.060202   0.076821
    11  C    0.772347  -1.915121
    12  C   -1.329714   2.727389
    13  C    0.960435  -1.362064
    14  C   -0.222568  -0.131709
    15  C    0.916547  -1.491805
    16  C   -0.860290   0.729847
    17  C    0.698153  -1.780510
    18  S    0.251099  -0.502645
    19  H   -0.011285   0.150264
    20  H   -0.127804   0.270184
    21  H    0.072288   0.095322
    22  H   -0.169063   0.312693
    23  H    0.110989   0.073300
    24  H    0.379968  -0.212295
    25  H   -0.017314   0.177288
    26  H   -0.348599   0.500598
    27  H    0.145144   0.067748
    28  H    0.141436   0.049234
    29  H    0.271608   0.020120
    30  H   -0.160508   0.360834
    31  H    0.111158   0.089466
    32  H   -0.321845   0.488675
    33  H   -0.247744   0.412656
    34  H    0.080239   0.035930
    35  H   -0.290788   0.467282
    36  H   -0.069544   0.233537
    37  H   -0.076071   0.220576
    38  H    0.109122   0.075104
    39  H   -0.036637   0.203588
    40  H   -0.314786   0.570865
    41  H   -0.185148   0.416644
 Sum of Mulliken charges =  -1.00000   1.00000

 Dipole moment (field-independent basis, Debye):
    X=             -2.8930    Y=             -2.7983    Z=             -1.6808  Tot=              4.3618
 Quadrupole moment (field-independent basis, Debye-Ang):
   XX=           -246.8921   YY=           -162.1739   ZZ=           -157.4438
   XY=             -7.7153   XZ=              1.6350   YZ=             -6.2704

 Summary of Natural Population Analysis:

                                       Natural Population
                Natural  -----------------------------------------------
    Atom  No    Charge         Core      Valence    Rydberg      Total
 -----------------------------------------------------------------------
      C    1   -0.29326      0.99966     2.28868    0.00492     3.29326
      C    2   -0.08707      0.99962     2.07649    0.01096     3.08707
      N    3   -0.24913      0.99964     2.73925    0.01025     3.74913
      C    4   -0.18243      0.99962     2.17444    0.00836     3.18243
      C    5    0.33870      0.99964     1.63923    0.02244     2.66130
      O    6   -0.33130      0.99988     3.32598    0.00543     4.33130
      C    7   -0.13072      0.99958     2.12057    0.01057     3.13072
      N    8   -0.32288      0.99965     2.81275    0.01047     3.82288
      C    9    0.16603      0.99953     1.81371    0.02073     2.83397
      N   10   -0.29774      0.99961     2.78588    0.01225     3.79774
      C   11   -0.08955      0.99953     2.07590    0.01411     3.08955
      C   12   -0.05329      0.99954     2.03907    0.01468     3.05329
      C   13   -0.18542      0.99959     2.17540    0.01043     3.18542
      C   14   -0.19054      0.99963     2.18280    0.00811     3.19054
      C   15   -0.19107      0.99964     2.18334    0.00810     3.19107
      C   16   -0.19182      0.99960     2.18281    0.00942     3.19182
      C   17   -0.23365      0.99950     2.22252    0.01162     3.23365
      S   18    0.09262      4.99955     2.89059    0.01724     7.90738
      H   19    0.09868      0.00000     0.40040    0.00092     0.40132
      H   20    0.09942      0.00000     0.39972    0.00086     0.40058
      H   21    0.10353      0.00000     0.39563    0.00084     0.39647
      H   22    0.09380      0.00000     0.40495    0.00125     0.40620
      H   23    0.10779      0.00000     0.39108    0.00113     0.39221
      H   24    0.11290      0.00000     0.38504    0.00206     0.38710
      H   25    0.09534      0.00000     0.40322    0.00144     0.40466
      H   26    0.09579      0.00000     0.40290    0.00131     0.40421
      H   27    0.12178      0.00000     0.37666    0.00155     0.37822
      H   28    0.10325      0.00000     0.39568    0.00107     0.39675
      H   29    0.19291      0.00000     0.30503    0.00206     0.30709
      H   30    0.09577      0.00000     0.40261    0.00162     0.40423
      H   31    0.09585      0.00000     0.40252    0.00163     0.40415
      H   32    0.10075      0.00000     0.39722    0.00204     0.39925
      H   33    0.10351      0.00000     0.39512    0.00137     0.39649
      H   34    0.09272      0.00000     0.40597    0.00131     0.40728
      H   35    0.10180      0.00000     0.39715    0.00105     0.39820
      H   36    0.09859      0.00000     0.40058    0.00083     0.40141
      H   37    0.09537      0.00000     0.40312    0.00151     0.40463
      H   38    0.10098      0.00000     0.39772    0.00130     0.39902
      H   39    0.10425      0.00000     0.39455    0.00120     0.39575
      H   40    0.10702      0.00000     0.39107    0.00190     0.39298
      H   41    0.11070      0.00000     0.38755    0.00174     0.38930
 =======================================================================
   * Total *   -0.00000     21.99303    50.76488    0.24209    73.00000

 Normal termination of Gaussian 16 at Fri Dec 11 21:11:34 2020.
