 Gaussian 16, Revision A.03,

 -----------------------------------------------------------
 # opt freq B3LYP/6-31G(d) empiricaldispersion=gd3bj scf=xqc
 -----------------------------------------------------------

 --------------------------------
 CID_116605643_JID_10560_neutraal
 --------------------------------
 Symbolic Z-matrix:
 Charge =  0 Multiplicity = 1

 SCF Done:  E(RB3LYP) =  -827.415432767     A.U. after   15 cycles
 SCF Done:  E(RB3LYP) =  -827.420701520     A.U. after   14 cycles
 SCF Done:  E(RB3LYP) =  -827.421729808     A.U. after   12 cycles
 SCF Done:  E(RB3LYP) =  -827.422026008     A.U. after   14 cycles
 SCF Done:  E(RB3LYP) =  -827.422198900     A.U. after   12 cycles
 SCF Done:  E(RB3LYP) =  -827.422605322     A.U. after   12 cycles
 SCF Done:  E(RB3LYP) =  -827.422650113     A.U. after   11 cycles
 SCF Done:  E(RB3LYP) =  -827.422656748     A.U. after   10 cycles
 SCF Done:  E(RB3LYP) =  -827.422658460     A.U. after    8 cycles
 SCF Done:  E(RB3LYP) =  -827.422659365     A.U. after    8 cycles
 SCF Done:  E(RB3LYP) =  -827.422659717     A.U. after    7 cycles
 SCF Done:  E(RB3LYP) =  -827.422659797     A.U. after    7 cycles
 Optimization completed.
    -- Stationary point found.
 Normal termination of Gaussian 16 at Mon Dec 14 17:41:10 2020.

 --------------------------------------------------------------------
 #N Geom=AllCheck Guess=TCheck SCRF=Check GenChk RB3LYP/6-31G(d) Freq
 --------------------------------------------------------------------

 Structure from the checkpoint file:  "JID_10560.chk"
 --------------------------------
 CID_116605643_JID_10560_neutraal
 --------------------------------
 Charge =  0 Multiplicity = 1

 SCF Done:  E(RB3LYP) =  -827.422659797     A.U. after    1 cycles

  Exact polarizability: 335.010  19.757 212.930  11.183 -15.274 122.099
 Approx polarizability: 458.452  55.628 373.174  17.974 -44.438 201.257

                      1                      2                      3
                      A                      A                      A
 Frequencies --     27.5792                30.1590                35.7450
 Red. masses --      3.8697                 3.5809                 4.7389
 Frc consts  --      0.0017                 0.0019                 0.0036
 IR Inten    --      1.1393                 0.3419                 0.6751

                      4                      5                      6
                      A                      A                      A
 Frequencies --     66.9680                94.4737               121.3097
 Red. masses --      5.7022                 3.7230                 3.3322
 Frc consts  --      0.0151                 0.0196                 0.0289
 IR Inten    --      1.5350                 0.3428                 1.9857

                      7                      8                      9
                      A                      A                      A
 Frequencies --    134.7601               138.2592               147.4646
 Red. masses --      3.9172                 1.0544                 1.1635
 Frc consts  --      0.0419                 0.0119                 0.0149
 IR Inten    --      2.3563                 0.0360                 0.3344

                     10                     11                     12
                      A                      A                      A
 Frequencies --    157.3865               177.3385               195.6993
 Red. masses --      1.8237                 1.6321                 2.8242
 Frc consts  --      0.0266                 0.0302                 0.0637
 IR Inten    --      2.6589                 1.2905                 1.7160

                     13                     14                     15
                      A                      A                      A
 Frequencies --    213.6323               250.9365               298.6569
 Red. masses --      3.1221                 3.7421                 2.5875
 Frc consts  --      0.0840                 0.1388                 0.1360
 IR Inten    --      2.9553                 4.1484                 0.5238

                     16                     17                     18
                      A                      A                      A
 Frequencies --    306.8489               313.6065               327.7096
 Red. masses --      3.2491                 4.3903                 3.6606
 Frc consts  --      0.1802                 0.2544                 0.2316
 IR Inten    --      2.4956                 4.6937                 5.0483

                     19                     20                     21
                      A                      A                      A
 Frequencies --    336.2902               359.7561               372.1364
 Red. masses --      1.0759                 4.1559                 3.3208
 Frc consts  --      0.0717                 0.3169                 0.2710
 IR Inten    --     17.2208                 0.6665                 2.9198

                     22                     23                     24
                      A                      A                      A
 Frequencies --    415.8278               418.7495               446.4758
 Red. masses --      3.4436                 3.2565                 4.0538
 Frc consts  --      0.3508                 0.3364                 0.4761
 IR Inten    --      0.1113                 0.0536                18.0187

                     25                     26                     27
                      A                      A                      A
 Frequencies --    464.3669               482.5275               512.8279
 Red. masses --      3.0289                 4.5728                 1.9787
 Frc consts  --      0.3848                 0.6273                 0.3066
 IR Inten    --      3.2174                 1.7391               111.0537

                     28                     29                     30
                      A                      A                      A
 Frequencies --    522.7785               555.3945               576.1435
 Red. masses --      3.4224                 2.3805                 2.6391
 Frc consts  --      0.5511                 0.4326                 0.5161
 IR Inten    --     88.2057               336.1025               109.9375

                     31                     32                     33
                      A                      A                      A
 Frequencies --    582.6939               630.6683               658.8453
 Red. masses --      3.9876                 4.0102                 6.8124
 Frc consts  --      0.7977                 0.9398                 1.7423
 IR Inten    --      6.0855                 0.7767                 0.1886

                     34                     35                     36
                      A                      A                      A
 Frequencies --    689.4209               708.9119               732.7863
 Red. masses --      3.6802                 3.9869                 4.0812
 Frc consts  --      1.0306                 1.1805                 1.2912
 IR Inten    --     12.7770                17.4597                 3.4121

                     37                     38                     39
                      A                      A                      A
 Frequencies --    754.5936               768.1841               810.3755
 Red. masses --      5.7786                 4.0986                 3.0159
 Frc consts  --      1.9386                 1.4250                 1.1669
 IR Inten    --      0.1086                12.8981                 3.7069

                     40                     41                     42
                      A                      A                      A
 Frequencies --    821.5243               821.7720               839.5333
 Red. masses --      2.8354                 1.4561                 1.9640
 Frc consts  --      1.1275                 0.5794                 0.8156
 IR Inten    --      1.0815                 0.4056                57.1096

                     43                     44                     45
                      A                      A                      A
 Frequencies --    881.3194               893.3585               899.3027
 Red. masses --      4.7742                 1.3780                 2.0087
 Frc consts  --      2.1848                 0.6480                 0.9572
 IR Inten    --      0.6593                14.4846                 8.0311

                     46                     47                     48
                      A                      A                      A
 Frequencies --    929.6923               946.3849               953.1116
 Red. masses --      1.3255                 1.3295                 1.3096
 Frc consts  --      0.6750                 0.7016                 0.7009
 IR Inten    --      6.0894                 0.6838                 0.6900

                     49                     50                     51
                      A                      A                      A
 Frequencies --   1016.6451              1024.6854              1030.8880
 Red. masses --      1.7808                 1.5007                 1.6253
 Frc consts  --      1.0844                 0.9284                 1.0177
 IR Inten    --     15.6214                25.5453                11.9295

                     52                     53                     54
                      A                      A                      A
 Frequencies --   1032.4122              1043.2765              1060.1492
 Red. masses --      1.6071                 2.7877                 1.4308
 Frc consts  --      1.0092                 1.7877                 0.9475
 IR Inten    --     13.8211                17.5109                 5.2725

                     55                     56                     57
                      A                      A                      A
 Frequencies --   1065.1413              1073.9751              1085.5754
 Red. masses --      1.4795                 1.5132                 1.5849
 Frc consts  --      0.9890                 1.0284                 1.1004
 IR Inten    --      7.7212                 8.2761                 0.2484

                     58                     59                     60
                      A                      A                      A
 Frequencies --   1093.2780              1165.1345              1170.7045
 Red. masses --      1.4820                 1.6142                 2.0800
 Frc consts  --      1.0436                 1.2911                 1.6796
 IR Inten    --      2.1332                67.1867                79.2121

                     61                     62                     63
                      A                      A                      A
 Frequencies --   1215.6339              1231.4471              1250.4005
 Red. masses --      1.1710                 1.9648                 1.7088
 Frc consts  --      1.0196                 1.7555                 1.5741
 IR Inten    --    115.5007                 1.6042                43.8850

                     64                     65                     66
                      A                      A                      A
 Frequencies --   1277.9421              1305.1465              1311.1470
 Red. masses --      2.9906                 2.4133                 2.0353
 Frc consts  --      2.8776                 2.4221                 2.0615
 IR Inten    --     61.9848                 2.9801               273.6201

                     67                     68                     69
                      A                      A                      A
 Frequencies --   1326.1292              1340.0228              1345.5974
 Red. masses --      1.7218                 2.3199                 2.7550
 Frc consts  --      1.7840                 2.4544                 2.9390
 IR Inten    --     78.4727                82.0988                17.0175

                     70                     71                     72
                      A                      A                      A
 Frequencies --   1354.9448              1377.4612              1388.7852
 Red. masses --      5.2919                 1.3160                 3.2875
 Frc consts  --      5.7241                 1.4712                 3.7358
 IR Inten    --     48.7874                20.4339                19.9061

                     73                     74                     75
                      A                      A                      A
 Frequencies --   1422.4395              1442.1380              1446.2810
 Red. masses --      2.7079                 1.4114                 1.3116
 Frc consts  --      3.2281                 1.7294                 1.6164
 IR Inten    --      9.9823                 2.6481                 2.1890

                     76                     77                     78
                      A                      A                      A
 Frequencies --   1450.5958              1492.7418              1507.0563
 Red. masses --      1.2392                 3.0816                 1.0460
 Frc consts  --      1.5363                 4.0457                 1.3997
 IR Inten    --      0.1720                32.0326                 0.3554

                     79                     80                     81
                      A                      A                      A
 Frequencies --   1508.5537              1516.4785              1522.5022
 Red. masses --      1.0678                 1.0659                 1.0502
 Frc consts  --      1.4318                 1.4442                 1.4343
 IR Inten    --     14.7030                 2.0087                14.1601

                     82                     83                     84
                      A                      A                      A
 Frequencies --   1523.1520              1527.1903              1550.6271
 Red. masses --      1.1335                 1.1458                 2.7466
 Frc consts  --      1.5494                 1.5744                 3.8910
 IR Inten    --     11.4285                21.0377                 9.1855

                     85                     86                     87
                      A                      A                      A
 Frequencies --   1571.0522              1611.3856              1623.2981
 Red. masses --      2.6329                 6.1419                 5.7207
 Frc consts  --      3.8288                 9.3962                 8.8817
 IR Inten    --     81.3576                14.4627                27.7430

                     88                     89                     90
                      A                      A                      A
 Frequencies --   1667.0836              1672.8668              1686.7494
 Red. masses --      4.1525                 5.8696                 2.0928
 Frc consts  --      6.7995                 9.6779                 3.5081
 IR Inten    --    421.0736                14.2758               162.4062

                     91                     92                     93
                      A                      A                      A
 Frequencies --   1698.6403              1720.4084              3036.1010
 Red. masses --      1.9736                10.5926                 1.0389
 Frc consts  --      3.3551                18.4721                 5.6421
 IR Inten    --    101.1198               241.3682                20.7731

                     94                     95                     96
                      A                      A                      A
 Frequencies --   3037.9398              3061.0745              3082.3553
 Red. masses --      1.0384                 1.0363                 1.1002
 Frc consts  --      5.6462                 5.7209                 6.1586
 IR Inten    --     50.6328                27.6084                33.5677

                     97                     98                     99
                      A                      A                      A
 Frequencies --   3084.9763              3125.7490              3126.4443
 Red. masses --      1.1000                 1.1016                 1.0997
 Frc consts  --      6.1678                 6.3416                 6.3334
 IR Inten    --      6.8011                20.2971                27.0602

                    100                    101                    102
                      A                      A                      A
 Frequencies --   3129.3785              3134.3531              3169.9281
 Red. masses --      1.0997                 1.1015                 1.0895
 Frc consts  --      6.3451                 6.3757                 6.4504
 IR Inten    --     10.9625                12.4150                36.6242

                    103                    104                    105
                      A                      A                      A
 Frequencies --   3174.0728              3177.1531              3179.5399
 Red. masses --      1.0884                 1.0879                 1.0882
 Frc consts  --      6.4604                 6.4703                 6.4820
 IR Inten    --      2.6350                16.8939                29.5549

                    106                    107                    108
                      A                      A                      A
 Frequencies --   3188.5453              3193.6027              3195.3840
 Red. masses --      1.0884                 1.0939                 1.0895
 Frc consts  --      6.5196                 6.5731                 6.5540
 IR Inten    --      7.4071                22.2779                 7.1559

                    109                    110                    111
                      A                      A                      A
 Frequencies --   3210.7977              3563.5437              3665.0570
 Red. masses --      1.0919                 1.0474                 1.0994
 Frc consts  --      6.6321                 7.8368                 8.7006
 IR Inten    --     12.5122                44.9057                12.6785

 - Thermochemistry -
 -------------------
 Temperature   298.150 Kelvin.  Pressure   1.00000 Atm.
 Atom     1 has atomic number  6 and mass  12.00000

 Molecular mass:   265.14666 amu.
 Principal axes and moments of inertia in atomic units:
                           1         2         3
     Eigenvalues --  2924.25670********************
           X            0.99995  -0.00931   0.00293
           Y            0.00926   0.99983   0.01613
           Z           -0.00308  -0.01610   0.99987
 This molecule is an asymmetric top.
 Rotational symmetry number  1.
 Warning -- assumption of classical behavior for rotation
           may cause significant error
 Rotational temperatures (Kelvin)      0.02962     0.00710     0.00614
 Rotational constants (GHZ):           0.61716     0.14804     0.12789
 Zero-point vibrational energy     855976.2 (Joules/Mol)
                                  204.58322 (Kcal/Mol)
 Warning -- explicit consideration of  31 degrees of freedom as
           vibrations may cause significant error
 Vibrational temperatures:     39.68    43.39    51.43    96.35   135.93
          (Kelvin)            174.54   193.89   198.92   212.17   226.44
                              255.15   281.57   307.37   361.04   429.70
                              441.49   451.21   471.50   483.85   517.61
                              535.42   598.28   602.49   642.38   668.12
                              694.25   737.84   752.16   799.09   828.94
                              838.37   907.39   947.93   991.92  1019.97
                             1054.32  1085.69  1105.25  1165.95  1181.99
                             1182.35  1207.90  1268.02  1285.34  1293.90
                             1337.62  1361.64  1371.31  1462.73  1474.29
                             1483.22  1485.41  1501.04  1525.32  1532.50
                             1545.21  1561.90  1572.98  1676.37  1684.38
                             1749.03  1771.78  1799.05  1838.67  1877.81
                             1886.45  1908.00  1927.99  1936.01  1949.46
                             1981.86  1998.15  2046.57  2074.91  2080.88
                             2087.08  2147.72  2168.32  2170.47  2181.87
                             2190.54  2191.48  2197.29  2231.01  2260.39
                             2318.42  2335.56  2398.56  2406.88  2426.86
                             2443.96  2475.28  4368.27  4370.92  4404.20
                             4434.82  4438.59  4497.26  4498.26  4502.48
                             4509.64  4560.82  4566.78  4571.21  4574.65
                             4587.61  4594.88  4597.44  4619.62  5127.14
                             5273.20

 Zero-point correction=                           0.326024 (Hartree/Particle)
 Thermal correction to Energy=                    0.345434
 Thermal correction to Enthalpy=                  0.346378
 Thermal correction to Gibbs Free Energy=         0.277330
 Sum of electronic and zero-point Energies=           -827.096636
 Sum of electronic and thermal Energies=              -827.077226
 Sum of electronic and thermal Enthalpies=            -827.076282
 Sum of electronic and thermal Free Energies=         -827.145330

                     E (Thermal)             CV                S
                      KCal/Mol        Cal/Mol-Kelvin    Cal/Mol-Kelvin
 Total                  216.763             74.319            145.325
 Electronic               0.000              0.000              0.000
 Translational            0.889              2.981             42.625
 Rotational               0.889              2.981             34.575
 Vibrational            214.986             68.357             68.126
 Vibration     1          0.593              1.984              5.996
 Vibration     2          0.594              1.984              5.819
 Vibration     3          0.594              1.982              5.482
 Vibration     4          0.598              1.970              4.241
 Vibration     5          0.603              1.953              3.565
 Vibration     6          0.609              1.931              3.079
 Vibration     7          0.613              1.919              2.877
 Vibration     8          0.614              1.915              2.828
 Vibration     9          0.617              1.905              2.705
 Vibration    10          0.621              1.894              2.581
 Vibration    11          0.628              1.870              2.356
 Vibration    12          0.636              1.846              2.173
 Vibration    13          0.644              1.820              2.012
 Vibration    14          0.663              1.761              1.724
 Vibration    15          0.692              1.676              1.424
 Vibration    16          0.697              1.661              1.379
 Vibration    17          0.701              1.648              1.343
 Vibration    18          0.711              1.620              1.271
 Vibration    19          0.717              1.603              1.230
 Vibration    20          0.734              1.555              1.123
 Vibration    21          0.744              1.529              1.071
 Vibration    22          0.779              1.436              0.906
 Vibration    23          0.782              1.429              0.896
 Vibration    24          0.806              1.369              0.807
 Vibration    25          0.822              1.329              0.754
 Vibration    26          0.839              1.289              0.703
 Vibration    27          0.868              1.222              0.627
 Vibration    28          0.878              1.200              0.604
 Vibration    29          0.911              1.128              0.533
 Vibration    30          0.933              1.083              0.493
 Vibration    31          0.940              1.069              0.480

                           ! Non-Optimized Parameters !
 Normal termination of Gaussian 16 at Mon Dec 14 17:57:38 2020.

 ----------------------------------------------------------------------
 # B3LYP/6-311++G(d,p) empiricaldispersion=gd3bj scf=xqc pop=npa geom=c
 heck
 ----------------------------------------------------------------------

 ----------------------------------------
 CID_116605643_JID_10560_Energie_neutraal
 ----------------------------------------
 Structure from the checkpoint file:  "JID_10560.chk"
 Charge =  0 Multiplicity = 1

 SCF Done:  E(RB3LYP) =  -827.644895356     A.U. after   16 cycles
 Normal termination of Gaussian 16 at Mon Dec 14 18:05:12 2020.

 ----------------------------------------------------------------------
 # B3LYP/6-311++G(d,p) empiricaldispersion=gd3bj scf=xqc pop=npa geom=c
 heck
 ----------------------------------------------------------------------

 --------------------------------------
 CID_116605643_JID_10560_Energie_kation
 --------------------------------------
 Structure from the checkpoint file:  "JID_10560.chk"
 Charge =  1 Multiplicity = 2

 SCF Done:  E(UB3LYP) =  -827.375072626     A.U. after   28 cycles
 Normal termination of Gaussian 16 at Mon Dec 14 18:23:47 2020.
 Gaussian 16:  ES64L-G16RevA.03 25-Dec-2016

 ----------------------------------------------------------------------
 # B3LYP/6-311++G(d,p) empiricaldispersion=gd3bj scf=xqc pop=npa geom=c
 heck
 ----------------------------------------------------------------------

 -------------------------------------
 CID_116605643_JID_10560_Energie_anion
 -------------------------------------
 Structure from the checkpoint file:  "JID_10560.chk"
 Charge = -1 Multiplicity = 2

                         Standard orientation:
 ---------------------------------------------------------------------
 Center     Atomic      Atomic             Coordinates (Angstroms)
 Number     Number       Type             X           Y           Z
 ---------------------------------------------------------------------
      1          6           0        4.896929   -2.259097    0.524076
      2          6           0        3.861374   -1.200321    0.242345
      3          6           0        3.968014    0.064491    0.827330
      4          6           0        3.049654    1.092134    0.597338
      5          6           0        1.951105    0.813672   -0.240694
      6          6           0        1.839265   -0.454135   -0.828125
      7          6           0        2.776020   -1.464812   -0.613363
      8          6           0        2.620991   -2.807461   -1.282630
      9          6           0        0.944359    1.876906   -0.569655
     10          8           0        1.302092    3.031060   -0.804215
     11          6           0       -0.492107    1.545069   -0.603939
     12          6           0       -1.057058    0.467823   -0.015590
     13          6           0       -2.472778    0.139202    0.056710
     14          6           0       -3.485243    0.918964   -0.537171
     15          6           0       -4.819509    0.564166   -0.441316
     16          6           0       -5.207832   -0.595868    0.258359
     17          6           0       -4.207738   -1.383211    0.854451
     18          6           0       -2.874032   -1.017395    0.750313
     19          7           0       -6.541513   -0.978397    0.307851
     20          6           0        3.257060    2.437569    1.249036
     21          1           0        5.393866   -2.591083   -0.396568
     22          1           0        5.667403   -1.887830    1.205874
     23          1           0        4.448124   -3.152488    0.977241
     24          1           0        4.809542    0.260830    1.488585
     25          1           0        1.002586   -0.649097   -1.492522
     26          1           0        2.544711   -3.620781   -0.549252
     27          1           0        1.722709   -2.834543   -1.906444
     28          1           0        3.480525   -3.042632   -1.923509
     29          1           0       -1.097822    2.320666   -1.066149
     30          1           0       -0.397981   -0.242816    0.478884
     31          1           0       -3.220661    1.819686   -1.082013
     32          1           0       -5.580483    1.181369   -0.912752
     33          1           0       -4.486010   -2.284591    1.394909
     34          1           0       -2.115465   -1.638609    1.220287
     35          1           0       -6.795776   -1.597533    1.066392
     36          1           0       -7.218487   -0.239638    0.168866
     37          1           0        4.031529    2.372772    2.019926
     38          1           0        3.556095    3.187290    0.511068
     39          1           0        2.338611    2.813162    1.711091
 ---------------------------------------------------------------------

 SCF Done:  E(UB3LYP) =  -827.664796961     A.U. after   29 cycles

 The electronic state is 2-A.
 Alpha  occ. eigenvalues --  -18.91968 -14.21793 -10.08806 -10.07506 -10.07201
 Alpha  occ. eigenvalues --  -10.07078 -10.06467 -10.06335 -10.05882 -10.05324
 Alpha  occ. eigenvalues --  -10.05224 -10.05144 -10.04747 -10.04730 -10.04472
 Alpha  occ. eigenvalues --  -10.04348 -10.04345 -10.04101 -10.01523 -10.00686
 Alpha  occ. eigenvalues --   -0.86034  -0.81749  -0.74767  -0.72336  -0.67927
 Alpha  occ. eigenvalues --   -0.65926  -0.64602  -0.62804  -0.61280  -0.59356
 Alpha  occ. eigenvalues --   -0.57851  -0.54351  -0.50676  -0.49735  -0.48694
 Alpha  occ. eigenvalues --   -0.46204  -0.44009  -0.41062  -0.40856  -0.39277
 Alpha  occ. eigenvalues --   -0.37322  -0.35108  -0.34834  -0.33846  -0.33270
 Alpha  occ. eigenvalues --   -0.31829  -0.31283  -0.30646  -0.30484  -0.29946
 Alpha  occ. eigenvalues --   -0.29803  -0.29282  -0.28583  -0.28156  -0.27709
 Alpha  occ. eigenvalues --   -0.26995  -0.25640  -0.24651  -0.23500  -0.22986
 Alpha  occ. eigenvalues --   -0.22584  -0.22018  -0.21917  -0.21103  -0.20155
 Alpha  occ. eigenvalues --   -0.14387  -0.13921  -0.13016  -0.11762  -0.08614
 Alpha  occ. eigenvalues --   -0.07764   0.03180
 Alpha virt. eigenvalues --    0.06129   0.06645   0.08285   0.08551   0.09149
 Alpha virt. eigenvalues --    0.09258   0.09635   0.10024   0.10389   0.11013
 Alpha virt. eigenvalues --    0.11061   0.11522   0.12120   0.12380   0.12903

  Beta  occ. eigenvalues --  -18.91399 -14.21739 -10.08547 -10.07513 -10.07077
  Beta  occ. eigenvalues --  -10.06984 -10.06389 -10.06334 -10.05811 -10.05352
  Beta  occ. eigenvalues --  -10.05312 -10.05218 -10.04709 -10.04609 -10.04482
  Beta  occ. eigenvalues --  -10.04353 -10.04173 -10.04117 -10.01176 -10.00636
  Beta  occ. eigenvalues --   -0.85050  -0.81550  -0.74674  -0.72139  -0.67821
  Beta  occ. eigenvalues --   -0.65776  -0.64212  -0.62665  -0.61182  -0.59140
  Beta  occ. eigenvalues --   -0.57710  -0.54275  -0.50193  -0.49501  -0.48605
  Beta  occ. eigenvalues --   -0.45995  -0.43674  -0.40978  -0.40690  -0.39114
  Beta  occ. eigenvalues --   -0.37258  -0.34917  -0.34692  -0.33776  -0.33165
  Beta  occ. eigenvalues --   -0.31733  -0.31122  -0.30616  -0.30440  -0.29901
  Beta  occ. eigenvalues --   -0.29660  -0.29258  -0.28541  -0.27995  -0.27125
  Beta  occ. eigenvalues --   -0.26671  -0.25432  -0.24433  -0.22840  -0.22678
  Beta  occ. eigenvalues --   -0.22458  -0.21783  -0.21171  -0.20441  -0.19287
  Beta  occ. eigenvalues --   -0.13513  -0.13299  -0.12507  -0.11295  -0.08096
  Beta  occ. eigenvalues --   -0.06511
  Beta virt. eigenvalues --    0.06109   0.06631   0.08261   0.08507   0.08658
  Beta virt. eigenvalues --    0.09256   0.09495   0.09795   0.10324   0.10794
  Beta virt. eigenvalues --    0.11038   0.11131   0.11524   0.12107   0.12364

 Mulliken charges and spin densities:
               1          2
     1  C   -0.550384  -0.008537
     2  C    0.456978   0.061250
     3  C   -0.690852  -0.026935
     4  C    0.519822   0.043651
     5  C    1.052271   0.015659
     6  C   -0.929400   0.029809
     7  C    0.561437  -0.012551
     8  C   -0.675254   0.001763
     9  C   -1.032742   0.148149
    10  O   -0.351885   0.195549
    11  C   -0.171727   0.015354
    12  C    0.107374   0.244385
    13  C    0.916272  -0.043687
    14  C   -0.535691   0.157030
    15  C   -0.600510  -0.057967
    16  C   -0.318698   0.160654
    17  C   -0.148711  -0.054119
    18  C   -0.203724   0.100867
    19  N   -0.344512   0.019894
    20  C   -0.599238   0.004090
    21  H    0.131953   0.002816
    22  H    0.138976   0.000449
    23  H    0.133578   0.006501
    24  H    0.068085   0.001763
    25  H    0.170400  -0.006236
    26  H    0.127097  -0.001084
    27  H    0.150687   0.000074
    28  H    0.126675   0.000414
    29  H    0.161604  -0.001586
    30  H    0.051045  -0.021209
    31  H    0.071965  -0.009758
    32  H    0.117332   0.004424
    33  H    0.107129   0.001624
    34  H    0.116550  -0.005535
    35  H    0.205662   0.014604
    36  H    0.204714   0.013756
    37  H    0.091832   0.000671
    38  H    0.196896   0.001453
    39  H    0.166992   0.002550
 Sum of Mulliken charges =  -1.00000   1.00000

 Dipole moment (field-independent basis, Debye):
    X=             -0.0268    Y=             -5.7207    Z=              2.1744  Tot=              6.1201
 Quadrupole moment (field-independent basis, Debye-Ang):
   XX=           -157.9249   YY=           -149.2520   ZZ=           -130.5904
   XY=            -11.3784   XZ=             -1.1977   YZ=              2.3775

 Summary of Natural Population Analysis:

                                       Natural Population
                Natural  -----------------------------------------------
    Atom  No    Charge         Core      Valence    Rydberg      Total
 -----------------------------------------------------------------------
      C    1   -0.29229      0.99965     2.28816    0.00449     3.29229
      C    2   -0.00547      0.99948     1.99840    0.00759     3.00547
      C    3   -0.11139      0.99948     2.10351    0.00840     3.11139
      C    4    0.01217      0.99948     1.98035    0.00799     2.98783
      C    5   -0.04738      0.99944     2.03796    0.00999     3.04738
      C    6   -0.07488      0.99943     2.06698    0.00847     3.07488
      C    7   -0.03297      0.99948     2.02557    0.00792     3.03297
      C    8   -0.29124      0.99965     2.28711    0.00448     3.29124
      C    9    0.26768      0.99959     1.71204    0.02069     2.73232
      O   10   -0.24875      0.99988     3.24196    0.00690     4.24875
      C   11   -0.13305      0.99953     2.12369    0.00983     3.13305
      C   12   -0.01153      0.99944     2.00429    0.00780     3.01153
      C   13   -0.06269      0.99952     2.05407    0.00910     3.06269
      C   14   -0.04042      0.99954     2.03285    0.00803     3.04042
      C   15   -0.15072      0.99954     2.14275    0.00843     3.15072
      C   16    0.12033      0.99951     1.87046    0.00970     2.87967
      C   17   -0.15423      0.99954     2.14607    0.00862     3.15423
      C   18   -0.05467      0.99954     2.04683    0.00830     3.05467
      N   19   -0.39516      0.99972     2.88642    0.00902     3.89516
      C   20   -0.29438      0.99964     2.28968    0.00505     3.29438
      H   21    0.09837      0.00000     0.40055    0.00108     0.40163
      H   22    0.09794      0.00000     0.40118    0.00088     0.40206
      H   23    0.09871      0.00000     0.40021    0.00107     0.40129
      H   24    0.08878      0.00000     0.40961    0.00161     0.41122
      H   25    0.10375      0.00000     0.39476    0.00149     0.39625
      H   26    0.09715      0.00000     0.40179    0.00106     0.40285
      H   27    0.10235      0.00000     0.39682    0.00083     0.39765
      H   28    0.09642      0.00000     0.40249    0.00109     0.40358
      H   29    0.09141      0.00000     0.40648    0.00211     0.40859
      H   30    0.08771      0.00000     0.41035    0.00194     0.41229
      H   31    0.09555      0.00000     0.40301    0.00144     0.40445
      H   32    0.09015      0.00000     0.40827    0.00158     0.40985
      H   33    0.09019      0.00000     0.40817    0.00164     0.40981
      H   34    0.09252      0.00000     0.40601    0.00147     0.40748
      H   35    0.17989      0.00000     0.31873    0.00138     0.32011
      H   36    0.18005      0.00000     0.31857    0.00138     0.31995
      H   37    0.08714      0.00000     0.41182    0.00104     0.41286
      H   38    0.11386      0.00000     0.38503    0.00112     0.38614
      H   39    0.10909      0.00000     0.38995    0.00096     0.39091
 =======================================================================
   * Total *    0.00000     19.99108    50.81295    0.19596    71.00000

 Normal termination of Gaussian 16 at Mon Dec 14 18:40:58 2020.
