 Gaussian 16, Revision A.03,

 -----------------------------------------------------------
 # opt freq B3LYP/6-31G(d) empiricaldispersion=gd3bj scf=xqc
 -----------------------------------------------------------

 ------------------------------
 CID_61640442_JID_8835_neutraal
 ------------------------------
 Symbolic Z-matrix:
 Charge =  0 Multiplicity = 1

 SCF Done:  E(RB3LYP) =  -1181.59777205     A.U. after   14 cycles
 SCF Done:  E(RB3LYP) =  -1181.60361075     A.U. after   12 cycles
 SCF Done:  E(RB3LYP) =  -1181.60524067     A.U. after   12 cycles
 SCF Done:  E(RB3LYP) =  -1181.60593281     A.U. after   13 cycles
 SCF Done:  E(RB3LYP) =  -1181.60633412     A.U. after   11 cycles
 SCF Done:  E(RB3LYP) =  -1181.60650384     A.U. after   11 cycles
 SCF Done:  E(RB3LYP) =  -1181.60664323     A.U. after   11 cycles
 SCF Done:  E(RB3LYP) =  -1181.60670734     A.U. after   11 cycles
 SCF Done:  E(RB3LYP) =  -1181.60676712     A.U. after   11 cycles
 SCF Done:  E(RB3LYP) =  -1181.60678037     A.U. after   10 cycles
 SCF Done:  E(RB3LYP) =  -1181.60679827     A.U. after    9 cycles
 SCF Done:  E(RB3LYP) =  -1181.60679881     A.U. after    9 cycles
 SCF Done:  E(RB3LYP) =  -1181.60679902     A.U. after    8 cycles
 SCF Done:  E(RB3LYP) =  -1181.60679920     A.U. after    8 cycles
 SCF Done:  E(RB3LYP) =  -1181.60679922     A.U. after    6 cycles
 SCF Done:  E(RB3LYP) =  -1181.60679923     A.U. after    6 cycles
 Optimization completed.
    -- Stationary point found.
 Normal termination of Gaussian 16 at Fri Dec 11 22:25:37 2020.

 --------------------------------------------------------------------
 #N Geom=AllCheck Guess=TCheck SCRF=Check GenChk RB3LYP/6-31G(d) Freq
 --------------------------------------------------------------------

 Structure from the checkpoint file:  "JID_8835.chk"
 ------------------------------
 CID_61640442_JID_8835_neutraal
 ------------------------------
 Charge =  0 Multiplicity = 1

 SCF Done:  E(RB3LYP) =  -1181.60679923     A.U. after    1 cycles

  Exact polarizability: 202.938  17.157 141.223  -4.479   8.119 146.083
 Approx polarizability: 263.912  31.478 207.229 -11.165  22.664 264.245

                      1                      2                      3
                      A                      A                      A
 Frequencies --     18.7348                24.3887                31.2917
 Red. masses --      6.7648                 5.0849                 3.7999
 Frc consts  --      0.0014                 0.0018                 0.0022
 IR Inten    --      1.1056                 0.2416                 0.5746

                      4                      5                      6
                      A                      A                      A
 Frequencies --     48.4794                86.6302               117.0544
 Red. masses --      3.3716                 4.8078                 1.8772
 Frc consts  --      0.0047                 0.0213                 0.0152
 IR Inten    --      0.5776                 5.2430                15.8535

                      7                      8                      9
                      A                      A                      A
 Frequencies --    127.3190               137.7151               171.3949
 Red. masses --      2.3016                 3.5219                 5.0532
 Frc consts  --      0.0220                 0.0394                 0.0875
 IR Inten    --     15.8355                 3.7624                 0.5724

                     10                     11                     12
                      A                      A                      A
 Frequencies --    215.7284               253.1142               277.4649
 Red. masses --      3.9970                 2.8498                 5.5394
 Frc consts  --      0.1096                 0.1076                 0.2513
 IR Inten    --      2.8601                 0.8345                 1.6384

                     13                     14                     15
                      A                      A                      A
 Frequencies --    314.3356               323.5914               338.5338
 Red. masses --      2.9530                 3.8200                 2.9160
 Frc consts  --      0.1719                 0.2357                 0.1969
 IR Inten    --      1.2271                 2.1696                 5.2345

                     16                     17                     18
                      A                      A                      A
 Frequencies --    363.8163               372.4223               413.5041
 Red. masses --      2.8821                 2.3118                 2.9599
 Frc consts  --      0.2248                 0.1889                 0.2982
 IR Inten    --      3.8062                 3.6177                 0.1693

                     19                     20                     21
                      A                      A                      A
 Frequencies --    425.5490               438.9874               443.1240
 Red. masses --      3.8642                 2.0704                 3.9964
 Frc consts  --      0.4123                 0.2351                 0.4623
 IR Inten    --      4.0491                 3.1676                 0.8052

                     22                     23                     24
                      A                      A                      A
 Frequencies --    475.9232               509.3944               522.5149
 Red. masses --      5.9326                 2.0046                 3.9486
 Frc consts  --      0.7917                 0.3065                 0.6352
 IR Inten    --      3.7253                 3.4796                38.4207

                     25                     26                     27
                      A                      A                      A
 Frequencies --    537.9590               583.3771               649.0681
 Red. masses --      5.2530                 3.2194                 6.7721
 Frc consts  --      0.8957                 0.6455                 1.6809
 IR Inten    --     52.4478                38.2977                 0.6637

                     28                     29                     30
                      A                      A                      A
 Frequencies --    655.3502               674.3246               687.2564
 Red. masses --      4.4956                 2.2867                 2.7720
 Frc consts  --      1.1376                 0.6126                 0.7714
 IR Inten    --     20.9520                28.0818               247.9698

                     31                     32                     33
                      A                      A                      A
 Frequencies --    739.1877               776.7085               791.0886
 Red. masses --      3.3329                 2.6524                 1.5417
 Frc consts  --      1.0729                 0.9428                 0.5685
 IR Inten    --      1.8310                66.1260                36.7518

                     34                     35                     36
                      A                      A                      A
 Frequencies --    818.9492               842.0634               854.4930
 Red. masses --      2.4302                 2.2921                 1.3088
 Frc consts  --      0.9603                 0.9576                 0.5630
 IR Inten    --     24.9718                22.5192                 3.2054

                     37                     38                     39
                      A                      A                      A
 Frequencies --    862.5476               876.2245               886.8542
 Red. masses --      1.9711                 2.1065                 2.0032
 Frc consts  --      0.8640                 0.9529                 0.9283
 IR Inten    --     13.4870                25.8361               148.8718

                     40                     41                     42
                      A                      A                      A
 Frequencies --    890.8228               929.7068               933.9648
 Red. masses --      2.2107                 1.8958                 1.4798
 Frc consts  --      1.0336                 0.9654                 0.7605
 IR Inten    --     15.2831                12.5334                11.7973

                     43                     44                     45
                      A                      A                      A
 Frequencies --    969.6523               973.5740               979.1839
 Red. masses --      1.4280                 1.5020                 1.4263
 Frc consts  --      0.7911                 0.8388                 0.8057
 IR Inten    --      2.6635                 1.2428                 1.6667

                     46                     47                     48
                      A                      A                      A
 Frequencies --   1020.4546              1039.2192              1063.7201
 Red. masses --      1.7370                 3.6288                 1.7131
 Frc consts  --      1.0657                 2.3090                 1.1421
 IR Inten    --      2.2650                 8.1985                 4.8869

                     49                     50                     51
                      A                      A                      A
 Frequencies --   1094.5701              1096.2495              1101.0500
 Red. masses --      2.0441                 4.1274                 1.6793
 Frc consts  --      1.4429                 2.9224                 1.1995
 IR Inten    --      7.4534                63.2415                 7.9080

                     52                     53                     54
                      A                      A                      A
 Frequencies --   1110.9350              1135.2769              1139.5127
 Red. masses --      1.3290                 2.6380                 2.4257
 Frc consts  --      0.9664                 2.0032                 1.8558
 IR Inten    --      4.4145                23.7607                34.3961

                     55                     56                     57
                      A                      A                      A
 Frequencies --   1148.3086              1150.4038              1176.8397
 Red. masses --      1.8245                 4.1651                 1.7878
 Frc consts  --      1.4175                 3.2477                 1.4588
 IR Inten    --     32.7381               197.7615                 2.6216

                     58                     59                     60
                      A                      A                      A
 Frequencies --   1193.0729              1217.6029              1218.7120
 Red. masses --      1.2616                 1.1667                 1.3634
 Frc consts  --      1.0581                 1.0191                 1.1931
 IR Inten    --      3.8965                 1.0675                19.4160

                     61                     62                     63
                      A                      A                      A
 Frequencies --   1224.1172              1254.8021              1310.1662
 Red. masses --      3.2365                 1.2578                 1.2954
 Frc consts  --      2.8574                 1.1669                 1.3101
 IR Inten    --      3.9076                14.6093                18.2558

                     64                     65                     66
                      A                      A                      A
 Frequencies --   1322.6312              1338.3163              1343.7193
 Red. masses --      1.2469                 1.5479                 4.4734
 Frc consts  --      1.2851                 1.6335                 4.7589
 IR Inten    --      5.1501                32.7127               107.4585

                     67                     68                     69
                      A                      A                      A
 Frequencies --   1346.1149              1360.3369              1371.4451
 Red. masses --      1.5461                 1.3845                 2.9465
 Frc consts  --      1.6506                 1.5095                 3.2652
 IR Inten    --     15.0797                10.3241                15.6728

                     70                     71                     72
                      A                      A                      A
 Frequencies --   1379.1379              1389.0292              1393.1425
 Red. masses --      1.2708                 1.5230                 1.4711
 Frc consts  --      1.4241                 1.7313                 1.6822
 IR Inten    --     16.0824                 4.8334                 3.9112

                     73                     74                     75
                      A                      A                      A
 Frequencies --   1413.3567              1439.0682              1457.2559
 Red. masses --      1.3807                 1.4731                 2.5733
 Frc consts  --      1.6250                 1.7974                 3.2197
 IR Inten    --      7.0600                 4.3723                18.8586

                     76                     77                     78
                      A                      A                      A
 Frequencies --   1493.2239              1501.1633              1507.5475
 Red. masses --      1.2702                 1.1249                 1.0936
 Frc consts  --      1.6687                 1.4936                 1.4643
 IR Inten    --      1.3378                 4.4475                 4.7730

                     79                     80                     81
                      A                      A                      A
 Frequencies --   1516.8559              1524.4709              1531.3345
 Red. masses --      1.1321                 1.1100                 1.1712
 Frc consts  --      1.5347                 1.5198                 1.6182
 IR Inten    --     25.4172                 6.1815                21.1162

                     82                     83                     84
                      A                      A                      A
 Frequencies --   1539.8715              1543.1744              1619.6597
 Red. masses --      1.2441                 1.7941                 1.1032
 Frc consts  --      1.7381                 2.5173                 1.7051
 IR Inten    --     12.3047                 7.3606                31.2811

                     85                     86                     87
                      A                      A                      A
 Frequencies --   1635.3227              1657.0685              2924.5043
 Red. masses --      6.4079                 5.6048                 1.0741
 Frc consts  --     10.0965                 9.0676                 5.4123
 IR Inten    --      1.3760                13.2137                44.3814

                     88                     89                     90
                      A                      A                      A
 Frequencies --   2932.2781              3029.8480              3046.7295
 Red. masses --      1.0732                 1.0679                 1.0600
 Frc consts  --      5.4366                 5.7759                 5.7974
 IR Inten    --    114.1076                35.1875                45.7274

                     91                     92                     93
                      A                      A                      A
 Frequencies --   3055.3074              3060.6411              3081.8620
 Red. masses --      1.0612                 1.0849                 1.0876
 Frc consts  --      5.8367                 5.9879                 6.0863
 IR Inten    --     23.1087                37.3354                59.3425

                     94                     95                     96
                      A                      A                      A
 Frequencies --   3090.1673              3095.4860              3102.7908
 Red. masses --      1.1058                 1.1004                 1.1001
 Frc consts  --      6.2212                 6.2122                 6.2400
 IR Inten    --     22.3839                41.3547                39.4009

                     97                     98                     99
                      A                      A                      A
 Frequencies --   3134.1414              3185.3057              3188.7294
 Red. masses --      1.0876                 1.0892                 1.0894
 Frc consts  --      6.2946                 6.5114                 6.5266
 IR Inten    --     23.6422                 9.6768                11.1197

                    100                    101                    102
                      A                      A                      A
 Frequencies --   3227.0350              3230.4013              3482.0903
 Red. masses --      1.0926                 1.0925                 1.0735
 Frc consts  --      6.7041                 6.7171                 7.6686
 IR Inten    --      1.1467                 1.0276                11.2328

                    103                    104                    105
                      A                      A                      A
 Frequencies --   3489.3873              3512.2920              3600.4594
 Red. masses --      1.0469                 1.0750                 1.0976
 Frc consts  --      7.5101                 7.8137                 8.3834
 IR Inten    --     33.7475                 0.2948                31.6022

 - Thermochemistry -
 -------------------
 Temperature   298.150 Kelvin.  Pressure   1.00000 Atm.
 Atom     1 has atomic number  6 and mass  12.00000

 Molecular mass:   269.11980 amu.
 Principal axes and moments of inertia in atomic units:
                           1         2         3
     Eigenvalues --  2167.63767********************
           X            1.00000  -0.00265   0.00128
           Y            0.00265   0.99999   0.00320
           Z           -0.00129  -0.00320   0.99999
 This molecule is an asymmetric top.
 Rotational symmetry number  1.
 Warning -- assumption of classical behavior for rotation
           may cause significant error
 Rotational temperatures (Kelvin)      0.03996     0.00846     0.00784
 Rotational constants (GHZ):           0.83258     0.17627     0.16330
 Zero-point vibrational energy     826327.0 (Joules/Mol)
                                  197.49689 (Kcal/Mol)
 Warning -- explicit consideration of  26 degrees of freedom as
           vibrations may cause significant error
 Vibrational temperatures:     26.96    35.09    45.02    69.75   124.64
          (Kelvin)            168.42   183.18   198.14   246.60   310.39
                              364.17   399.21   452.26   465.58   487.07
                              523.45   535.83   594.94   612.27   631.60
                              637.56   684.75   732.90   751.78   774.00
                              839.35   933.86   942.90   970.20   988.81
                             1063.53  1117.51  1138.20  1178.29  1211.54
                             1229.42  1241.01  1260.69  1275.99  1281.70
                             1337.64  1343.77  1395.11  1400.76  1408.83
                             1468.21  1495.20  1530.46  1574.84  1577.26
                             1584.17  1598.39  1633.41  1639.50  1652.16
                             1655.17  1693.21  1716.57  1751.86  1753.45
                             1761.23  1805.38  1885.04  1902.97  1925.54
                             1933.31  1936.76  1957.22  1973.20  1984.27
                             1998.50  2004.42  2033.51  2070.50  2096.67
                             2148.42  2159.84  2169.02  2182.42  2193.37
                             2203.25  2215.53  2220.28  2330.33  2352.86
                             2384.15  4207.71  4218.89  4359.28  4383.56
                             4395.91  4403.58  4434.11  4446.06  4453.71
                             4464.22  4509.33  4582.94  4587.87  4642.98
                             4647.83  5009.95  5020.45  5053.40  5180.26

 Zero-point correction=                           0.314731 (Hartree/Particle)
 Thermal correction to Energy=                    0.331921
 Thermal correction to Enthalpy=                  0.332865
 Thermal correction to Gibbs Free Energy=         0.267246
 Sum of electronic and zero-point Energies=          -1181.292068
 Sum of electronic and thermal Energies=             -1181.274878
 Sum of electronic and thermal Enthalpies=           -1181.273934
 Sum of electronic and thermal Free Energies=        -1181.339553

                     E (Thermal)             CV                S
                      KCal/Mol        Cal/Mol-Kelvin    Cal/Mol-Kelvin
 Total                  208.284             66.537            138.108
 Electronic               0.000              0.000              0.000
 Translational            0.889              2.981             42.669
 Rotational               0.889              2.981             33.861
 Vibrational            206.506             60.575             61.578
 Vibration     1          0.593              1.986              6.764
 Vibration     2          0.593              1.985              6.240
 Vibration     3          0.594              1.983              5.746
 Vibration     4          0.595              1.978              4.878
 Vibration     5          0.601              1.959              3.735
 Vibration     6          0.608              1.935              3.148
 Vibration     7          0.611              1.926              2.986
 Vibration     8          0.614              1.916              2.835
 Vibration     9          0.626              1.878              2.420
 Vibration    10          0.645              1.817              1.995
 Vibration    11          0.664              1.758              1.709
 Vibration    12          0.678              1.715              1.549
 Vibration    13          0.702              1.646              1.339
 Vibration    14          0.708              1.628              1.292
 Vibration    15          0.719              1.599              1.219
 Vibration    16          0.737              1.547              1.106
 Vibration    17          0.744              1.529              1.070
 Vibration    18          0.777              1.441              0.914
 Vibration    19          0.787              1.415              0.873
 Vibration    20          0.799              1.385              0.830
 Vibration    21          0.803              1.376              0.817
 Vibration    22          0.833              1.303              0.721
 Vibration    23          0.865              1.229              0.635
 Vibration    24          0.877              1.200              0.604
 Vibration    25          0.893              1.166              0.570
 Vibration    26          0.940              1.067              0.479

 Optimization completed.
    -- Stationary point found.
 Normal termination of Gaussian 16 at Fri Dec 11 22:41:50 2020.

 ----------------------------------------------------------------------
 # B3LYP/6-311++G(d,p) empiricaldispersion=gd3bj scf=xqc pop=npa geom=c
 heck
 ----------------------------------------------------------------------

 --------------------------------------
 CID_61640442_JID_8835_Energie_neutraal
 --------------------------------------
 Structure from the checkpoint file:  "JID_8835.chk"
 Charge =  0 Multiplicity = 1

 SCF Done:  E(RB3LYP) =  -1181.86163913     A.U. after   17 cycles
 Normal termination of Gaussian 16 at Fri Dec 11 22:50:36 2020.

 ----------------------------------------------------------------------
 # B3LYP/6-311++G(d,p) empiricaldispersion=gd3bj scf=xqc pop=npa geom=c
 heck
 ----------------------------------------------------------------------

 ------------------------------------
 CID_61640442_JID_8835_Energie_kation
 ------------------------------------
 Structure from the checkpoint file:  "JID_8835.chk"
 Charge =  1 Multiplicity = 2

 SCF Done:  E(UB3LYP) =  -1181.56818361     A.U. after   24 cycles
 Normal termination of Gaussian 16 at Fri Dec 11 23:08:28 2020.
 Gaussian 16:  ES64L-G16RevA.03 25-Dec-2016

 ----------------------------------------------------------------------
 # B3LYP/6-311++G(d,p) empiricaldispersion=gd3bj scf=xqc pop=npa geom=c
 heck
 ----------------------------------------------------------------------

 -----------------------------------
 CID_61640442_JID_8835_Energie_anion
 -----------------------------------
 Structure from the checkpoint file:  "JID_8835.chk"
 Charge = -1 Multiplicity = 2

                         Standard orientation:
 ---------------------------------------------------------------------
 Center     Atomic      Atomic             Coordinates (Angstroms)
 Number     Number       Type             X           Y           Z
 ---------------------------------------------------------------------
      1          6           0       -4.929563    0.799683    0.116232
      2          6           0       -4.364633   -0.106430   -0.987508
      3          6           0       -2.880905   -0.425996   -0.725872
      4          6           0       -2.114694    0.906305   -0.596996
      5          7           0       -2.667654    1.631967    0.548633
      6          6           0       -4.054095    2.042691    0.304685
      7          7           0       -2.764380   -1.264846    0.476555
      8          6           0       -1.667987   -2.233095    0.482829
      9          6           0       -0.271999   -1.646133    0.356677
     10          6           0        0.439607   -1.724977   -0.844285
     11          6           0        1.677403   -1.098321   -0.989450
     12          6           0        2.201912   -0.390123    0.088487
     13          6           0        1.526405   -0.316175    1.309333
     14          6           0        0.293919   -0.945157    1.432578
     15         16           0        3.773057    0.436323   -0.087912
     16          8           0        4.437703    0.450361    1.218252
     17          8           0        4.423134   -0.095718   -1.290113
     18          7           0        3.320061    2.048985   -0.388049
     19          1           0       -5.956217    1.101791   -0.122310
     20          1           0       -4.964862    0.240360    1.058491
     21          1           0       -4.932939   -1.040269   -1.046417
     22          1           0       -4.452474    0.401641   -1.958672
     23          1           0       -2.479578   -0.990716   -1.576185
     24          1           0       -1.051700    0.729616   -0.420928
     25          1           0       -2.211432    1.471285   -1.544802
     26          1           0       -2.092189    2.443829    0.756796
     27          1           0       -4.141486    2.684711   -0.594437
     28          1           0       -4.401405    2.629727    1.162313
     29          1           0       -2.687188   -0.639034    1.277760
     30          1           0       -1.741986   -2.800206    1.418696
     31          1           0       -1.837585   -2.944425   -0.334087
     32          1           0        0.019194   -2.280479   -1.678573
     33          1           0        2.238125   -1.162492   -1.915299
     34          1           0        1.972707    0.215047    2.142871
     35          1           0       -0.246159   -0.885788    2.374340
     36          1           0        3.882607    2.650932    0.210941
     37          1           0        3.480543    2.269792   -1.369232
 ---------------------------------------------------------------------

 SCF Done:  E(UB3LYP) =  -1181.86229220     A.U. after   32 cycles

 The electronic state is 2-A.
 Alpha  occ. eigenvalues --  -88.94477 -19.00326 -19.00279 -14.22855 -14.20742
 Alpha  occ. eigenvalues --  -14.18660 -10.10162 -10.09695 -10.08876 -10.08840
 Alpha  occ. eigenvalues --  -10.07285 -10.07170 -10.06901 -10.06415 -10.06163
 Alpha  occ. eigenvalues --  -10.05912 -10.05828 -10.05098  -8.00669  -5.96978
 Alpha  occ. eigenvalues --   -5.96942  -5.96706  -1.00500  -0.89773  -0.82894
 Alpha  occ. eigenvalues --   -0.79712  -0.79200  -0.74677  -0.68808  -0.66402
 Alpha  occ. eigenvalues --   -0.64275  -0.63666  -0.57787  -0.54300  -0.53224
 Alpha  occ. eigenvalues --   -0.52009  -0.50006  -0.46932  -0.45091  -0.42787
 Alpha  occ. eigenvalues --   -0.42456  -0.41633  -0.39438  -0.37711  -0.36529
 Alpha  occ. eigenvalues --   -0.36143  -0.35086  -0.34724  -0.34182  -0.33135
 Alpha  occ. eigenvalues --   -0.33059  -0.31410  -0.31248  -0.30458  -0.29228
 Alpha  occ. eigenvalues --   -0.28288  -0.26906  -0.26158  -0.25789  -0.24694
 Alpha  occ. eigenvalues --   -0.24060  -0.23106  -0.22070  -0.22005  -0.21500
 Alpha  occ. eigenvalues --   -0.20533  -0.19789  -0.18690  -0.14927  -0.14662
 Alpha  occ. eigenvalues --   -0.14154  -0.11704   0.03993
 Alpha virt. eigenvalues --    0.05735   0.06467   0.07425   0.07804   0.08140
 Alpha virt. eigenvalues --    0.09170   0.09469   0.09670   0.10109   0.10153
 Alpha virt. eigenvalues --    0.10779   0.11348   0.12084   0.12318   0.12565

  Beta  occ. eigenvalues --  -88.94457 -19.00293 -19.00244 -14.22757 -14.20737
  Beta  occ. eigenvalues --  -14.18617 -10.10148 -10.09694 -10.08873 -10.08859
  Beta  occ. eigenvalues --  -10.07274 -10.06942 -10.06894 -10.06343 -10.06051
  Beta  occ. eigenvalues --  -10.05938 -10.05838 -10.04772  -8.00648  -5.96935
  Beta  occ. eigenvalues --   -5.96905  -5.96699  -1.00402  -0.89711  -0.82867
  Beta  occ. eigenvalues --   -0.79535  -0.79112  -0.74360  -0.68740  -0.66112
  Beta  occ. eigenvalues --   -0.64094  -0.63419  -0.57522  -0.54270  -0.53111
  Beta  occ. eigenvalues --   -0.51948  -0.49923  -0.46582  -0.45047  -0.42711
  Beta  occ. eigenvalues --   -0.42361  -0.41488  -0.39257  -0.37653  -0.36415
  Beta  occ. eigenvalues --   -0.36070  -0.34978  -0.34584  -0.34116  -0.33044
  Beta  occ. eigenvalues --   -0.32968  -0.31354  -0.31200  -0.30425  -0.29168
  Beta  occ. eigenvalues --   -0.28189  -0.26733  -0.26074  -0.25225  -0.24518
  Beta  occ. eigenvalues --   -0.23997  -0.23019  -0.22048  -0.21909  -0.21350
  Beta  occ. eigenvalues --   -0.20412  -0.19647  -0.18443  -0.14333  -0.14246
  Beta  occ. eigenvalues --   -0.13326  -0.11429
  Beta virt. eigenvalues --    0.05919   0.07031   0.07452   0.07597   0.08303
  Beta virt. eigenvalues --    0.08713   0.09281   0.09582   0.09763   0.10123
  Beta virt. eigenvalues --    0.10196   0.10906   0.11469   0.12078   0.12277

 Mulliken charges and spin densities:
               1          2
     1  C   -0.292801  -0.012220
     2  C   -0.377889  -0.121780
     3  C   -0.132051   0.098744
     4  C   -0.324197  -0.259377
     5  N   -0.195573   0.064745
     6  C    0.244135  -0.540939
     7  N    0.232661  -0.045821
     8  C   -1.120493   0.269062
     9  C    0.907352   0.085263
    10  C   -0.402078   0.040175
    11  C   -0.369800   0.095010
    12  C    0.073823   0.046967
    13  C   -0.246649   0.001787
    14  C   -0.524936   0.107969
    15  S    0.759928  -0.577696
    16  O   -0.265346   0.012990
    17  O   -0.238404   0.013560
    18  N   -0.267107  -0.028895
    19  H   -0.150724   0.307985
    20  H    0.151216  -0.011865
    21  H    0.027111   0.118825
    22  H    0.047813   0.057335
    23  H    0.178422   0.009265
    24  H    0.359710  -0.213637
    25  H   -0.044529   0.169669
    26  H    0.191129   0.061619
    27  H    0.020278   0.084552
    28  H   -0.152133   0.305560
    29  H    0.210384  -0.009790
    30  H    0.015245   0.152430
    31  H    0.085409   0.060122
    32  H    0.066425   0.055661
    33  H    0.186309   0.033038
    34  H    0.174373   0.046122
    35  H    0.069110   0.059935
    36  H    0.039538   0.251618
    37  H    0.064338   0.212010
 Sum of Mulliken charges =  -1.00000   1.00000

 Dipole moment (field-independent basis, Debye):
    X=             -3.9142    Y=              0.1947    Z=             -0.9251  Tot=              4.0267
 Quadrupole moment (field-independent basis, Debye-Ang):
   XX=           -215.2188   YY=           -144.8077   ZZ=           -134.8666
   XY=              2.6800   XZ=              0.6948   YZ=              2.5973

 Summary of Natural Population Analysis:

                                       Natural Population
                Natural  -----------------------------------------------
    Atom  No    Charge         Core      Valence    Rydberg      Total
 -----------------------------------------------------------------------
      C    1   -0.19822      0.99963     2.19003    0.00856     3.19822
      C    2   -0.19053      0.99961     2.18051    0.01041     3.19053
      C    3   -0.01525      0.99959     2.00294    0.01272     3.01525
      C    4   -0.09872      0.99960     2.08814    0.01098     3.09872
      N    5   -0.34620      0.99974     2.83592    0.01054     3.84620
      C    6   -0.08798      0.99963     2.07691    0.01144     3.08798
      N    7   -0.34506      0.99974     2.83241    0.01291     3.84506
      C    8   -0.09352      0.99959     2.08165    0.01228     3.09352
      C    9    0.03059      0.99950     1.95963    0.01027     2.96941
      C   10   -0.11388      0.99952     2.10589    0.00847     3.11388
      C   11   -0.07421      0.99951     2.06452    0.01018     3.07421
      C   12   -0.10621      0.99936     2.09238    0.01447     3.10621
      C   13   -0.07839      0.99951     2.06888    0.01000     3.07839
      C   14   -0.10784      0.99951     2.09939    0.00894     3.10784
      S   15    1.10116      4.99925     1.79947    0.10012     6.89884
      O   16   -0.47084      0.99991     3.46512    0.00581     4.47084
      O   17   -0.47096      0.99991     3.46551    0.00555     4.47096
      N   18   -0.51278      0.99979     3.00180    0.01119     4.01278
      H   19    0.09709      0.00000     0.40193    0.00098     0.40291
      H   20    0.10003      0.00000     0.39857    0.00140     0.39997
      H   21    0.10160      0.00000     0.39713    0.00127     0.39840
      H   22    0.09184      0.00000     0.40697    0.00119     0.40816
      H   23    0.09624      0.00000     0.40229    0.00148     0.40376
      H   24    0.11002      0.00000     0.38829    0.00169     0.38998
      H   25    0.07691      0.00000     0.42173    0.00135     0.42309
      H   26    0.17644      0.00000     0.32118    0.00238     0.32356
      H   27    0.07533      0.00000     0.42313    0.00154     0.42467
      H   28    0.09364      0.00000     0.40543    0.00093     0.40636
      H   29    0.18051      0.00000     0.31636    0.00313     0.31949
      H   30    0.09745      0.00000     0.40157    0.00098     0.40255
      H   31    0.08988      0.00000     0.40908    0.00104     0.41012
      H   32    0.09515      0.00000     0.40374    0.00111     0.40485
      H   33    0.10854      0.00000     0.39040    0.00106     0.39146
      H   34    0.10718      0.00000     0.39175    0.00107     0.39282
      H   35    0.09664      0.00000     0.40219    0.00117     0.40336
      H   36    0.19329      0.00000     0.30367    0.00304     0.30671
      H   37    0.19105      0.00000     0.30668    0.00227     0.30895
 =======================================================================
   * Total *   -0.00000     21.99290    49.70319    0.30391    72.00000

 Normal termination of Gaussian 16 at Fri Dec 11 23:31:46 2020.
