 Gaussian 16, Revision A.03,

 -----------------------------------------------------------
 # opt freq B3LYP/6-31G(d) empiricaldispersion=gd3bj scf=xqc
 -----------------------------------------------------------

 -------------------------------
 CID_102267826_JID_3031_neutraal
 -------------------------------
 Symbolic Z-matrix:
 Charge =  0 Multiplicity = 1

 SCF Done:  E(RB3LYP) =  -556.984195103     A.U. after   14 cycles
 SCF Done:  E(RB3LYP) =  -556.987783374     A.U. after   12 cycles
 SCF Done:  E(RB3LYP) =  -556.989006235     A.U. after   12 cycles
 SCF Done:  E(RB3LYP) =  -556.990384438     A.U. after   12 cycles
 SCF Done:  E(RB3LYP) =  -556.991060407     A.U. after   12 cycles
 SCF Done:  E(RB3LYP) =  -556.991539584     A.U. after   12 cycles
 SCF Done:  E(RB3LYP) =  -556.991568377     A.U. after   10 cycles
 SCF Done:  E(RB3LYP) =  -556.991582351     A.U. after    9 cycles
 SCF Done:  E(RB3LYP) =  -556.991589160     A.U. after    9 cycles
 SCF Done:  E(RB3LYP) =  -556.991589485     A.U. after    7 cycles
 SCF Done:  E(RB3LYP) =  -556.991589600     A.U. after    7 cycles
 Optimization completed.
    -- Stationary point found.
 Normal termination of Gaussian 16 at Wed Dec  9 22:20:50 2020.

 --------------------------------------------------------------------
 #N Geom=AllCheck Guess=TCheck SCRF=Check GenChk RB3LYP/6-31G(d) Freq
 --------------------------------------------------------------------

 Structure from the checkpoint file:  "JID_3031.chk"
 -------------------------------
 CID_102267826_JID_3031_neutraal
 -------------------------------
 Charge =  0 Multiplicity = 1

 SCF Done:  E(RB3LYP) =  -556.991589600     A.U. after    1 cycles

  Exact polarizability: 171.824   9.003 144.428  -1.764  -3.397  61.879
 Approx polarizability: 258.912  22.193 230.027  -0.883  -2.391  95.841

                      1                      2                      3
                      A                      A                      A
 Frequencies --     73.7489                84.6313               146.9194
 Red. masses --      2.9976                 3.3607                 2.8972
 Frc consts  --      0.0096                 0.0142                 0.0368
 IR Inten    --      2.6282                 2.5530                 0.4043

                      4                      5                      6
                      A                      A                      A
 Frequencies --    170.2791               203.6107               230.8328
 Red. masses --      2.7583                 3.1318                 1.2851
 Frc consts  --      0.0471                 0.0765                 0.0403
 IR Inten    --      2.7191                 3.0678                 0.2616

                      7                      8                      9
                      A                      A                      A
 Frequencies --    240.0381               275.8591               286.3526
 Red. masses --      3.1378                 1.5869                 1.5514
 Frc consts  --      0.1065                 0.0712                 0.0750
 IR Inten    --      0.4177                 2.6936                 1.4036

                     10                     11                     12
                      A                      A                      A
 Frequencies --    372.4241               398.7441               412.1022
 Red. masses --      3.3161                 4.3936                 2.9809
 Frc consts  --      0.2710                 0.4116                 0.2983
 IR Inten    --      1.1982                 3.5815                17.7715

                     13                     14                     15
                      A                      A                      A
 Frequencies --    430.5485               449.2943               489.0984
 Red. masses --      4.5721                 3.9240                 3.8514
 Frc consts  --      0.4994                 0.4667                 0.5428
 IR Inten    --      1.1775                 1.7906                 1.2507

                     16                     17                     18
                      A                      A                      A
 Frequencies --    561.8199               605.1651               616.0603
 Red. masses --      5.4777                 3.9559                 4.4145
 Frc consts  --      1.0187                 0.8536                 0.9871
 IR Inten    --      4.9354                 4.9710                 1.0221

                     19                     20                     21
                      A                      A                      A
 Frequencies --    647.6496               741.8081               777.0558
 Red. masses --      5.2611                 2.4050                 1.6195
 Frc consts  --      1.3002                 0.7797                 0.5761
 IR Inten    --      2.3218                13.3941                32.7503

                     22                     23                     24
                      A                      A                      A
 Frequencies --    790.9142               809.2391               854.2593
 Red. masses --      4.3214                 1.4667                 3.5798
 Frc consts  --      1.5927                 0.5659                 1.5392
 IR Inten    --      7.8666                18.1440                 0.3041

                     25                     26                     27
                      A                      A                      A
 Frequencies --    887.6048               935.8318               948.9395
 Red. masses --      1.4484                 1.6559                 2.6396
 Frc consts  --      0.6723                 0.8545                 1.4004
 IR Inten    --      0.2764                18.5075                19.4714

                     28                     29                     30
                      A                      A                      A
 Frequencies --    981.3233              1024.2619              1036.7444
 Red. masses --      1.2578                 2.1371                 4.1081
 Frc consts  --      0.7136                 1.3210                 2.6015
 IR Inten    --      0.2361                 2.4715                 0.5170

                     31                     32                     33
                      A                      A                      A
 Frequencies --   1071.6534              1092.7042              1139.2343
 Red. masses --      2.1754                 1.8629                 2.0987
 Frc consts  --      1.4720                 1.3105                 1.6048
 IR Inten    --      6.8068                38.2598                51.3637

                     34                     35                     36
                      A                      A                      A
 Frequencies --   1162.1744              1174.6107              1190.1526
 Red. masses --      1.3535                 3.3270                 1.2737
 Frc consts  --      1.0771                 2.7045                 1.0630
 IR Inten    --     18.8291               121.3307                 1.1129

                     37                     38                     39
                      A                      A                      A
 Frequencies --   1194.0212              1201.2237              1227.1214
 Red. masses --      1.1372                 1.9568                 1.6289
 Frc consts  --      0.9552                 1.6636                 1.4452
 IR Inten    --      6.8898                27.5074                 2.7278

                     40                     41                     42
                      A                      A                      A
 Frequencies --   1241.2306              1266.9396              1302.1141
 Red. masses --      1.8118                 1.9003                 1.3349
 Frc consts  --      1.6446                 1.7971                 1.3336
 IR Inten    --     23.6048                64.9799                47.8860

                     43                     44                     45
                      A                      A                      A
 Frequencies --   1325.8434              1348.7799              1367.2497
 Red. masses --      2.0949                 2.8087                 4.5769
 Frc consts  --      2.1697                 3.0105                 5.0410
 IR Inten    --    108.0290                12.6702                 7.7018

                     46                     47                     48
                      A                      A                      A
 Frequencies --   1412.6693              1448.6159              1485.1776
 Red. masses --      1.7349                 1.9940                 1.2266
 Frc consts  --      2.0399                 2.4654                 1.5941
 IR Inten    --     54.8942                36.8465                 3.3029

                     49                     50                     51
                      A                      A                      A
 Frequencies --   1500.3465              1505.6946              1514.6307
 Red. masses --      1.3040                 2.1212                 1.0487
 Frc consts  --      1.7295                 2.8333                 1.4175
 IR Inten    --      0.3739                 2.5651                 7.6378

                     52                     53                     54
                      A                      A                      A
 Frequencies --   1514.9866              1521.8739              1539.4315
 Red. masses --      1.0551                 1.0998                 1.3317
 Frc consts  --      1.4269                 1.5009                 1.8594
 IR Inten    --     23.5519                 0.9560                10.5099

                     55                     56                     57
                      A                      A                      A
 Frequencies --   1540.7146              1545.5761              1631.0687
 Red. masses --      1.0795                 1.8150                 5.7325
 Frc consts  --      1.5098                 2.5544                 8.9854
 IR Inten    --     14.3893                20.9389                 3.5833

                     58                     59                     60
                      A                      A                      A
 Frequencies --   1666.2337              1710.9521              2868.0536
 Red. masses --      6.0733                 6.3341                 1.0735
 Frc consts  --      9.9345                10.9248                 5.2029
 IR Inten    --     13.0695                43.8453               102.5998

                     61                     62                     63
                      A                      A                      A
 Frequencies --   2955.8202              3008.2168              3059.3638
 Red. masses --      1.0601                 1.0358                 1.1057
 Frc consts  --      5.4572                 5.5227                 6.0972
 IR Inten    --    140.3866                56.3019                52.9585

                     64                     65                     66
                      A                      A                      A
 Frequencies --   3077.6904              3084.9041              3129.9513
 Red. masses --      1.0861                 1.0727                 1.1040
 Frc consts  --      6.0614                 6.0149                 6.3722
 IR Inten    --     23.5826                49.3589                22.2224

                     67                     68                     69
                      A                      A                      A
 Frequencies --   3153.7197              3174.6973              3187.8074
 Red. masses --      1.0982                 1.0871                 1.0887
 Frc consts  --      6.4355                 6.4554                 6.5182
 IR Inten    --     26.6829                 7.5881                18.0294

                     70                     71                     72
                      A                      A                      A
 Frequencies --   3205.5584              3227.8173              3236.1672
 Red. masses --      1.0952                 1.0926                 1.0903
 Frc consts  --      6.6304                 6.7067                 6.7278
 IR Inten    --     34.8249                 7.7153                 9.9571

 - Thermochemistry -
 -------------------
 Temperature   298.150 Kelvin.  Pressure   1.00000 Atm.
 Atom     1 has atomic number  6 and mass  12.00000

 Molecular mass:   175.09971 amu.
 Principal axes and moments of inertia in atomic units:
                           1         2         3
     Eigenvalues --  1652.927322439.711614020.69597
           X            0.99999   0.00522  -0.00081
           Y           -0.00522   0.99997  -0.00608
           Z            0.00078   0.00609   0.99998
 This molecule is an asymmetric top.
 Rotational symmetry number  1.
 Warning -- assumption of classical behavior for rotation
           may cause significant error
 Rotational temperatures (Kelvin)      0.05240     0.03550     0.02154
 Rotational constants (GHZ):           1.09185     0.73974     0.44886
 Zero-point vibrational energy     578370.2 (Joules/Mol)
                                  138.23381 (Kcal/Mol)
 Warning -- explicit consideration of  18 degrees of freedom as
           vibrations may cause significant error
 Vibrational temperatures:    106.11   121.77   211.38   244.99   292.95
          (Kelvin)            332.12   345.36   396.90   412.00   535.84
                              573.70   592.92   619.46   646.43   703.70
                              808.33   870.70   886.37   931.82  1067.30
                             1118.01  1137.95  1164.31  1229.09  1277.07
                             1346.45  1365.31  1411.91  1473.68  1491.64
                             1541.87  1572.16  1639.10  1672.11  1690.00
                             1712.36  1717.93  1728.29  1765.55  1785.85
                             1822.84  1873.45  1907.59  1940.59  1967.17
                             2032.52  2084.24  2136.84  2158.66  2166.36
                             2179.22  2179.73  2189.64  2214.90  2216.74
                             2223.74  2346.74  2397.34  2461.68  4126.49
                             4252.77  4328.15  4401.74  4428.11  4438.49
                             4503.30  4537.50  4567.68  4586.54  4612.08
                             4644.11  4656.12

 Zero-point correction=                           0.220290 (Hartree/Particle)
 Thermal correction to Energy=                    0.231701
 Thermal correction to Enthalpy=                  0.232646
 Thermal correction to Gibbs Free Energy=         0.183288
 Sum of electronic and zero-point Energies=           -556.771300
 Sum of electronic and thermal Energies=              -556.759888
 Sum of electronic and thermal Enthalpies=            -556.758944
 Sum of electronic and thermal Free Energies=         -556.808301

                     E (Thermal)             CV                S
                      KCal/Mol        Cal/Mol-Kelvin    Cal/Mol-Kelvin
 Total                  145.395             44.777            103.881
 Electronic               0.000              0.000              0.000
 Translational            0.889              2.981             41.388
 Rotational               0.889              2.981             31.162
 Vibrational            143.617             38.815             31.332
 Vibration     1          0.599              1.966              4.051
 Vibration     2          0.601              1.960              3.780
 Vibration     3          0.617              1.906              2.712
 Vibration     4          0.625              1.879              2.432
 Vibration     5          0.639              1.835              2.100
 Vibration     6          0.653              1.794              1.872
 Vibration     7          0.657              1.779              1.803
 Vibration     8          0.678              1.718              1.559
 Vibration     9          0.684              1.699              1.495
 Vibration    10          0.744              1.529              1.070
 Vibration    11          0.765              1.473              0.967
 Vibration    12          0.776              1.444              0.919
 Vibration    13          0.792              1.404              0.857
 Vibration    14          0.808              1.362              0.798
 Vibration    15          0.845              1.274              0.686
 Vibration    16          0.918              1.114              0.520
 Vibration    17          0.964              1.021              0.441
 Vibration    18          0.976              0.998              0.423

                           ! Non-Optimized Parameters !
 Normal termination of Gaussian 16 at Wed Dec  9 22:27:16 2020.

 ----------------------------------------------------------------------
 # B3LYP/6-311++G(d,p) empiricaldispersion=gd3bj scf=xqc pop=npa geom=c
 heck
 ----------------------------------------------------------------------

 ---------------------------------------
 CID_102267826_JID_3031_Energie_neutraal
 ---------------------------------------
 Structure from the checkpoint file:  "JID_3031.chk"
 Charge =  0 Multiplicity = 1

 SCF Done:  E(RB3LYP) =  -557.140036413     A.U. after   14 cycles
 Normal termination of Gaussian 16 at Wed Dec  9 22:29:22 2020.

 ----------------------------------------------------------------------
 # B3LYP/6-311++G(d,p) empiricaldispersion=gd3bj scf=xqc pop=npa geom=c
 heck
 ----------------------------------------------------------------------

 -------------------------------------
 CID_102267826_JID_3031_Energie_kation
 -------------------------------------
 Structure from the checkpoint file:  "JID_3031.chk"
 Charge =  1 Multiplicity = 2

 SCF Done:  E(UB3LYP) =  -556.896927734     A.U. after   21 cycles
 Normal termination of Gaussian 16 at Wed Dec  9 22:33:34 2020.
 Gaussian 16:  ES64L-G16RevA.03 25-Dec-2016

 ----------------------------------------------------------------------
 # B3LYP/6-311++G(d,p) empiricaldispersion=gd3bj scf=xqc pop=npa geom=c
 heck
 ----------------------------------------------------------------------

 ------------------------------------
 CID_102267826_JID_3031_Energie_anion
 ------------------------------------
 Structure from the checkpoint file:  "JID_3031.chk"
 Charge = -1 Multiplicity = 2

                         Standard orientation:
 ---------------------------------------------------------------------
 Center     Atomic      Atomic             Coordinates (Angstroms)
 Number     Number       Type             X           Y           Z
 ---------------------------------------------------------------------
      1          6           0       -2.468921   -2.428368   -0.141198
      2          7           0       -1.387354   -1.477309   -0.312923
      3          6           0       -0.160595   -1.880797    0.367683
      4          6           0        0.953299   -0.893280    0.116040
      5          6           0        2.285553   -1.286650    0.039851
      6          6           0        3.301989   -0.335686   -0.086230
      7          6           0        2.976738    1.020118   -0.140184
      8          6           0        1.644711    1.426286   -0.080226
      9          6           0        0.623846    0.475320    0.047029
     10          6           0       -0.791605    0.830786    0.048951
     11          6           0       -1.729117   -0.126674   -0.143609
     12          8           0       -1.040768    2.177881    0.155277
     13          6           0       -2.386510    2.588994    0.042906
     14          1           0       -3.349096   -2.093800   -0.698456
     15          1           0       -2.755234   -2.565048    0.918330
     16          1           0       -2.163793   -3.401466   -0.539935
     17          1           0        0.121357   -2.878803    0.014773
     18          1           0       -0.342922   -1.962634    1.462200
     19          1           0        2.533651   -2.344481    0.089581
     20          1           0        4.339215   -0.653671   -0.139957
     21          1           0        3.762248    1.764594   -0.237147
     22          1           0        1.381734    2.476413   -0.138674
     23          1           0       -2.781204    0.101475   -0.257602
     24          1           0       -2.806240    2.326190   -0.938914
     25          1           0       -3.009764    2.134904    0.827158
     26          1           0       -2.388653    3.674153    0.160814
 ---------------------------------------------------------------------

 SCF Done:  E(UB3LYP) =  -557.126239155     A.U. after   33 cycles
 SCF Done:  E(UB3LYP) =  -557.126239155     a.u. after    1 cycles

 The electronic state is 2-A.
 Alpha  occ. eigenvalues --  -19.04005 -14.21886 -10.11250 -10.10619 -10.09767
 Alpha  occ. eigenvalues --  -10.08454 -10.08167 -10.07425 -10.07127 -10.06995
 Alpha  occ. eigenvalues --  -10.06867 -10.06594 -10.06357  -0.95534  -0.84089
 Alpha  occ. eigenvalues --   -0.75433  -0.68138  -0.66408  -0.62772  -0.60465
 Alpha  occ. eigenvalues --   -0.59027  -0.52830  -0.51126  -0.48966  -0.42977
 Alpha  occ. eigenvalues --   -0.42320  -0.41214  -0.37298  -0.36553  -0.36146
 Alpha  occ. eigenvalues --   -0.35317  -0.33403  -0.33176  -0.31989  -0.30352
 Alpha  occ. eigenvalues --   -0.29641  -0.28818  -0.27913  -0.26469  -0.24628
 Alpha  occ. eigenvalues --   -0.23737  -0.23590  -0.22263  -0.18153  -0.15300
 Alpha  occ. eigenvalues --   -0.14756  -0.06976   0.04674
 Alpha virt. eigenvalues --    0.06810   0.07174   0.07239   0.08552   0.08814
 Alpha virt. eigenvalues --    0.09067   0.09994   0.10348   0.11030   0.11466
 Alpha virt. eigenvalues --    0.12266   0.12577   0.13573   0.14592   0.15196

  Beta  occ. eigenvalues --  -19.03992 -14.21890 -10.11208 -10.10603 -10.09742
  Beta  occ. eigenvalues --  -10.08401 -10.08097 -10.07402 -10.07072 -10.07003
  Beta  occ. eigenvalues --  -10.06863 -10.06512 -10.06328  -0.95501  -0.84056
  Beta  occ. eigenvalues --   -0.75348  -0.68031  -0.66337  -0.62663  -0.60389
  Beta  occ. eigenvalues --   -0.58954  -0.52755  -0.50980  -0.48917  -0.42892
  Beta  occ. eigenvalues --   -0.42276  -0.41154  -0.37230  -0.36492  -0.36086
  Beta  occ. eigenvalues --   -0.35276  -0.33355  -0.33126  -0.31925  -0.30298
  Beta  occ. eigenvalues --   -0.29576  -0.28769  -0.27858  -0.26284  -0.24564
  Beta  occ. eigenvalues --   -0.23690  -0.23446  -0.22214  -0.18030  -0.14961
  Beta  occ. eigenvalues --   -0.14587  -0.06800
  Beta virt. eigenvalues --    0.06882   0.07482   0.07701   0.08035   0.08903
  Beta virt. eigenvalues --    0.08990   0.09546   0.10674   0.10830   0.11424
  Beta virt. eigenvalues --    0.12025   0.12534   0.12949   0.14040   0.14731

 Mulliken charges and spin densities:
               1          2
     1  C    1.271852  -1.551147
     2  N   -0.009880   0.276695
     3  C    0.404415  -1.136230
     4  C   -0.150137   0.797455
     5  C   -0.626637   0.027191
     6  C    0.004759  -0.286007
     7  C   -0.163530  -0.048302
     8  C   -0.435875   0.113180
     9  C    0.608355  -0.005568
    10  C    0.633812  -0.847199
    11  C   -0.942371   0.650461
    12  O   -0.212834   0.062271
    13  C    0.671684  -1.004753
    14  H   -0.564936   0.687529
    15  H   -0.423371   0.559722
    16  H   -0.463957   0.594990
    17  H    0.139940   0.066548
    18  H   -0.022176   0.142262
    19  H   -0.202283   0.320359
    20  H    0.088083   0.035146
    21  H    0.063595   0.067829
    22  H    0.140193   0.026789
    23  H    0.079199   0.116434
    24  H   -0.253549   0.407724
    25  H   -0.330289   0.475236
    26  H   -0.304062   0.451386
 Sum of Mulliken charges =  -1.00000   1.00000

 Dipole moment (field-independent basis, Debye):
    X=              7.2040    Y=              1.8605    Z=             -0.5248  Tot=              7.4589
 Quadrupole moment (field-independent basis, Debye-Ang):
   XX=           -138.3169   YY=           -127.8072   ZZ=           -105.1830
   XY=             -3.0945   XZ=              1.7176   YZ=             -0.8185

 Summary of Natural Population Analysis:

                                       Natural Population
                Natural  -----------------------------------------------
    Atom  No    Charge         Core      Valence    Rydberg      Total
 -----------------------------------------------------------------------
      C    1   -0.17281      0.99965     2.16402    0.00914     3.17281
      N    2   -0.25430      0.99969     2.74242    0.01219     3.75430
      C    3   -0.08389      0.99958     2.07221    0.01210     3.08389
      C    4   -0.00771      0.99949     1.99807    0.01015     3.00771
      C    5   -0.10442      0.99952     2.09501    0.00990     3.10442
      C    6   -0.09697      0.99957     2.08751    0.00989     3.09697
      C    7   -0.10932      0.99957     2.09999    0.00976     3.10932
      C    8   -0.09198      0.99953     2.08332    0.00912     3.09198
      C    9   -0.02718      0.99944     2.01743    0.01030     3.02718
      C   10    0.12391      0.99934     1.86305    0.01371     2.87609
      C   11   -0.01671      0.99947     2.00504    0.01219     3.01671
      O   12   -0.27787      0.99986     3.26793    0.01008     4.27787
      C   13   -0.09929      0.99961     2.09036    0.00932     3.09929
      H   14    0.09877      0.00000     0.39952    0.00172     0.40123
      H   15    0.08560      0.00000     0.41085    0.00356     0.41440
      H   16    0.09559      0.00000     0.40260    0.00181     0.40441
      H   17    0.09918      0.00000     0.39910    0.00172     0.40082
      H   18    0.08438      0.00000     0.41394    0.00168     0.41562
      H   19    0.09783      0.00000     0.40117    0.00100     0.40217
      H   20    0.09481      0.00000     0.40442    0.00077     0.40519
      H   21    0.09541      0.00000     0.40383    0.00076     0.40459
      H   22    0.10635      0.00000     0.39249    0.00116     0.39365
      H   23    0.10214      0.00000     0.39577    0.00210     0.39786
      H   24    0.08301      0.00000     0.41524    0.00175     0.41699
      H   25    0.08517      0.00000     0.41296    0.00187     0.41483
      H   26    0.09030      0.00000     0.40860    0.00110     0.40970
 =======================================================================
   * Total *   -0.00000     12.99433    33.84682    0.15885    47.00000

 Normal termination of Gaussian 16 at Wed Dec  9 22:40:35 2020.
