 Gaussian 16, Revision A.03,

 -----------------------------------------------------------
 # opt freq B3LYP/6-31G(d) empiricaldispersion=gd3bj scf=xqc
 -----------------------------------------------------------

 ------------------------------
 CID_149457559_JID_658_neutraal
 ------------------------------
 Symbolic Z-matrix:
 Charge =  0 Multiplicity = 1

 SCF Done:  E(RB3LYP) =  -813.741621295     A.U. after   15 cycles
 SCF Done:  E(RB3LYP) =  -813.753667502     A.U. after   13 cycles
 SCF Done:  E(RB3LYP) =  -813.756246858     A.U. after   13 cycles
 SCF Done:  E(RB3LYP) =  -813.758710493     A.U. after   13 cycles
 SCF Done:  E(RB3LYP) =  -813.760405982     A.U. after   12 cycles
 SCF Done:  E(RB3LYP) =  -813.761163111     A.U. after   13 cycles
 SCF Done:  E(RB3LYP) =  -813.761542708     A.U. after   12 cycles
 SCF Done:  E(RB3LYP) =  -813.761685417     A.U. after   11 cycles
 SCF Done:  E(RB3LYP) =  -813.761715107     A.U. after   11 cycles
 SCF Done:  E(RB3LYP) =  -813.761744481     A.U. after   10 cycles
 SCF Done:  E(RB3LYP) =  -813.762392620     A.U. after   10 cycles
 SCF Done:  E(RB3LYP) =  -813.762393331     A.U. after    8 cycles
 SCF Done:  E(RB3LYP) =  -813.762393622     A.U. after    8 cycles
 SCF Done:  E(RB3LYP) =  -813.762393734     A.U. after    8 cycles
 SCF Done:  E(RB3LYP) =  -813.762393778     A.U. after    7 cycles
 Optimization completed.
    -- Stationary point found.
 Normal termination of Gaussian 16 at Tue Dec  8 12:32:29 2020.

 --------------------------------------------------------------------
 #N Geom=AllCheck Guess=TCheck SCRF=Check GenChk RB3LYP/6-31G(d) Freq
 --------------------------------------------------------------------

 Structure from the checkpoint file:  "JID_658.chk"
 ------------------------------
 CID_149457559_JID_658_neutraal
 ------------------------------
 Charge =  0 Multiplicity = 1

 SCF Done:  E(RB3LYP) =  -813.762393778     A.U. after    1 cycles

  Exact polarizability: 149.665   4.753  96.250   7.525   5.279  67.011
 Approx polarizability: 201.090   5.140 149.674  14.965  11.424 104.449

                      1                      2                      3
                      A                      A                      A
 Frequencies --     32.6640                69.0597                83.0115
 Red. masses --      4.9606                 4.5620                 4.1327
 Frc consts  --      0.0031                 0.0128                 0.0168
 IR Inten    --      0.3750                 2.1231                 6.3133

                      4                      5                      6
                      A                      A                      A
 Frequencies --    112.9100               148.4630               195.0206
 Red. masses --      1.2897                 2.8630                 4.0189
 Frc consts  --      0.0097                 0.0372                 0.0901
 IR Inten    --      0.8134                 3.0887                19.0797

                      7                      8                      9
                      A                      A                      A
 Frequencies --    254.1948               256.0834               322.9639
 Red. masses --      2.6788                 1.1962                 3.1825
 Frc consts  --      0.1020                 0.0462                 0.1956
 IR Inten    --      7.0262                18.3552                 1.4095

                     10                     11                     12
                      A                      A                      A
 Frequencies --    356.7315               402.6394               426.9386
 Red. masses --      1.5090                 2.5650                 1.5459
 Frc consts  --      0.1131                 0.2450                 0.1660
 IR Inten    --    126.8637                61.9754                86.7241

                     13                     14                     15
                      A                      A                      A
 Frequencies --    432.9107               458.5428               508.4790
 Red. masses --      2.9015                 2.4142                 2.5817
 Frc consts  --      0.3204                 0.2991                 0.3933
 IR Inten    --      2.7995                61.8175                14.6638

                     16                     17                     18
                      A                      A                      A
 Frequencies --    573.0860               585.8151               613.2031
 Red. masses --      2.4062                 2.8824                 1.7076
 Frc consts  --      0.4656                 0.5828                 0.3783
 IR Inten    --     68.7719                36.3481               212.0056

                     19                     20                     21
                      A                      A                      A
 Frequencies --    648.5933               675.3918               718.8580
 Red. masses --      2.5960                 1.4443                 1.7750
 Frc consts  --      0.6434                 0.3882                 0.5404
 IR Inten    --      3.1557                14.5139                22.3489

                     22                     23                     24
                      A                      A                      A
 Frequencies --    786.4549               795.3649               804.2560
 Red. masses --      2.4195                 1.9904                 1.4330
 Frc consts  --      0.8817                 0.7419                 0.5461
 IR Inten    --      2.7420               146.2532                60.1601

                     25                     26                     27
                      A                      A                      A
 Frequencies --    851.1815               938.0587               962.5487
 Red. masses --      3.8464                 1.2528                 2.4428
 Frc consts  --      1.6419                 0.6495                 1.3335
 IR Inten    --     25.9398                 3.3092                12.5231

                     28                     29                     30
                      A                      A                      A
 Frequencies --   1053.0148              1068.9093              1072.1716
 Red. masses --      2.5300                 1.6848                 1.6903
 Frc consts  --      1.6529                 1.1342                 1.1448
 IR Inten    --     41.0031                 0.5811                 6.7747

                     31                     32                     33
                      A                      A                      A
 Frequencies --   1117.1575              1173.0866              1216.9323
 Red. masses --      1.3554                 1.8895                 3.4104
 Frc consts  --      0.9967                 1.5320                 2.9757
 IR Inten    --      1.7407                 6.6599               260.6552

                     34                     35                     36
                      A                      A                      A
 Frequencies --   1392.8110              1434.3149              1446.7089
 Red. masses --      2.8174                 1.5557                 1.2935
 Frc consts  --      3.2202                 1.8857                 1.5950
 IR Inten    --    110.5283               102.8801                 2.5048

                     37                     38                     39
                      A                      A                      A
 Frequencies --   1491.1694              1500.0181              1507.2405
 Red. masses --      2.0627                 1.0834                 1.1130
 Frc consts  --      2.7023                 1.4363                 1.4897
 IR Inten    --     15.1689                10.8042                55.7290

                     40                     41                     42
                      A                      A                      A
 Frequencies --   1563.3387              1630.8437              1660.5152
 Red. masses --      2.3538                 3.6835                 1.9149
 Frc consts  --      3.3894                 5.7721                 3.1109
 IR Inten    --    564.8773               348.2487               209.7137

                     43                     44                     45
                      A                      A                      A
 Frequencies --   1671.1932              1707.1307              2683.5613
 Red. masses --      2.6629                 2.2805                 1.0382
 Frc consts  --      4.3818                 3.9157                 4.4050
 IR Inten    --    329.5835               493.8778                29.7292

                     46                     47                     48
                      A                      A                      A
 Frequencies --   3066.0198              3129.1217              3176.9357
 Red. masses --      1.0416                 1.0944                 1.1025
 Frc consts  --      5.7692                 6.3133                 6.5560
 IR Inten    --      7.1999                11.0515                 7.2421

                     49                     50                     51
                      A                      A                      A
 Frequencies --   3179.5829              3263.5523              3358.8129
 Red. masses --      1.0586                 1.1175                 1.0635
 Frc consts  --      6.3058                 7.0127                 7.0687
 IR Inten    --      1.8004                 9.6342               277.3053

                     52                     53                     54
                      A                      A                      A
 Frequencies --   3565.3173              3646.0496              3676.9165
 Red. masses --      1.0474                 1.0884                 1.0998
 Frc consts  --      7.8448                 8.5246                 8.7608
 IR Inten    --     34.0393                52.5052                27.3024

 - Thermochemistry -
 -------------------
 Temperature   298.150 Kelvin.  Pressure   1.00000 Atm.
 Atom     1 has atomic number  6 and mass  12.00000

 Molecular mass:   158.06262 amu.
 Principal axes and moments of inertia in atomic units:
                           1         2         3
     Eigenvalues --   884.689242915.610033407.84870
           X            0.99971   0.02186   0.00985
           Y           -0.02163   0.99950  -0.02290
           Z           -0.01035   0.02268   0.99969
 This molecule is an asymmetric top.
 Rotational symmetry number  1.
 Warning -- assumption of classical behavior for rotation
           may cause significant error
 Rotational temperatures (Kelvin)      0.09790     0.02971     0.02542
 Rotational constants (GHZ):           2.03997     0.61899     0.52958
 Zero-point vibrational energy     415498.1 (Joules/Mol)
                                   99.30642 (Kcal/Mol)
 Warning -- explicit consideration of  18 degrees of freedom as
           vibrations may cause significant error
 Vibrational temperatures:     47.00    99.36   119.44   162.45   213.61
          (Kelvin)            280.59   365.73   368.45   464.67   513.26
                              579.31   614.27   622.86   659.74   731.59
                              824.54   842.86   882.26   933.18   971.74
                             1034.28  1131.53  1144.35  1157.15  1224.66
                             1349.66  1384.89  1515.05  1537.92  1542.62
                             1607.34  1687.81  1750.89  2003.94  2063.66
                             2081.49  2145.46  2158.19  2168.58  2249.30
                             2346.42  2389.11  2404.47  2456.18  3861.05
                             4411.32  4502.11  4570.90  4574.71  4695.52
                             4832.58  5129.70  5245.85  5290.26

 Zero-point correction=                           0.158255 (Hartree/Particle)
 Thermal correction to Energy=                    0.169941
 Thermal correction to Enthalpy=                  0.170885
 Thermal correction to Gibbs Free Energy=         0.119958
 Sum of electronic and zero-point Energies=           -813.604139
 Sum of electronic and thermal Energies=              -813.592453
 Sum of electronic and thermal Enthalpies=            -813.591508
 Sum of electronic and thermal Free Energies=         -813.642436

                     E (Thermal)             CV                S
                      KCal/Mol        Cal/Mol-Kelvin    Cal/Mol-Kelvin
 Total                  106.640             42.646            107.186
 Electronic               0.000              0.000              0.000
 Translational            0.889              2.981             41.083
 Rotational               0.889              2.981             30.553
 Vibrational            104.862             36.685             35.550
 Vibration     1          0.594              1.983              5.661
 Vibration     2          0.598              1.969              4.180
 Vibration     3          0.600              1.961              3.818
 Vibration     4          0.607              1.939              3.218
 Vibration     5          0.618              1.904              2.692
 Vibration     6          0.636              1.847              2.180
 Vibration     7          0.665              1.756              1.701
 Vibration     8          0.666              1.753              1.688
 Vibration     9          0.708              1.629              1.295
 Vibration    10          0.732              1.561              1.136
 Vibration    11          0.768              1.464              0.953
 Vibration    12          0.789              1.412              0.869
 Vibration    13          0.794              1.399              0.849
 Vibration    14          0.817              1.342              0.770
 Vibration    15          0.864              1.231              0.637
 Vibration    16          0.929              1.089              0.498
 Vibration    17          0.943              1.062              0.475
 Vibration    18          0.973              1.004              0.427

 Optimization completed.
    -- Stationary point found.
 Normal termination of Gaussian 16 at Tue Dec  8 12:42:21 2020.

 ----------------------------------------------------------------------
 # B3LYP/6-311++G(d,p) empiricaldispersion=gd3bj scf=xqc pop=npa geom=c
 heck
 ----------------------------------------------------------------------

 --------------------------------------
 CID_149457559_JID_658_Energie_neutraal
 --------------------------------------
 Structure from the checkpoint file:  "JID_658.chk"
 Charge =  0 Multiplicity = 1

 SCF Done:  E(RB3LYP) =  -813.925592755     A.U. after   14 cycles
 Normal termination of Gaussian 16 at Tue Dec  8 12:44:04 2020.

 ----------------------------------------------------------------------
 # B3LYP/6-311++G(d,p) empiricaldispersion=gd3bj scf=xqc pop=npa geom=c
 heck
 ----------------------------------------------------------------------

 ------------------------------------
 CID_149457559_JID_658_Energie_kation
 ------------------------------------
 Structure from the checkpoint file:  "JID_658.chk"
 Charge =  1 Multiplicity = 2

 SCF Done:  E(UB3LYP) =  -813.645947336     A.U. after   25 cycles
 Normal termination of Gaussian 16 at Tue Dec  8 12:49:40 2020.
 Gaussian 16:  ES64L-G16RevA.03 25-Dec-2016

 ----------------------------------------------------------------------
 # B3LYP/6-311++G(d,p) empiricaldispersion=gd3bj scf=xqc pop=npa geom=c
 heck
 ----------------------------------------------------------------------

 -----------------------------------
 CID_149457559_JID_658_Energie_anion
 -----------------------------------
 Structure from the checkpoint file:  "JID_658.chk"
 Charge = -1 Multiplicity = 2

                         Standard orientation:
 ---------------------------------------------------------------------
 Center     Atomic      Atomic             Coordinates (Angstroms)
 Number     Number       Type             X           Y           Z
 ---------------------------------------------------------------------
      1          6           0        0.111428    2.225389   -0.581442
      2          6           0       -0.387255    0.854922   -0.180157
      3          7           0        0.382796   -0.121274    0.216340
      4          6           0        1.752997    0.028443    0.408997
      5          6           0        2.340361    0.831247    1.309655
      6         16           0        2.640977   -1.119295   -0.654596
      7          7           0       -1.748554    0.742204   -0.297396
      8          6           0       -2.392416   -0.355783    0.041765
      9          7           0       -1.845270   -1.538192    0.405219
     10          7           0       -3.769313   -0.293483    0.030921
     11          1           0        1.186996    2.236474   -0.760956
     12          1           0       -0.113894    2.949734    0.210063
     13          1           0       -0.430814    2.546804   -1.474395
     14          1           0        3.413752    0.850330    1.459457
     15          1           0        1.729787    1.468131    1.941176
     16          1           0        3.880342   -0.861776   -0.185166
     17          1           0       -2.401608   -2.211034    0.913421
     18          1           0       -0.829076   -1.500675    0.533665
     19          1           0       -4.113341    0.540768   -0.426792
     20          1           0       -4.266064   -1.140115   -0.215436
 ---------------------------------------------------------------------

 SCF Done:  E(UB3LYP) =  -813.915478021     A.U. after   33 cycles
 SCF Done:  E(UB3LYP) =  -813.915913125     a.u. after   10 cycles

 The electronic state is 2-A.
 Alpha  occ. eigenvalues --  -88.75125 -14.21684 -14.21676 -14.19443 -14.17548
 Alpha  occ. eigenvalues --  -10.17944 -10.14659 -10.13513 -10.06666 -10.05505
 Alpha  occ. eigenvalues --   -7.83824  -5.80207  -5.79811  -5.79227  -0.88925
 Alpha  occ. eigenvalues --   -0.83579  -0.77164  -0.76438  -0.68111  -0.63097
 Alpha  occ. eigenvalues --   -0.60603  -0.53799  -0.49207  -0.46397  -0.43974
 Alpha  occ. eigenvalues --   -0.38963  -0.37888  -0.36579  -0.35931  -0.34454
 Alpha  occ. eigenvalues --   -0.32854  -0.31202  -0.30256  -0.28913  -0.24807
 Alpha  occ. eigenvalues --   -0.23891  -0.21301  -0.17064  -0.16576  -0.15759
 Alpha  occ. eigenvalues --   -0.13471  -0.11396   0.04499
 Alpha virt. eigenvalues --    0.06034   0.06898   0.08281   0.08743   0.09449
 Alpha virt. eigenvalues --    0.10212   0.10526   0.11444   0.11851   0.12314
 Alpha virt. eigenvalues --    0.13112   0.13960   0.14648   0.15723   0.16431

  Beta  occ. eigenvalues --  -88.75111 -14.21611 -14.21591 -14.19437 -14.17538
  Beta  occ. eigenvalues --  -10.17935 -10.14640 -10.13506 -10.06661 -10.05481
  Beta  occ. eigenvalues --   -7.83808  -5.80187  -5.79796  -5.79215  -0.88870
  Beta  occ. eigenvalues --   -0.83535  -0.77037  -0.76383  -0.68060  -0.63069
  Beta  occ. eigenvalues --   -0.60547  -0.53715  -0.49126  -0.46350  -0.43836
  Beta  occ. eigenvalues --   -0.38867  -0.37834  -0.36529  -0.35862  -0.34410
  Beta  occ. eigenvalues --   -0.32806  -0.31156  -0.30200  -0.28882  -0.24755
  Beta  occ. eigenvalues --   -0.23846  -0.21247  -0.16976  -0.16547  -0.15726
  Beta  occ. eigenvalues --   -0.13445  -0.11332
  Beta virt. eigenvalues --    0.06722   0.06964   0.08098   0.08687   0.09264
  Beta virt. eigenvalues --    0.10100   0.10334   0.10770   0.11640   0.12413
  Beta virt. eigenvalues --    0.12737   0.13170   0.14045   0.14612   0.15926

 Mulliken charges and spin densities:
               1          2
     1  C    0.142392  -0.588335
     2  C    0.238332  -0.408298
     3  N    0.020095  -0.001271
     4  C   -0.454373   0.177573
     5  C   -0.002629  -0.177379
     6  S    0.270145  -0.440504
     7  N   -0.021867  -0.164632
     8  C    0.603275  -0.501849
     9  N   -0.143526  -0.254746
    10  N   -0.528033   0.276680
    11  H    0.106963   0.054801
    12  H    0.110226   0.061577
    13  H    0.097483   0.057247
    14  H   -0.174830   0.307431
    15  H    0.136236  -0.029267
    16  H   -0.335748   0.379557
    17  H   -0.543804   0.827260
    18  H    0.421116  -0.048525
    19  H   -0.113850   0.373545
    20  H   -0.827605   1.099136
 Sum of Mulliken charges =  -1.00000   1.00000

 Dipole moment (field-independent basis, Debye):
    X=              7.0536    Y=              5.0207    Z=             -0.3005  Tot=              8.6632
 Quadrupole moment (field-independent basis, Debye-Ang):
   XX=           -153.5411   YY=           -100.5904   ZZ=            -89.8639
   XY=            -14.5256   XZ=             -1.4252   YZ=              2.7158

 Summary of Natural Population Analysis:

                                       Natural Population
                Natural  -----------------------------------------------
    Atom  No    Charge         Core      Valence    Rydberg      Total
 -----------------------------------------------------------------------
      C    1   -0.31474      0.99963     2.31016    0.00495     3.31474
      C    2    0.25356      0.99958     1.73094    0.01592     2.74644
      N    3   -0.32453      0.99958     2.80941    0.01554     3.82453
      C    4    0.03315      0.99945     1.95252    0.01489     2.96685
      C    5   -0.25345      0.99947     2.24411    0.00987     3.25345
      S    6    0.00738      4.99954     2.97637    0.01670     7.99262
      N    7   -0.33600      0.99962     2.82436    0.01202     3.83600
      C    8    0.33162      0.99965     1.65205    0.01669     2.66838
      N    9   -0.39458      0.99968     2.88608    0.00881     3.89458
      N   10   -0.39041      0.99971     2.88106    0.00964     3.89041
      H   11    0.10686      0.00000     0.39231    0.00083     0.39314
      H   12    0.10701      0.00000     0.39194    0.00105     0.39299
      H   13    0.10983      0.00000     0.38896    0.00121     0.39017
      H   14    0.09666      0.00000     0.40243    0.00092     0.40334
      H   15    0.09872      0.00000     0.40025    0.00103     0.40128
      H   16    0.05748      0.00000     0.43864    0.00388     0.44252
      H   17    0.19967      0.00000     0.29130    0.00903     0.30033
      H   18    0.21751      0.00000     0.28024    0.00225     0.28249
      H   19    0.19575      0.00000     0.30060    0.00365     0.30425
      H   20    0.19851      0.00000     0.27278    0.02871     0.30149
 =======================================================================
   * Total *   -0.00000     13.99590    27.82651    0.17759    42.00000

 Normal termination of Gaussian 16 at Tue Dec  8 13:29:21 2020.
