 Gaussian 16, Revision A.03,

 -----------------------------------------------------------
 # opt freq B3LYP/6-31G(d) empiricaldispersion=gd3bj scf=xqc
 -----------------------------------------------------------

 ------------------------------
 CID_79605044_JID_6588_neutraal
 ------------------------------
 Symbolic Z-matrix:
 Charge =  0 Multiplicity = 1

 SCF Done:  E(RB3LYP) =  -709.442034901     A.U. after   14 cycles
 SCF Done:  E(RB3LYP) =  -709.446827312     A.U. after   11 cycles
 SCF Done:  E(RB3LYP) =  -709.447433904     A.U. after   11 cycles
 SCF Done:  E(RB3LYP) =  -709.447688402     A.U. after   11 cycles
 SCF Done:  E(RB3LYP) =  -709.447844461     A.U. after   11 cycles
 SCF Done:  E(RB3LYP) =  -709.447975792     A.U. after   11 cycles
 SCF Done:  E(RB3LYP) =  -709.448037581     A.U. after   10 cycles
 SCF Done:  E(RB3LYP) =  -709.448074165     A.U. after   10 cycles
 SCF Done:  E(RB3LYP) =  -709.448088563     A.U. after   10 cycles
 SCF Done:  E(RB3LYP) =  -709.448097611     A.U. after   10 cycles
 SCF Done:  E(RB3LYP) =  -709.448101444     A.U. after    8 cycles
 SCF Done:  E(RB3LYP) =  -709.448101577     A.U. after    7 cycles
 SCF Done:  E(RB3LYP) =  -709.448101617     A.U. after    7 cycles
 SCF Done:  E(RB3LYP) =  -709.448101631     A.U. after    7 cycles
 SCF Done:  E(RB3LYP) =  -709.448101635     A.U. after    6 cycles
 Optimization completed.
    -- Stationary point found.
 Normal termination of Gaussian 16 at Thu Dec 10 23:47:36 2020.

 --------------------------------------------------------------------
 #N Geom=AllCheck Guess=TCheck SCRF=Check GenChk RB3LYP/6-31G(d) Freq
 --------------------------------------------------------------------

 Structure from the checkpoint file:  "JID_6588.chk"
 ------------------------------
 CID_79605044_JID_6588_neutraal
 ------------------------------
 Charge =  0 Multiplicity = 1

 SCF Done:  E(RB3LYP) =  -709.448101635     A.U. after    1 cycles

  Exact polarizability: 202.725   2.993 118.393  -0.541   7.451 128.233
 Approx polarizability: 248.161   7.361 172.885  -3.633  21.370 214.489

                      1                      2                      3
                      A                      A                      A
 Frequencies --     17.2160                24.2539                42.0727
 Red. masses --      3.2790                 3.3468                 4.4247
 Frc consts  --      0.0006                 0.0012                 0.0046
 IR Inten    --      0.0804                 0.3382                 0.8766

                      4                      5                      6
                      A                      A                      A
 Frequencies --     55.2625                88.1144                96.4171
 Red. masses --      3.8219                 1.8396                 2.6517
 Frc consts  --      0.0069                 0.0084                 0.0145
 IR Inten    --      0.0711                 1.5020                 1.4808

                      7                      8                      9
                      A                      A                      A
 Frequencies --    113.9996               176.1505               193.6923
 Red. masses --      2.4191                 2.4382                 2.2288
 Frc consts  --      0.0185                 0.0446                 0.0493
 IR Inten    --      1.0044                 1.0472                 0.7725

                     10                     11                     12
                      A                      A                      A
 Frequencies --    202.4880               219.2502               229.3271
 Red. masses --      2.9825                 2.0447                 1.1282
 Frc consts  --      0.0720                 0.0579                 0.0350
 IR Inten    --      0.2303                 5.4125                 0.2831

                     13                     14                     15
                      A                      A                      A
 Frequencies --    270.0691               275.2345               280.7873
 Red. masses --      1.0427                 1.3300                 1.0711
 Frc consts  --      0.0448                 0.0594                 0.0498
 IR Inten    --      0.1759                 6.5814                 0.2531

                     16                     17                     18
                      A                      A                      A
 Frequencies --    308.8236               319.0955               344.8581
 Red. masses --      2.4693                 3.1051                 2.3109
 Frc consts  --      0.1388                 0.1863                 0.1619
 IR Inten    --      2.5902                 2.3139                 1.5906

                     19                     20                     21
                      A                      A                      A
 Frequencies --    350.2211               369.8823               396.3775
 Red. masses --      2.7153                 3.6950                 3.3329
 Frc consts  --      0.1962                 0.2978                 0.3085
 IR Inten    --      2.3264                 3.4416                 2.2727

                     22                     23                     24
                      A                      A                      A
 Frequencies --    419.2487               456.0617               473.4475
 Red. masses --      4.2246                 2.3694                 2.6493
 Frc consts  --      0.4375                 0.2904                 0.3499
 IR Inten    --      0.9389                 6.6985                 3.2632

                     25                     26                     27
                      A                      A                      A
 Frequencies --    496.0385               538.2424               552.0232
 Red. masses --      3.3728                 3.1238                 2.8922
 Frc consts  --      0.4890                 0.5332                 0.5193
 IR Inten    --      2.9853                 1.2304                11.4219

                     28                     29                     30
                      A                      A                      A
 Frequencies --    656.2964               670.4864               748.4732
 Red. masses --      4.4179                 5.5201                 3.2146
 Frc consts  --      1.1212                 1.4621                 1.0610
 IR Inten    --     11.3333                 5.1635                 6.8870

                     31                     32                     33
                      A                      A                      A
 Frequencies --    764.7287               789.7150               843.4505
 Red. masses --      2.3777                 1.6885                 4.8590
 Frc consts  --      0.8193                 0.6204                 2.0366
 IR Inten    --     31.0339                44.1063                 2.0708

                     34                     35                     36
                      A                      A                      A
 Frequencies --    853.9518               878.4038               921.9840
 Red. masses --      4.6154                 3.8847                 1.8005
 Frc consts  --      1.9830                 1.7660                 0.9018
 IR Inten    --     24.1447                 8.3515                 2.0404

                     37                     38                     39
                      A                      A                      A
 Frequencies --    933.1650               949.2630               953.2885
 Red. masses --      2.0153                 1.4871                 1.6752
 Frc consts  --      1.0340                 0.7895                 0.8969
 IR Inten    --      2.2911                 9.3539                 5.7255

                     40                     41                     42
                      A                      A                      A
 Frequencies --    971.8516              1002.4954              1009.1849
 Red. masses --      1.2100                 1.3966                 2.1763
 Frc consts  --      0.6733                 0.8270                 1.3059
 IR Inten    --      0.3018                 2.9210                16.3596

                     43                     44                     45
                      A                      A                      A
 Frequencies --   1022.7015              1058.4032              1062.7498
 Red. masses --      1.5698                 1.6052                 1.9264
 Frc consts  --      0.9673                 1.0594                 1.2819
 IR Inten    --      7.2023                 3.9321                 9.4326

                     46                     47                     48
                      A                      A                      A
 Frequencies --   1069.1931              1076.0749              1118.3622
 Red. masses --      2.0910                 1.9087                 2.8724
 Frc consts  --      1.4084                 1.3022                 2.1167
 IR Inten    --     30.0379                 1.7447                27.1594

                     49                     50                     51
                      A                      A                      A
 Frequencies --   1134.9522              1171.1176              1193.9617
 Red. masses --      3.3465                 3.2878                 1.3060
 Frc consts  --      2.5398                 2.6568                 1.0969
 IR Inten    --     28.9287               114.4433                 6.6293

                     52                     53                     54
                      A                      A                      A
 Frequencies --   1228.5242              1235.8088              1248.6070
 Red. masses --      1.7645                 1.4825                 3.4225
 Frc consts  --      1.5690                 1.3340                 3.1438
 IR Inten    --      7.0493                 4.4344                 2.9664

                     55                     56                     57
                      A                      A                      A
 Frequencies --   1253.4766              1263.6091              1273.8699
 Red. masses --      2.4617                 2.1764                 2.6622
 Frc consts  --      2.2789                 2.0474                 2.5453
 IR Inten    --     47.3054                13.5597                46.6811

                     58                     59                     60
                      A                      A                      A
 Frequencies --   1275.3396              1309.3078              1322.6329
 Red. masses --      2.1884                 1.9773                 2.1090
 Frc consts  --      2.0971                 1.9972                 2.1738
 IR Inten    --      4.8814                11.5301                 3.9965

                     61                     62                     63
                      A                      A                      A
 Frequencies --   1380.5963              1391.0354              1408.4003
 Red. masses --      1.4966                 1.6248                 1.2184
 Frc consts  --      1.6806                 1.8523                 1.4240
 IR Inten    --     39.7464                 2.0770                 4.9122

                     64                     65                     66
                      A                      A                      A
 Frequencies --   1424.1510              1427.3687              1429.6597
 Red. masses --      1.2490                 1.3072                 1.2717
 Frc consts  --      1.4926                 1.5691                 1.5314
 IR Inten    --     13.1226                 9.7941                13.7790

                     67                     68                     69
                      A                      A                      A
 Frequencies --   1448.9647              1454.5554              1482.8353
 Red. masses --      1.6700                 1.3802                 3.0631
 Frc consts  --      2.0658                 1.7205                 3.9682
 IR Inten    --      2.6998                24.7904                83.8973

                     70                     71                     72
                      A                      A                      A
 Frequencies --   1500.6905              1504.5662              1511.9350
 Red. masses --      1.1948                 1.1061                 1.0912
 Frc consts  --      1.5854                 1.4753                 1.4696
 IR Inten    --      8.3562                 9.6389                 8.3881

                     73                     74                     75
                      A                      A                      A
 Frequencies --   1513.6135              1515.2642              1517.4312
 Red. masses --      1.0502                 1.0547                 1.0548
 Frc consts  --      1.4176                 1.4268                 1.4309
 IR Inten    --      0.2996                 1.4778                 6.4910

                     76                     77                     78
                      A                      A                      A
 Frequencies --   1518.6431              1533.5669              1536.8817
 Red. masses --      1.0477                 1.0584                 1.0744
 Frc consts  --      1.4237                 1.4666                 1.4952
 IR Inten    --      0.5051                 5.1564                 7.2405

                     79                     80                     81
                      A                      A                      A
 Frequencies --   1539.9057              1545.8854              1547.3144
 Red. masses --      1.0783                 1.0512                 1.1296
 Frc consts  --      1.5065                 1.4801                 1.5935
 IR Inten    --      2.6504                 7.1738                14.9293

                     82                     83                     84
                      A                      A                      A
 Frequencies --   1551.3960              1605.4085              1648.7554
 Red. masses --      1.0633                 6.1091                 5.3410
 Frc consts  --      1.5078                 9.2769                 8.5543
 IR Inten    --      5.3890                53.9932                39.6044

                     85                     86                     87
                      A                      A                      A
 Frequencies --   2959.1754              3025.2573              3041.7722
 Red. masses --      1.0732                 1.0367                 1.0367
 Frc consts  --      5.5372                 5.5902                 5.6512
 IR Inten    --     49.6802                55.4256                19.9862

                     88                     89                     90
                      A                      A                      A
 Frequencies --   3046.1361              3055.8560              3061.9716
 Red. masses --      1.0372                 1.0416                 1.0366
 Frc consts  --      5.6706                 5.7307                 5.7264
 IR Inten    --     31.0511                 2.6330                14.7947

                     91                     92                     93
                      A                      A                      A
 Frequencies --   3067.7410              3085.8540              3107.2224
 Red. masses --      1.0796                 1.0996                 1.1004
 Frc consts  --      5.9861                 6.1692                 6.2598
 IR Inten    --     23.4720                52.2750                 3.9006

                     94                     95                     96
                      A                      A                      A
 Frequencies --   3110.8478              3113.1426              3115.7011
 Red. masses --      1.0873                 1.0993                 1.1019
 Frc consts  --      6.1994                 6.2770                 6.3023
 IR Inten    --      9.6362                51.3352                 2.8678

                     97                     98                     99
                      A                      A                      A
 Frequencies --   3122.0274              3127.1628              3131.3100
 Red. masses --      1.1007                 1.1018                 1.1036
 Frc consts  --      6.3212                 6.3485                 6.3757
 IR Inten    --     77.8490                31.4752                 3.2190

                    100                    101                    102
                      A                      A                      A
 Frequencies --   3133.6582              3137.3648              3153.1559
 Red. masses --      1.1023                 1.1029                 1.0921
 Frc consts  --      6.3776                 6.3960                 6.3974
 IR Inten    --     33.0961                51.1487                42.7249

                    103                    104                    105
                      A                      A                      A
 Frequencies --   3154.4258              3194.5992              3476.5351
 Red. masses --      1.0996                 1.0912                 1.0738
 Frc consts  --      6.4467                 6.5614                 7.6465
 IR Inten    --      4.8737                11.8250                 0.6472

 - Thermochemistry -
 -------------------
 Temperature   298.150 Kelvin.  Pressure   1.00000 Atm.
 Atom     1 has atomic number  6 and mass  12.00000

 Molecular mass:   223.16846 amu.
 Principal axes and moments of inertia in atomic units:
                           1         2         3
     Eigenvalues --  1235.633779645.760579651.75379
           X            0.99999  -0.00289   0.00430
           Y            0.00044   0.87411   0.48573
           Z           -0.00516  -0.48572   0.87410
 This molecule is an asymmetric top.
 Rotational symmetry number  1.
 Warning -- assumption of classical behavior for rotation
           may cause significant error
 Rotational temperatures (Kelvin)      0.07010     0.00898     0.00897
 Rotational constants (GHZ):           1.46058     0.18710     0.18699
 Zero-point vibrational energy     854934.1 (Joules/Mol)
                                  204.33416 (Kcal/Mol)
 Warning -- explicit consideration of  27 degrees of freedom as
           vibrations may cause significant error
 Vibrational temperatures:     24.77    34.90    60.53    79.51   126.78
          (Kelvin)            138.72   164.02   253.44   278.68   291.34
                              315.45   329.95   388.57   396.00   403.99
                              444.33   459.11   496.17   503.89   532.18
                              570.30   603.21   656.17   681.19   713.69
                              774.41   794.24   944.26   964.68  1076.89
                             1100.27  1136.22  1213.54  1228.65  1263.83
                             1326.53  1342.62  1365.78  1371.57  1398.28
                             1442.37  1451.99  1471.44  1522.81  1529.06
                             1538.33  1548.23  1609.07  1632.94  1684.98
                             1717.84  1767.57  1778.05  1796.47  1803.47
                             1818.05  1832.81  1834.93  1883.80  1902.97
                             1986.37  2001.39  2026.37  2049.04  2053.67
                             2056.96  2084.74  2092.78  2133.47  2159.16
                             2164.74  2175.34  2177.75  2180.13  2183.25
                             2184.99  2206.46  2211.23  2215.58  2224.18
                             2226.24  2232.11  2309.82  2372.19  4257.59
                             4352.67  4376.43  4382.71  4396.70  4405.49
                             4413.80  4439.86  4470.60  4475.82  4479.12
                             4482.80  4491.90  4499.29  4505.26  4508.64
                             4513.97  4536.69  4538.52  4596.32  5001.96

 Zero-point correction=                           0.325627 (Hartree/Particle)
 Thermal correction to Energy=                    0.343340
 Thermal correction to Enthalpy=                  0.344284
 Thermal correction to Gibbs Free Energy=         0.278282
 Sum of electronic and zero-point Energies=           -709.122474
 Sum of electronic and thermal Energies=              -709.104762
 Sum of electronic and thermal Enthalpies=            -709.103818
 Sum of electronic and thermal Free Energies=         -709.169819

                     E (Thermal)             CV                S
                      KCal/Mol        Cal/Mol-Kelvin    Cal/Mol-Kelvin
 Total                  215.449             65.599            138.912
 Electronic               0.000              0.000              0.000
 Translational            0.889              2.981             42.111
 Rotational               0.889              2.981             33.108
 Vibrational            213.671             59.638             63.693
 Vibration     1          0.593              1.986              6.932
 Vibration     2          0.593              1.985              6.251
 Vibration     3          0.595              1.980              5.159
 Vibration     4          0.596              1.975              4.620
 Vibration     5          0.601              1.958              3.701
 Vibration     6          0.603              1.952              3.525
 Vibration     7          0.607              1.938              3.200
 Vibration     8          0.628              1.872              2.369
 Vibration     9          0.635              1.849              2.192
 Vibration    10          0.639              1.836              2.110
 Vibration    11          0.647              1.812              1.965
 Vibration    12          0.652              1.796              1.884
 Vibration    13          0.674              1.728              1.596
 Vibration    14          0.677              1.719              1.563
 Vibration    15          0.680              1.709              1.529
 Vibration    16          0.698              1.657              1.369
 Vibration    17          0.705              1.637              1.315
 Vibration    18          0.723              1.586              1.190
 Vibration    19          0.727              1.575              1.165
 Vibration    20          0.742              1.534              1.080
 Vibration    21          0.763              1.478              0.976
 Vibration    22          0.782              1.428              0.895
 Vibration    23          0.814              1.347              0.778
 Vibration    24          0.830              1.309              0.728
 Vibration    25          0.852              1.259              0.668
 Vibration    26          0.893              1.165              0.569
 Vibration    27          0.907              1.135              0.540

 Optimization completed.
    -- Stationary point found.
 Normal termination of Gaussian 16 at Thu Dec 10 23:58:24 2020.

 ----------------------------------------------------------------------
 # B3LYP/6-311++G(d,p) empiricaldispersion=gd3bj scf=xqc pop=npa geom=c
 heck
 ----------------------------------------------------------------------

 --------------------------------------
 CID_79605044_JID_6588_Energie_neutraal
 --------------------------------------
 Structure from the checkpoint file:  "JID_6588.chk"
 Charge =  0 Multiplicity = 1

 SCF Done:  E(RB3LYP) =  -709.645839556     A.U. after   14 cycles
 Normal termination of Gaussian 16 at Fri Dec 11 00:03:24 2020.

 ----------------------------------------------------------------------
 # B3LYP/6-311++G(d,p) empiricaldispersion=gd3bj scf=xqc pop=npa geom=c
 heck
 ----------------------------------------------------------------------

 ------------------------------------
 CID_79605044_JID_6588_Energie_kation
 ------------------------------------
 Structure from the checkpoint file:  "JID_6588.chk"
 Charge =  1 Multiplicity = 2

 SCF Done:  E(UB3LYP) =  -709.343675326     A.U. after   29 cycles
 Normal termination of Gaussian 16 at Fri Dec 11 00:17:53 2020.
 Gaussian 16:  ES64L-G16RevA.03 25-Dec-2016

 ----------------------------------------------------------------------
 # B3LYP/6-311++G(d,p) empiricaldispersion=gd3bj scf=xqc pop=npa geom=c
 heck
 ----------------------------------------------------------------------

 -----------------------------------
 CID_79605044_JID_6588_Energie_anion
 -----------------------------------
 Structure from the checkpoint file:  "JID_6588.chk"
 Charge = -1 Multiplicity = 2

                         Standard orientation:
 ---------------------------------------------------------------------
 Center     Atomic      Atomic             Coordinates (Angstroms)
 Number     Number       Type             X           Y           Z
 ---------------------------------------------------------------------
      1          6           0        4.672045   -1.038277    0.574300
      2          6           0        3.780867   -0.484207   -0.535366
      3          6           0        2.310976   -0.450028   -0.146179
      4          7           0        1.990516    0.041331    1.060237
      5          6           0        0.687733    0.103622    1.355150
      6          6           0       -0.311610   -0.329552    0.486420
      7          6           0        0.141194   -0.819925   -0.743283
      8          7           0        1.434624   -0.882956   -1.067547
      9          6           0       -1.776758   -0.285186    0.843730
     10          7           0       -2.560155    0.177230   -0.298576
     11          6           0       -4.033482    0.181323   -0.162754
     12          6           0       -4.523534    0.996570    1.050641
     13          6           0       -4.571996    0.810161   -1.455468
     14          6           0       -4.533613   -1.267437   -0.060339
     15          8           0        4.199677    0.796620   -1.022297
     16          6           0        4.345538    1.828298   -0.060358
     17          1           0        4.528593   -0.497683    1.512887
     18          1           0        5.722651   -0.973729    0.273312
     19          1           0        4.427010   -2.090678    0.755044
     20          1           0        3.849971   -1.122447   -1.419354
     21          1           0        0.431210    0.517114    2.331046
     22          1           0       -0.575474   -1.158537   -1.487994
     23          1           0       -2.113459   -1.297387    1.098075
     24          1           0       -1.901685    0.318176    1.760628
     25          1           0       -2.253307    1.119218   -0.538948
     26          1           0       -4.159240    2.029954    0.997155
     27          1           0       -5.618393    1.028006    1.083927
     28          1           0       -4.177932    0.562834    1.995228
     29          1           0       -4.221567    0.248038   -2.326651
     30          1           0       -5.666857    0.818764   -1.457948
     31          1           0       -4.230031    1.848023   -1.557965
     32          1           0       -4.139656   -1.862868   -0.890003
     33          1           0       -4.231113   -1.741978    0.879342
     34          1           0       -5.627724   -1.293016   -0.099641
     35          1           0        3.422509    2.008228    0.503819
     36          1           0        5.153081    1.618380    0.654729
     37          1           0        4.604938    2.727226   -0.626072
 ---------------------------------------------------------------------

 SCF Done:  E(UB3LYP) =  -709.642778642     A.U. after   33 cycles
 SCF Done:  E(UB3LYP) =  -709.642778642     a.u. after    1 cycles

 The electronic state is 2-A.
 Alpha  occ. eigenvalues --  -19.02134 -14.19050 -14.17992 -14.17574 -10.11648
 Alpha  occ. eigenvalues --  -10.10997 -10.10886 -10.10777 -10.09006 -10.08350
 Alpha  occ. eigenvalues --  -10.06811 -10.06453 -10.06311 -10.05916 -10.05610
 Alpha  occ. eigenvalues --  -10.05570  -0.93040  -0.85324  -0.80825  -0.75485
 Alpha  occ. eigenvalues --   -0.70153  -0.67608  -0.64473  -0.59411  -0.59253
 Alpha  occ. eigenvalues --   -0.58797  -0.56794  -0.52920  -0.51358  -0.47038
 Alpha  occ. eigenvalues --   -0.45158  -0.40841  -0.40093  -0.38211  -0.37878
 Alpha  occ. eigenvalues --   -0.36008  -0.35538  -0.34824  -0.33638  -0.32664
 Alpha  occ. eigenvalues --   -0.31602  -0.31367  -0.30040  -0.29896  -0.29289
 Alpha  occ. eigenvalues --   -0.28433  -0.27980  -0.27583  -0.26726  -0.26630
 Alpha  occ. eigenvalues --   -0.25925  -0.25233  -0.23766  -0.22971  -0.21203
 Alpha  occ. eigenvalues --   -0.19202  -0.18696  -0.15448  -0.14688  -0.12580
 Alpha  occ. eigenvalues --   -0.11808   0.04325
 Alpha virt. eigenvalues --    0.06175   0.07177   0.08001   0.08233   0.08821
 Alpha virt. eigenvalues --    0.08902   0.09152   0.09912   0.10428   0.10554
 Alpha virt. eigenvalues --    0.11002   0.11062   0.11896   0.12001   0.12629

  Beta  occ. eigenvalues --  -19.02128 -14.19044 -14.17899 -14.17272 -10.11650
  Beta  occ. eigenvalues --  -10.11002 -10.10884 -10.10777 -10.08990 -10.08214
  Beta  occ. eigenvalues --  -10.06481 -10.06453 -10.06371 -10.05892 -10.05579
  Beta  occ. eigenvalues --  -10.05535  -0.93026  -0.84976  -0.80807  -0.75003
  Beta  occ. eigenvalues --   -0.70057  -0.67556  -0.64358  -0.59377  -0.59217
  Beta  occ. eigenvalues --   -0.58735  -0.56690  -0.52397  -0.51281  -0.46927
  Beta  occ. eigenvalues --   -0.45099  -0.40727  -0.39987  -0.38164  -0.37819
  Beta  occ. eigenvalues --   -0.35953  -0.35489  -0.34767  -0.33560  -0.32594
  Beta  occ. eigenvalues --   -0.31566  -0.31223  -0.30019  -0.29789  -0.28925
  Beta  occ. eigenvalues --   -0.28248  -0.27924  -0.27402  -0.26669  -0.26509
  Beta  occ. eigenvalues --   -0.25818  -0.25170  -0.23723  -0.22935  -0.21166
  Beta  occ. eigenvalues --   -0.18622  -0.17634  -0.15148  -0.14190  -0.12427
  Beta  occ. eigenvalues --   -0.11645
  Beta virt. eigenvalues --    0.06652   0.07166   0.08421   0.08484   0.08938
  Beta virt. eigenvalues --    0.09042   0.09158   0.09473   0.09990   0.10578
  Beta virt. eigenvalues --    0.10781   0.11103   0.11235   0.11998   0.12129

 Mulliken charges and spin densities:
               1          2
     1  C   -0.576995  -0.000573
     2  C   -0.386021   0.028015
     3  C   -0.319868  -0.070829
     4  N   -0.032095   0.131760
     5  C   -0.822007   0.613422
     6  C    0.853874  -0.461403
     7  C   -0.022418   0.151169
     8  N    0.009081   0.040955
     9  C   -0.186303  -0.476304
    10  N    0.299252  -0.104415
    11  C   -1.778561   1.653388
    12  C    0.982244  -1.524608
    13  C   -0.086371  -0.298018
    14  C    0.895993  -1.312732
    15  O   -0.106357  -0.002081
    16  C   -0.301930  -0.004790
    17  H    0.170713   0.000695
    18  H    0.128752   0.000132
    19  H    0.128734   0.000534
    20  H    0.209014   0.001236
    21  H   -0.040089   0.181827
    22  H    0.176373   0.039889
    23  H    0.031468   0.116048
    24  H    0.215426  -0.077560
    25  H    0.222444  -0.017075
    26  H   -0.219197   0.366405
    27  H   -0.228299   0.379297
    28  H   -0.201423   0.347243
    29  H    0.075379   0.083226
    30  H   -0.069327   0.201298
    31  H   -0.110362   0.242000
    32  H    0.037142   0.109495
    33  H   -0.133612   0.276043
    34  H   -0.224835   0.380090
    35  H    0.169626   0.004412
    36  H    0.113049  -0.000431
    37  H    0.127503   0.002242
 Sum of Mulliken charges =  -1.00000   1.00000

 Dipole moment (field-independent basis, Debye):
    X=              5.8543    Y=             -0.1903    Z=              0.8708  Tot=              5.9217
 Quadrupole moment (field-independent basis, Debye-Ang):
   XX=           -193.1519   YY=           -122.8957   ZZ=           -126.2822
   XY=              2.9538   XZ=              8.4182   YZ=             -2.7567

 Summary of Natural Population Analysis:

                                       Natural Population
                Natural  -----------------------------------------------
    Atom  No    Charge         Core      Valence    Rydberg      Total
 -----------------------------------------------------------------------
      C    1   -0.30136      0.99965     2.29775    0.00396     3.30136
      C    2    0.05188      0.99951     1.93508    0.01353     2.94812
      C    3    0.19457      0.99958     1.78480    0.02105     2.80543
      N    4   -0.23001      0.99967     2.71937    0.01097     3.73001
      C    5    0.06230      0.99954     1.92319    0.01498     2.93770
      C    6   -0.06944      0.99949     2.06058    0.00937     3.06944
      C    7    0.10486      0.99954     1.88237    0.01324     2.89514
      N    8   -0.24032      0.99968     2.73024    0.01040     3.74032
      C    9   -0.09208      0.99959     2.08284    0.00965     3.09208
      N   10   -0.34281      0.99972     2.83192    0.01118     3.84281
      C   11    0.05431      0.99960     1.93370    0.01239     2.94569
      C   12   -0.29507      0.99962     2.28849    0.00695     3.29507
      C   13   -0.28481      0.99962     2.27804    0.00715     3.28481
      C   14   -0.28980      0.99961     2.28312    0.00707     3.28980
      O   15   -0.29896      0.99989     3.28916    0.00991     4.29896
      C   16   -0.10360      0.99961     2.09535    0.00864     3.10360
      H   17    0.10714      0.00000     0.39189    0.00097     0.39286
      H   18    0.09468      0.00000     0.40431    0.00101     0.40532
      H   19    0.10213      0.00000     0.39711    0.00076     0.39787
      H   20    0.09710      0.00000     0.40149    0.00141     0.40290
      H   21    0.08328      0.00000     0.41524    0.00148     0.41672
      H   22    0.09040      0.00000     0.40789    0.00171     0.40960
      H   23    0.09744      0.00000     0.40117    0.00140     0.40256
      H   24    0.08192      0.00000     0.41531    0.00277     0.41808
      H   25    0.17280      0.00000     0.32462    0.00259     0.32720
      H   26    0.09999      0.00000     0.39871    0.00131     0.40001
      H   27    0.10091      0.00000     0.39791    0.00118     0.39909
      H   28    0.09962      0.00000     0.39923    0.00115     0.40038
      H   29    0.10329      0.00000     0.39573    0.00098     0.39671
      H   30    0.09998      0.00000     0.39915    0.00087     0.40002
      H   31    0.09762      0.00000     0.40150    0.00088     0.40238
      H   32    0.10402      0.00000     0.39494    0.00103     0.39598
      H   33    0.09901      0.00000     0.40000    0.00099     0.40099
      H   34    0.10054      0.00000     0.39845    0.00101     0.39946
      H   35    0.09245      0.00000     0.40615    0.00140     0.40755
      H   36    0.07281      0.00000     0.42584    0.00135     0.42719
      H   37    0.08323      0.00000     0.41593    0.00084     0.41677
 =======================================================================
   * Total *   -0.00000     15.99392    44.80857    0.19751    61.00000

 Normal termination of Gaussian 16 at Fri Dec 11 00:33:54 2020.
