 Gaussian 16, Revision A.03,

 -----------------------------------------------------------
 # opt freq B3LYP/6-31G(d) empiricaldispersion=gd3bj scf=xqc
 -----------------------------------------------------------

 ------------------------------
 CID_10777392_JID_9410_neutraal
 ------------------------------
 Symbolic Z-matrix:
 Charge =  0 Multiplicity = 1

 SCF Done:  E(RB3LYP) =  -856.082890150     A.U. after   15 cycles
 SCF Done:  E(RB3LYP) =  -856.088076427     A.U. after   13 cycles
 SCF Done:  E(RB3LYP) =  -856.087987496     A.U. after   13 cycles
 SCF Done:  E(RB3LYP) =  -856.089451573     A.U. after   13 cycles
 SCF Done:  E(RB3LYP) =  -856.090855061     A.U. after   13 cycles
 SCF Done:  E(RB3LYP) =  -856.091780874     A.U. after   13 cycles
 SCF Done:  E(RB3LYP) =  -856.092423040     A.U. after   12 cycles
 SCF Done:  E(RB3LYP) =  -856.092850696     A.U. after   12 cycles
 SCF Done:  E(RB3LYP) =  -856.093568133     A.U. after   14 cycles
 SCF Done:  E(RB3LYP) =  -856.094722199     A.U. after   13 cycles
 SCF Done:  E(RB3LYP) =  -856.095853754     A.U. after   12 cycles
 SCF Done:  E(RB3LYP) =  -856.095861855     A.U. after   10 cycles
 SCF Done:  E(RB3LYP) =  -856.095863598     A.U. after    8 cycles
 SCF Done:  E(RB3LYP) =  -856.095864177     A.U. after    7 cycles
 SCF Done:  E(RB3LYP) =  -856.095864292     A.U. after    7 cycles
 Optimization completed.
    -- Stationary point found.
 Normal termination of Gaussian 16 at Sun Dec 13 12:49:07 2020.

 --------------------------------------------------------------------
 #N Geom=AllCheck Guess=TCheck SCRF=Check GenChk RB3LYP/6-31G(d) Freq
 --------------------------------------------------------------------

 Structure from the checkpoint file:  "JID_9410.chk"
 ------------------------------
 CID_10777392_JID_9410_neutraal
 ------------------------------
 Charge =  0 Multiplicity = 1

 SCF Done:  E(RB3LYP) =  -856.095864292     A.U. after    1 cycles

  Exact polarizability: 196.719 -14.487 170.268 -16.502 -17.531 111.314
 Approx polarizability: 302.806 -32.315 284.628 -39.216 -39.695 196.151

                      1                      2                      3
                      A                      A                      A
 Frequencies --     33.6024                45.9178                69.1934
 Red. masses --      4.4471                 5.5985                 6.2844
 Frc consts  --      0.0030                 0.0070                 0.0177
 IR Inten    --      0.2969                 0.7004                 4.9080

                      4                      5                      6
                      A                      A                      A
 Frequencies --     85.8344                96.0765               135.9542
 Red. masses --      4.7847                 6.3589                 2.1301
 Frc consts  --      0.0208                 0.0346                 0.0232
 IR Inten    --      0.3711                 0.0712                 1.0311

                      7                      8                      9
                      A                      A                      A
 Frequencies --    163.1875               173.1966               198.6885
 Red. masses --      4.6447                 1.3776                 7.0169
 Frc consts  --      0.0729                 0.0243                 0.1632
 IR Inten    --      6.8662                 1.6747                 4.3207

                     10                     11                     12
                      A                      A                      A
 Frequencies --    226.6620               233.1928               266.5971
 Red. masses --      4.2842                 4.5279                 4.9810
 Frc consts  --      0.1297                 0.1451                 0.2086
 IR Inten    --      3.7266                 4.1003                 2.2440

                     13                     14                     15
                      A                      A                      A
 Frequencies --    301.0995               317.0888               340.2739
 Red. masses --      4.7134                 2.6332                 3.9480
 Frc consts  --      0.2518                 0.1560                 0.2693
 IR Inten    --      2.8997                 6.4337                21.6334

                     16                     17                     18
                      A                      A                      A
 Frequencies --    362.9676               407.1243               413.8783
 Red. masses --      2.9240                 2.6699                 2.5847
 Frc consts  --      0.2270                 0.2607                 0.2609
 IR Inten    --     29.5897                40.2727                19.7032

                     19                     20                     21
                      A                      A                      A
 Frequencies --    483.0583               529.2121               581.9196
 Red. masses --      3.7637                 4.8308                 4.3729
 Frc consts  --      0.5174                 0.7971                 0.8725
 IR Inten    --      4.6230                 1.3774                 7.1991

                     22                     23                     24
                      A                      A                      A
 Frequencies --    600.6554               627.3823               635.2834
 Red. masses --      4.9068                 3.6633                 3.9413
 Frc consts  --      1.0430                 0.8495                 0.9372
 IR Inten    --      1.0969                 3.4032                 4.2494

                     25                     26                     27
                      A                      A                      A
 Frequencies --    641.8767               677.7678               726.1667
 Red. masses --      4.5862                 3.9500                 1.2289
 Frc consts  --      1.1133                 1.0691                 0.3818
 IR Inten    --      9.6469                18.5740                18.4052

                     28                     29                     30
                      A                      A                      A
 Frequencies --    739.1635               752.1725               761.4525
 Red. masses --      3.8583                 4.8624                 1.9264
 Frc consts  --      1.2420                 1.6208                 0.6581
 IR Inten    --      4.4538                 2.3308                55.5185

                     31                     32                     33
                      A                      A                      A
 Frequencies --    774.0020               794.6969               802.6053
 Red. masses --      2.8280                 3.8343                 1.3676
 Frc consts  --      0.9982                 1.4267                 0.5191
 IR Inten    --     13.4101                12.6148                29.7947

                     34                     35                     36
                      A                      A                      A
 Frequencies --    813.9730               823.6296               839.8681
 Red. masses --      1.7808                 4.4034                 1.3162
 Frc consts  --      0.6951                 1.7600                 0.5470
 IR Inten    --      1.4199                 3.9413                 1.0031

                     37                     38                     39
                      A                      A                      A
 Frequencies --    858.8854               902.1487               926.5650
 Red. masses --      5.3275                 1.3900                 6.2894
 Frc consts  --      2.3155                 0.6665                 3.1813
 IR Inten    --      9.4845                 0.4946                13.2012

                     40                     41                     42
                      A                      A                      A
 Frequencies --    948.4414               959.4293               986.8791
 Red. masses --      5.6844                 1.2791                 1.8369
 Frc consts  --      3.0127                 0.6937                 1.0541
 IR Inten    --      6.7240                 0.7975                 3.5738

                     43                     44                     45
                      A                      A                      A
 Frequencies --   1056.1845              1058.6889              1083.2194
 Red. masses --      3.6943                 5.8143                 3.1857
 Frc consts  --      2.4281                 3.8396                 2.2023
 IR Inten    --     18.0974                33.7768                19.5328

                     46                     47                     48
                      A                      A                      A
 Frequencies --   1099.6233              1114.7309              1137.8592
 Red. masses --      1.3948                 1.8784                 1.6856
 Frc consts  --      0.9937                 1.3752                 1.2858
 IR Inten    --     29.2226                26.2965                 0.4774

                     49                     50                     51
                      A                      A                      A
 Frequencies --   1148.2042              1180.8955              1195.7667
 Red. masses --      2.0432                 1.4123                 1.2783
 Frc consts  --      1.5871                 1.1604                 1.0769
 IR Inten    --      8.5331                41.2906                 0.8511

                     52                     53                     54
                      A                      A                      A
 Frequencies --   1220.0182              1235.7379              1248.9037
 Red. masses --      1.5023                 1.5133                 2.1243
 Frc consts  --      1.3175                 1.3615                 1.9522
 IR Inten    --     12.1261                14.7241               157.1084

                     55                     56                     57
                      A                      A                      A
 Frequencies --   1264.4787              1274.2915              1305.6852
 Red. masses --      1.6083                 2.2188                 1.8365
 Frc consts  --      1.5151                 2.1228                 1.8447
 IR Inten    --      2.6653                18.7291                37.6582

                     58                     59                     60
                      A                      A                      A
 Frequencies --   1320.0907              1335.6016              1353.8563
 Red. masses --      2.4935                 2.5421                 3.4246
 Frc consts  --      2.5602                 2.6718                 3.6984
 IR Inten    --    276.2413                15.2220                41.0989

                     61                     62                     63
                      A                      A                      A
 Frequencies --   1390.4701              1397.6506              1400.7847
 Red. masses --      6.0614                 5.4561                 2.2683
 Frc consts  --      6.9047                 6.2796                 2.6223
 IR Inten    --     29.2694                 8.3426                 9.7819

                     64                     65                     66
                      A                      A                      A
 Frequencies --   1444.5789              1457.0070              1476.7753
 Red. masses --      2.0653                 4.4398                 2.0997
 Frc consts  --      2.5393                 5.5532                 2.6979
 IR Inten    --     43.0415                29.0306                13.0047

                     67                     68                     69
                      A                      A                      A
 Frequencies --   1492.5066              1505.3144              1516.6468
 Red. masses --      1.2234                 1.2023                 1.0651
 Frc consts  --      1.6056                 1.6051                 1.4435
 IR Inten    --     26.3400                22.8576                 1.5808

                     70                     71                     72
                      A                      A                      A
 Frequencies --   1534.9292              1543.2771              1551.6704
 Red. masses --      1.0504                 3.1038                 3.0815
 Frc consts  --      1.4581                 4.3555                 4.3713
 IR Inten    --      4.1646                20.3923                 5.8144

                     73                     74                     75
                      A                      A                      A
 Frequencies --   1557.1283              1610.6499              1628.7733
 Red. masses --      3.1249                 5.6480                 6.5706
 Frc consts  --      4.4642                 8.6327                10.2701
 IR Inten    --     35.3940                 9.3610                11.2348

                     76                     77                     78
                      A                      A                      A
 Frequencies --   1673.4132              1788.4002              3048.8134
 Red. masses --      6.2133                11.3458                 1.0698
 Frc consts  --     10.2512                21.3804                 5.8588
 IR Inten    --      9.5303               179.1301                47.1270

                     79                     80                     81
                      A                      A                      A
 Frequencies --   3078.9003              3136.6647              3163.6715
 Red. masses --      1.0286                 1.0938                 1.1086
 Frc consts  --      5.7451                 6.3405                 6.5374
 IR Inten    --     41.5541                 1.9522                 6.5103

                     82                     83                     84
                      A                      A                      A
 Frequencies --   3182.7219              3191.1220              3208.4404
 Red. masses --      1.1077                 1.0876                 1.0929
 Frc consts  --      6.6111                 6.5257                 6.6285
 IR Inten    --     14.7164                 4.9511                20.1917

                     85                     86                     87
                      A                      A                      A
 Frequencies --   3229.0681              3258.3633              3268.1434
 Red. masses --      1.0931                 1.0932                 1.0970
 Frc consts  --      6.7151                 6.8381                 6.9034
 IR Inten    --      7.2629                10.3215                 0.8009

                     88                     89                     90
                      A                      A                      A
 Frequencies --   3276.6804              3301.2338              3673.4083
 Red. masses --      1.0966                 1.1017                 1.0803
 Frc consts  --      6.9367                 7.0741                 8.5891
 IR Inten    --      0.5749                 1.8877                78.8819

 - Thermochemistry -
 -------------------
 Temperature   298.150 Kelvin.  Pressure   1.00000 Atm.
 Atom     1 has atomic number  6 and mass  12.00000

 Molecular mass:   255.10078 amu.
 Principal axes and moments of inertia in atomic units:
                           1         2         3
     Eigenvalues --  3061.431794940.489206742.72218
           X            0.99967  -0.02431  -0.00781
           Y            0.02422   0.99964  -0.01117
           Z            0.00808   0.01097   0.99991
 This molecule is an asymmetric top.
 Rotational symmetry number  1.
 Warning -- assumption of classical behavior for rotation
           may cause significant error
 Rotational temperatures (Kelvin)      0.02829     0.01753     0.01285
 Rotational constants (GHZ):           0.58951     0.36530     0.26766
 Zero-point vibrational energy     667987.6 (Joules/Mol)
                                  159.65288 (Kcal/Mol)
 Warning -- explicit consideration of  22 degrees of freedom as
           vibrations may cause significant error
 Vibrational temperatures:     48.35    66.07    99.55   123.50   138.23
          (Kelvin)            195.61   234.79   249.19   285.87   326.12
                              335.51   383.57   433.22   456.22   489.58
                              522.23   585.76   595.48   695.01   761.42
                              837.25   864.21   902.66   914.03   923.52
                              975.16  1044.79  1063.49  1082.21  1095.56
                             1113.62  1143.39  1154.77  1171.13  1185.02
                             1208.38  1235.74  1297.99  1333.12  1364.60
                             1380.40  1419.90  1519.61  1523.22  1558.51
                             1582.11  1603.85  1637.13  1652.01  1699.05
                             1720.44  1755.33  1777.95  1796.89  1819.30
                             1833.42  1878.59  1899.32  1921.63  1947.90
                             2000.58  2010.91  2015.42  2078.43  2096.31
                             2124.75  2147.38  2165.81  2182.12  2208.42
                             2220.43  2232.51  2240.36  2317.37  2343.44
                             2407.67  2573.11  4386.56  4429.85  4512.96
                             4551.82  4579.23  4591.31  4616.23  4645.91
                             4688.06  4702.13  4714.41  4749.74  5285.22

 Zero-point correction=                           0.254423 (Hartree/Particle)
 Thermal correction to Energy=                    0.270206
 Thermal correction to Enthalpy=                  0.271151
 Thermal correction to Gibbs Free Energy=         0.210587
 Sum of electronic and zero-point Energies=           -855.841441
 Sum of electronic and thermal Energies=              -855.825658
 Sum of electronic and thermal Enthalpies=            -855.824714
 Sum of electronic and thermal Free Energies=         -855.885277

                     E (Thermal)             CV                S
                      KCal/Mol        Cal/Mol-Kelvin    Cal/Mol-Kelvin
 Total                  169.557             60.945            127.466
 Electronic               0.000              0.000              0.000
 Translational            0.889              2.981             42.509
 Rotational               0.889              2.981             32.989
 Vibrational            167.780             54.983             51.968
 Vibration     1          0.594              1.983              5.605
 Vibration     2          0.595              1.979              4.986
 Vibration     3          0.598              1.969              4.176
 Vibration     4          0.601              1.959              3.753
 Vibration     5          0.603              1.952              3.532
 Vibration     6          0.614              1.917              2.860
 Vibration     7          0.623              1.888              2.513
 Vibration     8          0.627              1.875              2.401
 Vibration     9          0.637              1.842              2.145
 Vibration    10          0.650              1.800              1.905
 Vibration    11          0.654              1.790              1.854
 Vibration    12          0.672              1.734              1.618
 Vibration    13          0.693              1.672              1.411
 Vibration    14          0.704              1.641              1.325
 Vibration    15          0.720              1.595              1.211
 Vibration    16          0.737              1.549              1.109
 Vibration    17          0.772              1.455              0.937
 Vibration    18          0.777              1.440              0.913
 Vibration    19          0.839              1.288              0.702
 Vibration    20          0.884              1.185              0.589
 Vibration    21          0.939              1.070              0.482
 Vibration    22          0.959              1.030              0.449

                           ! Non-Optimized Parameters !
 Normal termination of Gaussian 16 at Sun Dec 13 13:06:17 2020.

 ----------------------------------------------------------------------
 # B3LYP/6-311++G(d,p) empiricaldispersion=gd3bj scf=xqc pop=npa geom=c
 heck
 ----------------------------------------------------------------------

 --------------------------------------
 CID_10777392_JID_9410_Energie_neutraal
 --------------------------------------
 Structure from the checkpoint file:  "JID_9410.chk"
 Charge =  0 Multiplicity = 1

 SCF Done:  E(RB3LYP) =  -856.325816250     A.U. after   16 cycles
 Normal termination of Gaussian 16 at Sun Dec 13 13:13:27 2020.

 ----------------------------------------------------------------------
 # B3LYP/6-311++G(d,p) empiricaldispersion=gd3bj scf=xqc pop=npa geom=c
 heck
 ----------------------------------------------------------------------

 ------------------------------------
 CID_10777392_JID_9410_Energie_kation
 ------------------------------------
 Structure from the checkpoint file:  "JID_9410.chk"
 Charge =  1 Multiplicity = 2

 SCF Done:  E(UB3LYP) =  -856.044276429     A.U. after   27 cycles
 Normal termination of Gaussian 16 at Sun Dec 13 13:30:53 2020.
 Gaussian 16:  ES64L-G16RevA.03 25-Dec-2016

 ----------------------------------------------------------------------
 # B3LYP/6-311++G(d,p) empiricaldispersion=gd3bj scf=xqc pop=npa geom=c
 heck
 ----------------------------------------------------------------------

 -----------------------------------
 CID_10777392_JID_9410_Energie_anion
 -----------------------------------
 Structure from the checkpoint file:  "JID_9410.chk"
 Charge = -1 Multiplicity = 2

                         Standard orientation:
 ---------------------------------------------------------------------
 Center     Atomic      Atomic             Coordinates (Angstroms)
 Number     Number       Type             X           Y           Z
 ---------------------------------------------------------------------
      1          6           0       -2.529761    2.642994    0.250339
      2          8           0       -1.174470    2.333634   -0.127527
      3          6           0       -0.542428    1.439011    0.654190
      4          8           0       -1.032549    0.958707    1.660301
      5          6           0        0.826897    1.136548    0.158187
      6          6           0        1.375360   -0.163273    0.262826
      7          6           0        2.729086   -0.348586   -0.141216
      8          6           0        3.528893    0.688150   -0.625640
      9          6           0        2.952291    1.946934   -0.735224
     10          6           0        1.616457    2.162962   -0.359196
     11          7           0        3.028679   -1.687627    0.012680
     12          6           0        1.908778   -2.352071    0.460579
     13          6           0        0.871874   -1.467254    0.635331
     14          6           0       -0.503515   -1.867535    1.070299
     15          7           0       -1.526073   -1.523647    0.078418
     16          6           0       -1.400392   -1.541940   -1.298245
     17          6           0       -2.603510   -1.091419   -1.783026
     18          7           0       -3.466204   -0.797680   -0.745990
     19          6           0       -2.786007   -1.071547    0.350104
     20          1           0       -2.817493    3.486653   -0.377416
     21          1           0       -2.582538    2.909497    1.308353
     22          1           0       -3.169656    1.780116    0.050257
     23          1           0        4.560551    0.512442   -0.917464
     24          1           0        3.540379    2.776569   -1.115086
     25          1           0        1.185906    3.153460   -0.452240
     26          1           0        3.912467   -2.116208   -0.212032
     27          1           0        1.926864   -3.420848    0.623557
     28          1           0       -0.521669   -2.949040    1.253673
     29          1           0       -0.786780   -1.354045    1.990889
     30          1           0       -0.483262   -1.848241   -1.775847
     31          1           0       -2.897788   -0.955708   -2.814920
     32          1           0       -3.129780   -0.928538    1.364478
 ---------------------------------------------------------------------

 SCF Done:  E(UB3LYP) =  -856.328814463     A.U. after   33 cycles
 SCF Done:  E(UB3LYP) =  -856.328814463     a.u. after    1 cycles

 The electronic state is 2-A.
 Alpha  occ. eigenvalues --  -19.04118 -18.97234 -14.25886 -14.23614 -14.18679
 Alpha  occ. eigenvalues --  -10.15911 -10.11156 -10.11145 -10.10952 -10.08695
 Alpha  occ. eigenvalues --  -10.08294 -10.08292 -10.07591 -10.05404 -10.05029
 Alpha  occ. eigenvalues --  -10.04550 -10.04501 -10.04174 -10.04073  -0.98001
 Alpha  occ. eigenvalues --   -0.90884  -0.88817  -0.86235  -0.77857  -0.72208
 Alpha  occ. eigenvalues --   -0.68017  -0.64528  -0.63734  -0.61420  -0.60243
 Alpha  occ. eigenvalues --   -0.58348  -0.51422  -0.49240  -0.47948  -0.47392
 Alpha  occ. eigenvalues --   -0.46611  -0.44855  -0.42330  -0.41474  -0.38161
 Alpha  occ. eigenvalues --   -0.37338  -0.36303  -0.35300  -0.35101  -0.34572
 Alpha  occ. eigenvalues --   -0.33272  -0.32067  -0.31199  -0.30784  -0.30444
 Alpha  occ. eigenvalues --   -0.30106  -0.29276  -0.28528  -0.27383  -0.27180
 Alpha  occ. eigenvalues --   -0.24584  -0.23790  -0.22883  -0.21539  -0.18743
 Alpha  occ. eigenvalues --   -0.17422  -0.16872  -0.15722  -0.14970  -0.12301
 Alpha  occ. eigenvalues --   -0.11112  -0.09566   0.04168
 Alpha virt. eigenvalues --    0.06397   0.08078   0.08187   0.09157   0.09552
 Alpha virt. eigenvalues --    0.09810   0.11066   0.11357   0.11644   0.11814
 Alpha virt. eigenvalues --    0.12179   0.12740   0.13133   0.13748   0.14489

  Beta  occ. eigenvalues --  -19.04062 -18.97064 -14.25887 -14.23561 -14.18678
  Beta  occ. eigenvalues --  -10.15766 -10.11154 -10.11147 -10.10950 -10.08692
  Beta  occ. eigenvalues --  -10.08335 -10.08130 -10.07591 -10.05424 -10.04957
  Beta  occ. eigenvalues --  -10.04492 -10.04376 -10.04006 -10.03925  -0.97813
  Beta  occ. eigenvalues --   -0.90881  -0.88554  -0.86099  -0.77856  -0.71943
  Beta  occ. eigenvalues --   -0.67888  -0.64343  -0.63594  -0.61268  -0.60094
  Beta  occ. eigenvalues --   -0.58189  -0.50998  -0.49211  -0.47814  -0.47360
  Beta  occ. eigenvalues --   -0.46441  -0.44809  -0.42198  -0.41418  -0.38003
  Beta  occ. eigenvalues --   -0.37116  -0.36179  -0.35171  -0.34963  -0.34390
  Beta  occ. eigenvalues --   -0.33254  -0.32024  -0.31000  -0.30624  -0.30387
  Beta  occ. eigenvalues --   -0.29974  -0.29172  -0.28405  -0.27125  -0.26855
  Beta  occ. eigenvalues --   -0.24494  -0.23675  -0.22709  -0.20895  -0.18190
  Beta  occ. eigenvalues --   -0.17321  -0.16803  -0.15328  -0.14652  -0.12259
  Beta  occ. eigenvalues --   -0.10409  -0.08753
  Beta virt. eigenvalues --    0.07425   0.08173   0.08368   0.08606   0.09304
  Beta virt. eigenvalues --    0.09495   0.10044   0.11109   0.11626   0.11790
  Beta virt. eigenvalues --    0.11878   0.12307   0.12941   0.13116   0.13987

 Mulliken charges and spin densities:
               1          2
     1  C   -0.226648  -0.000544
     2  O    0.005954   0.010042
     3  C   -0.456050  -0.080259
     4  O   -0.250056   0.055471
     5  C    0.535014   0.023687
     6  C    0.757575  -0.304846
     7  C    0.155099  -0.321988
     8  C   -0.375105   0.266076
     9  C   -0.203755  -0.118777
    10  C   -0.607319   0.314690
    11  N   -0.167815   0.045990
    12  C   -0.041605  -0.102576
    13  C    0.795959  -0.346685
    14  C   -0.860760  -0.017878
    15  N    0.148496   0.011973
    16  C    0.058545  -0.009126
    17  C   -0.306583  -0.076236
    18  N   -0.111089   0.004866
    19  C   -0.331238  -0.010230
    20  H    0.138580   0.000649
    21  H    0.148646   0.001919
    22  H    0.169942   0.002245
    23  H   -0.155827   0.261339
    24  H    0.148343  -0.023633
    25  H    0.120012   0.007845
    26  H   -0.351557   0.672801
    27  H   -0.514328   0.649370
    28  H    0.175961  -0.010228
    29  H    0.214104   0.001088
    30  H    0.095745   0.095778
    31  H    0.129371  -0.001692
    32  H    0.162389  -0.001135
 Sum of Mulliken charges =  -1.00000   1.00000

 Dipole moment (field-independent basis, Debye):
    X=             -3.8696    Y=              2.1484    Z=              1.2446  Tot=              4.5976
 Quadrupole moment (field-independent basis, Debye-Ang):
   XX=           -170.4433   YY=           -139.0287   ZZ=           -127.4234
   XY=              7.4574   XZ=              0.4248   YZ=             -6.1489

 Summary of Natural Population Analysis:

                                       Natural Population
                Natural  -----------------------------------------------
    Atom  No    Charge         Core      Valence    Rydberg      Total
 -----------------------------------------------------------------------
      C    1   -0.10946      0.99960     2.10174    0.00812     3.10946
      O    2   -0.27437      0.99986     3.26646    0.00805     4.27437
      C    3    0.42426      0.99963     1.55291    0.02320     2.57574
      O    4   -0.31255      0.99987     3.30697    0.00572     4.31255
      C    5   -0.04027      0.99942     2.02835    0.01249     3.04027
      C    6   -0.01873      0.99944     2.00928    0.01002     3.01873
      C    7    0.06992      0.99948     1.91838    0.01222     2.93008
      C    8   -0.07149      0.99952     2.06191    0.01006     3.07149
      C    9   -0.11187      0.99958     2.10306    0.00923     3.11187
      C   10   -0.08283      0.99955     2.07565    0.00763     3.08283
      N   11   -0.26932      0.99966     2.75918    0.01049     3.76932
      C   12    0.03678      0.99950     1.95058    0.01314     2.96322
      C   13   -0.07762      0.99948     2.06781    0.01033     3.07762
      C   14   -0.08773      0.99957     2.07732    0.01083     3.08773
      N   15   -0.20294      0.99964     2.69261    0.01069     3.70294
      C   16   -0.03552      0.99956     2.02286    0.01310     3.03552
      C   17   -0.04231      0.99960     2.02987    0.01284     3.04231
      N   18   -0.26829      0.99973     2.75756    0.01101     3.76829
      C   19    0.11000      0.99965     1.87461    0.01575     2.89000
      H   20    0.08334      0.00000     0.41586    0.00080     0.41666
      H   21    0.08755      0.00000     0.41127    0.00117     0.41245
      H   22    0.09842      0.00000     0.40000    0.00158     0.40158
      H   23    0.09541      0.00000     0.40366    0.00092     0.40459
      H   24    0.09301      0.00000     0.40617    0.00083     0.40699
      H   25    0.09899      0.00000     0.40004    0.00097     0.40101
      H   26    0.20184      0.00000     0.28800    0.01016     0.29816
      H   27    0.09620      0.00000     0.40268    0.00112     0.40380
      H   28    0.09433      0.00000     0.40466    0.00101     0.40567
      H   29    0.11621      0.00000     0.38265    0.00114     0.38379
      H   30    0.11086      0.00000     0.38801    0.00113     0.38914
      H   31    0.09294      0.00000     0.40616    0.00090     0.40706
      H   32    0.09525      0.00000     0.40367    0.00108     0.40475
 =======================================================================
   * Total *   -0.00000     18.99234    47.76994    0.23772    67.00000

 Normal termination of Gaussian 16 at Sun Dec 13 13:51:00 2020.
