 Gaussian 16, Revision A.03,

 -----------------------------------------------------------
 # opt freq B3LYP/6-31G(d) empiricaldispersion=gd3bj scf=xqc
 -----------------------------------------------------------

 -------------------------------
 CID_130584685_JID_2439_neutraal
 -------------------------------
 Symbolic Z-matrix:
 Charge =  0 Multiplicity = 1

 SCF Done:  E(RB3LYP) =  -541.175138011     A.U. after   14 cycles
 SCF Done:  E(RB3LYP) =  -541.177643510     A.U. after   13 cycles
 SCF Done:  E(RB3LYP) =  -541.175551501     A.U. after   13 cycles
 SCF Done:  E(RB3LYP) =  -541.179817005     A.U. after   13 cycles
 SCF Done:  E(RB3LYP) =  -541.180208275     A.U. after   12 cycles
 SCF Done:  E(RB3LYP) =  -541.180803107     A.U. after   14 cycles
 SCF Done:  E(RB3LYP) =  -541.180929004     A.U. after   12 cycles
 SCF Done:  E(RB3LYP) =  -541.180983031     A.U. after   12 cycles
 SCF Done:  E(RB3LYP) =  -541.181071961     A.U. after   12 cycles
 SCF Done:  E(RB3LYP) =  -541.181071171     A.U. after   11 cycles
 SCF Done:  E(RB3LYP) =  -541.181133157     A.U. after    9 cycles
 SCF Done:  E(RB3LYP) =  -541.181133563     A.U. after    9 cycles
 SCF Done:  E(RB3LYP) =  -541.181133734     A.U. after    7 cycles
 SCF Done:  E(RB3LYP) =  -541.181133810     A.U. after    8 cycles
 SCF Done:  E(RB3LYP) =  -541.181133825     A.U. after    7 cycles
 Optimization completed.
    -- Stationary point found.
 Normal termination of Gaussian 16 at Wed Dec  9 17:29:35 2020.

 --------------------------------------------------------------------
 #N Geom=AllCheck Guess=TCheck SCRF=Check GenChk RB3LYP/6-31G(d) Freq
 --------------------------------------------------------------------

 Structure from the checkpoint file:  "JID_2439.chk"
 -------------------------------
 CID_130584685_JID_2439_neutraal
 -------------------------------
 Charge =  0 Multiplicity = 1

 SCF Done:  E(RB3LYP) =  -541.181133825     A.U. after    1 cycles

  Exact polarizability: 116.444   0.392 101.776   1.833   0.913  88.765
 Approx polarizability: 151.795  -0.137 138.346   7.234   1.689 143.481

                      1                      2                      3
                      A                      A                      A
 Frequencies --     24.2071                53.4766                87.0241
 Red. masses --      2.1531                 6.2803                 2.5801
 Frc consts  --      0.0007                 0.0106                 0.0115
 IR Inten    --      0.0289                 4.4651                 4.1186

                      4                      5                      6
                      A                      A                      A
 Frequencies --    115.3037               168.6165               193.2382
 Red. masses --      3.7268                 2.4264                 2.5122
 Frc consts  --      0.0292                 0.0406                 0.0553
 IR Inten    --      4.0013                 0.2374                 1.6982

                      7                      8                      9
                      A                      A                      A
 Frequencies --    255.6970               270.9784               297.5812
 Red. masses --      1.2039                 3.1093                 2.5798
 Frc consts  --      0.0464                 0.1345                 0.1346
 IR Inten    --      1.0296                 8.0398                 0.0506

                     10                     11                     12
                      A                      A                      A
 Frequencies --    330.3716               371.4100               429.4494
 Red. masses --      2.0904                 2.5343                 2.9914
 Frc consts  --      0.1344                 0.2060                 0.3250
 IR Inten    --      0.4674                 0.1042                 2.5701

                     13                     14                     15
                      A                      A                      A
 Frequencies --    469.0729               502.0811               593.8603
 Red. masses --      3.1286                 3.1824                 2.7619
 Frc consts  --      0.4056                 0.4727                 0.5739
 IR Inten    --      9.9873                 3.1689                 0.4836

                     16                     17                     18
                      A                      A                      A
 Frequencies --    611.9965               678.1318               700.6244
 Red. masses --      2.1515                 2.9334                 4.1455
 Frc consts  --      0.4748                 0.7948                 1.1989
 IR Inten    --      2.3430                 1.9097                 8.6650

                     19                     20                     21
                      A                      A                      A
 Frequencies --    752.9578               814.5516               828.8642
 Red. masses --      2.6569                 2.8642                 1.7390
 Frc consts  --      0.8875                 1.1197                 0.7039
 IR Inten    --      3.2173                 5.7862                 3.3388

                     22                     23                     24
                      A                      A                      A
 Frequencies --    861.4340               872.5615               880.3850
 Red. masses --      1.8546                 2.2979                 1.8887
 Frc consts  --      0.8109                 1.0308                 0.8625
 IR Inten    --      7.1591                10.1480                 9.4393

                     25                     26                     27
                      A                      A                      A
 Frequencies --    922.8521               936.5312               964.4967
 Red. masses --      2.4026                 1.9679                 1.6745
 Frc consts  --      1.2056                 1.0170                 0.9178
 IR Inten    --      1.0981                11.4805                 6.5534

                     28                     29                     30
                      A                      A                      A
 Frequencies --    992.0663              1007.7388              1012.6549
 Red. masses --      1.8529                 1.8013                 2.0930
 Frc consts  --      1.0744                 1.0778                 1.2646
 IR Inten    --      1.3195                 0.0231                 1.6822

                     31                     32                     33
                      A                      A                      A
 Frequencies --   1048.6810              1060.0411              1072.5928
 Red. masses --      1.5332                 1.5546                 2.7811
 Frc consts  --      0.9934                 1.0292                 1.8851
 IR Inten    --      5.2222                 2.5504                41.7072

                     34                     35                     36
                      A                      A                      A
 Frequencies --   1094.8439              1097.4433              1140.3068
 Red. masses --      3.3553                 2.3570                 2.2000
 Frc consts  --      2.3697                 1.6725                 1.6855
 IR Inten    --     57.4619                 5.9850                35.7603

                     37                     38                     39
                      A                      A                      A
 Frequencies --   1157.0441              1182.3378              1211.8254
 Red. masses --      1.8912                 1.6998                 1.4740
 Frc consts  --      1.4917                 1.4000                 1.2753
 IR Inten    --      0.1927                 6.1018                 7.9251

                     40                     41                     42
                      A                      A                      A
 Frequencies --   1236.8204              1249.3951              1260.1308
 Red. masses --      1.4676                 1.9486                 1.4726
 Frc consts  --      1.3228                 1.7921                 1.3777
 IR Inten    --      0.9345                10.4896                 4.2978

                     43                     44                     45
                      A                      A                      A
 Frequencies --   1275.3515              1309.4623              1318.5267
 Red. masses --      1.3214                 1.3621                 1.4480
 Frc consts  --      1.2664                 1.3761                 1.4832
 IR Inten    --      0.5152                 5.4866                 1.3665

                     46                     47                     48
                      A                      A                      A
 Frequencies --   1328.2680              1342.3685              1355.8919
 Red. masses --      1.2782                 1.3630                 1.3713
 Frc consts  --      1.3287                 1.4471                 1.4854
 IR Inten    --      1.9854                 1.7317                 0.8845

                     49                     50                     51
                      A                      A                      A
 Frequencies --   1362.9599              1368.0313              1373.6065
 Red. masses --      1.4273                 1.4605                 1.4806
 Frc consts  --      1.5622                 1.6105                 1.6459
 IR Inten    --      0.8172                 0.7100                 1.5946

                     52                     53                     54
                      A                      A                      A
 Frequencies --   1388.3025              1412.3571              1441.4088
 Red. masses --      1.8369                 1.2287                 1.2338
 Frc consts  --      2.0859                 1.4441                 1.5103
 IR Inten    --      5.5722                 5.1412                 3.8664

                     55                     56                     57
                      A                      A                      A
 Frequencies --   1515.4272              1516.7793              1519.0561
 Red. masses --      1.0830                 1.0831                 1.0854
 Frc consts  --      1.4654                 1.4681                 1.4757
 IR Inten    --      2.3289                 1.0893                 2.7951

                     58                     59                     60
                      A                      A                      A
 Frequencies --   1530.2073              1535.6078              1539.9492
 Red. masses --      1.0601                 1.0504                 1.0985
 Frc consts  --      1.4625                 1.4593                 1.5349
 IR Inten    --      3.0756                 4.8994                 3.8339

                     61                     62                     63
                      A                      A                      A
 Frequencies --   1543.8213              1830.7593              2926.1342
 Red. masses --      1.0939                10.5903                 1.0852
 Frc consts  --      1.5361                20.9131                 5.4748
 IR Inten    --      8.0148               127.6771                93.6369

                     64                     65                     66
                      A                      A                      A
 Frequencies --   3021.1267              3044.6754              3051.1610
 Red. masses --      1.0837                 1.0408                 1.0621
 Frc consts  --      5.8277                 5.6848                 5.8256
 IR Inten    --     36.6768                 8.6507                24.7954

                     67                     68                     69
                      A                      A                      A
 Frequencies --   3060.7933              3066.3338              3073.5934
 Red. masses --      1.0640                 1.0646                 1.0864
 Frc consts  --      5.8727                 5.8978                 6.0470
 IR Inten    --     29.8873                33.9264                 9.0489

                     70                     71                     72
                      A                      A                      A
 Frequencies --   3076.4115              3093.1489              3103.0063
 Red. masses --      1.0637                 1.0622                 1.0957
 Frc consts  --      5.9313                 5.9876                 6.2160
 IR Inten    --     26.3517                16.1289                28.7765

                     73                     74                     75
                      A                      A                      A
 Frequencies --   3105.9045              3111.8651              3119.2544
 Red. masses --      1.1000                 1.1003                 1.1030
 Frc consts  --      6.2521                 6.2775                 6.3229
 IR Inten    --     26.8575                29.0019                17.8693

                     76                     77                     78
                      A                      A                      A
 Frequencies --   3120.8974              3125.4242              3138.3803
 Red. masses --      1.1005                 1.1047                 1.1065
 Frc consts  --      6.3153                 6.3578                 6.4210
 IR Inten    --     14.1309                72.8492                26.0478

 - Thermochemistry -
 -------------------
 Temperature   298.150 Kelvin.  Pressure   1.00000 Atm.
 Atom     1 has atomic number  6 and mass  12.00000

 Molecular mass:   168.11503 amu.
 Principal axes and moments of inertia in atomic units:
                           1         2         3
     Eigenvalues --  1049.341892572.699253065.36091
           X            0.99994   0.00941  -0.00613
           Y           -0.00933   0.99987   0.01286
           Z            0.00625  -0.01280   0.99990
 This molecule is an asymmetric top.
 Rotational symmetry number  1.
 Warning -- assumption of classical behavior for rotation
           may cause significant error
 Rotational temperatures (Kelvin)      0.08254     0.03367     0.02826
 Rotational constants (GHZ):           1.71988     0.70150     0.58875
 Zero-point vibrational energy     651115.0 (Joules/Mol)
                                  155.62022 (Kcal/Mol)
 Warning -- explicit consideration of  16 degrees of freedom as
           vibrations may cause significant error
 Vibrational temperatures:     34.83    76.94   125.21   165.90   242.60
          (Kelvin)            278.03   367.89   389.88   428.15   475.33
                              534.38   617.88   674.89   722.38   854.43
                              880.53   975.68  1008.04  1083.34  1171.96
                             1192.55  1239.41  1255.42  1266.68  1327.78
                             1347.46  1387.70  1427.36  1449.91  1456.98
                             1508.82  1525.16  1543.22  1575.24  1578.98
                             1640.65  1664.73  1701.12  1743.55  1779.51
                             1797.60  1813.05  1834.95  1884.02  1897.07
                             1911.08  1931.37  1950.83  1961.00  1968.29
                             1976.31  1997.46  2032.07  2073.87  2180.36
                             2182.31  2185.58  2201.63  2209.40  2215.64
                             2221.21  2634.05  4210.05  4346.73  4380.61
                             4389.94  4403.80  4411.77  4422.22  4426.27
                             4450.35  4464.53  4468.70  4477.28  4487.91
                             4490.28  4496.79  4515.43

 Zero-point correction=                           0.247997 (Hartree/Particle)
 Thermal correction to Energy=                    0.259641
 Thermal correction to Enthalpy=                  0.260585
 Thermal correction to Gibbs Free Energy=         0.209375
 Sum of electronic and zero-point Energies=           -540.933137
 Sum of electronic and thermal Energies=              -540.921493
 Sum of electronic and thermal Enthalpies=            -540.920549
 Sum of electronic and thermal Free Energies=         -540.971759

                     E (Thermal)             CV                S
                      KCal/Mol        Cal/Mol-Kelvin    Cal/Mol-Kelvin
 Total                  162.927             44.535            107.781
 Electronic               0.000              0.000              0.000
 Translational            0.889              2.981             41.266
 Rotational               0.889              2.981             30.493
 Vibrational            161.149             38.574             36.021
 Vibration     1          0.593              1.985              6.255
 Vibration     2          0.596              1.976              4.684
 Vibration     3          0.601              1.958              3.726
 Vibration     4          0.608              1.937              3.178
 Vibration     5          0.625              1.881              2.451
 Vibration     6          0.635              1.849              2.197
 Vibration     7          0.666              1.753              1.691
 Vibration     8          0.675              1.727              1.590
 Vibration     9          0.691              1.678              1.430
 Vibration    10          0.713              1.615              1.258
 Vibration    11          0.743              1.531              1.074
 Vibration    12          0.791              1.406              0.860
 Vibration    13          0.826              1.319              0.740
 Vibration    14          0.857              1.245              0.653
 Vibration    15          0.951              1.045              0.460
 Vibration    16          0.971              1.006              0.429

                           ! Non-Optimized Parameters !
 Normal termination of Gaussian 16 at Wed Dec  9 17:37:49 2020.

 ----------------------------------------------------------------------
 # B3LYP/6-311++G(d,p) empiricaldispersion=gd3bj scf=xqc pop=npa geom=c
 heck
 ----------------------------------------------------------------------

 ---------------------------------------
 CID_130584685_JID_2439_Energie_neutraal
 ---------------------------------------
 Structure from the checkpoint file:  "JID_2439.chk"
 Charge =  0 Multiplicity = 1

 SCF Done:  E(RB3LYP) =  -541.333273948     A.U. after   14 cycles
 Normal termination of Gaussian 16 at Wed Dec  9 17:41:49 2020.

 ----------------------------------------------------------------------
 # B3LYP/6-311++G(d,p) empiricaldispersion=gd3bj scf=xqc pop=npa geom=c
 heck
 ----------------------------------------------------------------------

 -------------------------------------
 CID_130584685_JID_2439_Energie_kation
 -------------------------------------
 Structure from the checkpoint file:  "JID_2439.chk"
 Charge =  1 Multiplicity = 2

 SCF Done:  E(UB3LYP) =  -541.005694387     A.U. after   23 cycles
 Normal termination of Gaussian 16 at Wed Dec  9 17:50:47 2020.
 Gaussian 16:  ES64L-G16RevA.03 25-Dec-2016

 ----------------------------------------------------------------------
 # B3LYP/6-311++G(d,p) empiricaldispersion=gd3bj scf=xqc pop=npa geom=c
 heck
 ----------------------------------------------------------------------

 ------------------------------------
 CID_130584685_JID_2439_Energie_anion
 ------------------------------------
 Structure from the checkpoint file:  "JID_2439.chk"
 Charge = -1 Multiplicity = 2

                         Standard orientation:
 ---------------------------------------------------------------------
 Center     Atomic      Atomic             Coordinates (Angstroms)
 Number     Number       Type             X           Y           Z
 ---------------------------------------------------------------------
      1          6           0       -2.882704    1.175294    0.207887
      2          6           0       -1.908867    0.265441   -0.549753
      3          6           0       -2.311007   -1.235896   -0.427885
      4          6           0       -1.199606   -1.925348    0.406596
      5          6           0       -0.455318   -0.767945    1.086482
      6          6           0       -0.472066    0.329948    0.009076
      7          6           0        0.083017    1.690756    0.436077
      8          6           0        1.604509    1.514659    0.289931
      9          6           0        1.726290    0.400230   -0.772323
     10          8           0        0.408063   -0.049501   -1.083159
     11          6           0        2.571924   -0.787044   -0.320582
     12          8           0        3.448146   -0.732989    0.512865
     13          1           0       -2.924325    0.918193    1.273397
     14          1           0       -3.895228    1.062235   -0.194881
     15          1           0       -2.607868    2.232320    0.126383
     16          1           0       -1.870819    0.582217   -1.597311
     17          1           0       -2.417500   -1.704222   -1.410612
     18          1           0       -3.282703   -1.323111    0.071513
     19          1           0       -1.595860   -2.653451    1.120858
     20          1           0       -0.508462   -2.454862   -0.255924
     21          1           0       -1.005296   -0.413549    1.967963
     22          1           0        0.554774   -1.029004    1.419313
     23          1           0       -0.278506    2.462888   -0.252240
     24          1           0       -0.217762    1.972889    1.448717
     25          1           0        2.074163    1.186495    1.221248
     26          1           0        2.105225    2.434176   -0.022057
     27          1           0        2.170953    0.763664   -1.710745
     28          1           0        2.312512   -1.737535   -0.836301
 ---------------------------------------------------------------------

 SCF Done:  E(UB3LYP) =  -541.322606575     A.U. after   33 cycles
 SCF Done:  E(UB3LYP) =  -541.322606575     a.u. after    1 cycles

 The electronic state is 2-A.
 Alpha  occ. eigenvalues --  -19.00598 -18.98461 -10.11115 -10.11088 -10.10475
 Alpha  occ. eigenvalues --  -10.06151 -10.05675 -10.05593 -10.05547 -10.05522
 Alpha  occ. eigenvalues --  -10.05324 -10.05130  -0.92910  -0.91408  -0.73053
 Alpha  occ. eigenvalues --   -0.67003  -0.63883  -0.62721  -0.57116  -0.53140
 Alpha  occ. eigenvalues --   -0.50261  -0.46590  -0.44316  -0.42404  -0.38973
 Alpha  occ. eigenvalues --   -0.36939  -0.36660  -0.35135  -0.33534  -0.31768
 Alpha  occ. eigenvalues --   -0.31156  -0.30318  -0.29210  -0.27584  -0.26558
 Alpha  occ. eigenvalues --   -0.25966  -0.24503  -0.23931  -0.22980  -0.22092
 Alpha  occ. eigenvalues --   -0.21733  -0.21246  -0.20506  -0.20075  -0.16217
 Alpha  occ. eigenvalues --   -0.11921   0.04866
 Alpha virt. eigenvalues --    0.06888   0.07858   0.08456   0.08594   0.10045
 Alpha virt. eigenvalues --    0.10482   0.10638   0.10913   0.11250   0.12741
 Alpha virt. eigenvalues --    0.12833   0.13687   0.14062   0.14557   0.15219

  Beta  occ. eigenvalues --  -19.00572 -18.98182 -10.11089 -10.10854 -10.10499
  Beta  occ. eigenvalues --  -10.06140 -10.05653 -10.05583 -10.05535 -10.05496
  Beta  occ. eigenvalues --  -10.05300 -10.05097  -0.92768  -0.90965  -0.73025
  Beta  occ. eigenvalues --   -0.66955  -0.63841  -0.62608  -0.57011  -0.52970
  Beta  occ. eigenvalues --   -0.50066  -0.46516  -0.44014  -0.42314  -0.38901
  Beta  occ. eigenvalues --   -0.36786  -0.36564  -0.35057  -0.33459  -0.31591
  Beta  occ. eigenvalues --   -0.30883  -0.30251  -0.29142  -0.27532  -0.26076
  Beta  occ. eigenvalues --   -0.25525  -0.24444  -0.23620  -0.22845  -0.21936
  Beta  occ. eigenvalues --   -0.21598  -0.21197  -0.20427  -0.20044  -0.16115
  Beta  occ. eigenvalues --   -0.11736
  Beta virt. eigenvalues --    0.07275   0.08374   0.08776   0.08939   0.10035
  Beta virt. eigenvalues --    0.10467   0.10753   0.11034   0.11297   0.11498
  Beta virt. eigenvalues --    0.13060   0.13278   0.13886   0.14260   0.14737

 Mulliken charges and spin densities:
               1          2
     1  C    1.087069  -1.858605
     2  C   -1.331227   2.053421
     3  C    0.712337  -1.280462
     4  C   -0.545801   0.193112
     5  C    0.377588  -0.670242
     6  C    0.028523  -0.511115
     7  C    0.180776  -0.281252
     8  C    0.505239  -1.288727
     9  C   -0.204271   0.681470
    10  O   -0.002879   0.003112
    11  C   -0.107662  -0.085324
    12  O   -0.270336   0.079363
    13  H   -0.206223   0.363850
    14  H   -0.403837   0.551058
    15  H   -0.183252   0.319149
    16  H   -0.192369   0.427045
    17  H   -0.054356   0.192769
    18  H   -0.067909   0.203243
    19  H   -0.107960   0.264447
    20  H    0.140548  -0.004123
    21  H   -0.136818   0.296987
    22  H    0.313630  -0.140690
    23  H   -0.217459   0.389336
    24  H   -0.063800   0.214467
    25  H    0.172336   0.019743
    26  H   -0.268591   0.427053
    27  H   -0.217329   0.437875
    28  H    0.064033   0.003040
 Sum of Mulliken charges =  -1.00000   1.00000

 Dipole moment (field-independent basis, Debye):
    X=              0.2337    Y=             -2.8125    Z=              0.3581  Tot=              2.8448
 Quadrupole moment (field-independent basis, Debye-Ang):
   XX=           -137.3180   YY=           -109.4638   ZZ=           -101.2840
   XY=              4.1145   XZ=             -1.3256   YZ=              4.4100

 Summary of Natural Population Analysis:

                                       Natural Population
                Natural  -----------------------------------------------
    Atom  No    Charge         Core      Valence    Rydberg      Total
 -----------------------------------------------------------------------
      C    1   -0.28337      0.99965     2.27770    0.00602     3.28337
      C    2   -0.11840      0.99954     2.10667    0.01220     3.11840
      C    3   -0.18761      0.99963     2.18022    0.00775     3.18761
      C    4   -0.19292      0.99964     2.18463    0.00864     3.19292
      C    5   -0.20742      0.99956     2.19906    0.00880     3.20742
      C    6    0.14670      0.99949     1.83502    0.01879     2.85330
      C    7   -0.20081      0.99956     2.19200    0.00925     3.20081
      C    8   -0.20038      0.99963     2.19186    0.00889     3.20038
      C    9    0.01487      0.99955     1.97052    0.01505     2.98513
      O   10   -0.31217      0.99988     3.30309    0.00920     4.31217
      C   11    0.24789      0.99972     1.73210    0.02029     2.75211
      O   12   -0.26324      0.99988     3.25714    0.00622     4.26324
      H   13    0.09596      0.00000     0.40255    0.00149     0.40404
      H   14    0.09985      0.00000     0.39907    0.00107     0.40015
      H   15    0.10099      0.00000     0.39772    0.00129     0.39901
      H   16    0.10627      0.00000     0.39230    0.00143     0.39373
      H   17    0.09967      0.00000     0.39938    0.00095     0.40033
      H   18    0.09454      0.00000     0.40434    0.00112     0.40546
      H   19    0.09559      0.00000     0.40356    0.00086     0.40441
      H   20    0.09981      0.00000     0.39880    0.00139     0.40019
      H   21    0.09837      0.00000     0.40051    0.00112     0.40163
      H   22    0.10768      0.00000     0.39137    0.00095     0.39232
      H   23    0.10323      0.00000     0.39506    0.00172     0.39677
      H   24    0.10332      0.00000     0.39570    0.00098     0.39668
      H   25    0.10596      0.00000     0.39271    0.00133     0.39404
      H   26    0.10409      0.00000     0.39462    0.00128     0.39591
      H   27    0.10073      0.00000     0.39744    0.00182     0.39927
      H   28    0.04079      0.00000     0.45673    0.00248     0.45921
 =======================================================================
   * Total *   -0.00000     11.99572    33.85189    0.15238    46.00000

 Normal termination of Gaussian 16 at Wed Dec  9 18:02:54 2020.
