 Gaussian 16, Revision A.03,

 -----------------------------------------------------------
 # opt freq B3LYP/6-31G(d) empiricaldispersion=gd3bj scf=xqc
 -----------------------------------------------------------

 ------------------------------
 CID_134309067_JID_353_neutraal
 ------------------------------
 Symbolic Z-matrix:
 Charge =  0 Multiplicity = 1

 SCF Done:  E(RB3LYP) =  -423.974603755     A.U. after   14 cycles
 SCF Done:  E(RB3LYP) =  -423.977480287     A.U. after   12 cycles
 SCF Done:  E(RB3LYP) =  -423.976462667     A.U. after   13 cycles
 SCF Done:  E(RB3LYP) =  -423.978181086     A.U. after   11 cycles
 SCF Done:  E(RB3LYP) =  -423.978357508     A.U. after   11 cycles
 SCF Done:  E(RB3LYP) =  -423.978376698     A.U. after    9 cycles
 SCF Done:  E(RB3LYP) =  -423.978377233     A.U. after    8 cycles
 SCF Done:  E(RB3LYP) =  -423.978377466     A.U. after    7 cycles
 Optimization completed.
    -- Stationary point found.

 1\1\GINC-NODE365\FOpt\RB3LYP\6-31G(d)\C8H16N2\VSC10255\13-Dec-2020\0\\
 # opt freq B3LYP/6-31G(d) empiricaldispersion=gd3bj scf=xqc\\CID_13430
 9067_JID_353_neutraal\\0,1\C,0.91629602,0.0377148889,0.0230058371\C,0.
 3875505824,-0.3791246022,1.3659166304\C,-0.3981342549,0.3061078348,2.2
 420604457\C,-0.8416697048,1.6789975761,1.8906363428\N,-1.5591385239,2.
 5692728588,2.4637453887\C,-2.1907613728,2.4229075465,3.766286656\N,-0.
 8154890309,-0.2101830142,3.4627473778\C,-0.5185302629,-1.51604602,4.02
 97786775\C,0.2653097413,-1.3655019727,5.3406384488\C,-1.8102012423,-2.

 Normal termination of Gaussian 16 at Sun Dec 13 12:20:34 2020.

 --------------------------------------------------------------------
 #N Geom=AllCheck Guess=TCheck SCRF=Check GenChk RB3LYP/6-31G(d) Freq
 --------------------------------------------------------------------

 Structure from the checkpoint file:  "JID_353.chk"
 ------------------------------
 CID_134309067_JID_353_neutraal
 ------------------------------
 Charge =  0 Multiplicity = 1

 SCF Done:  E(RB3LYP) =  -423.978377466     A.U. after    1 cycles

  Exact polarizability: 109.687   8.220 135.121   0.000   0.000  69.217
 Approx polarizability: 138.105   8.138 217.582  -0.000   0.000  95.059

 ******    3 imaginary frequencies (negative Signs) ******

                      1                      2                      3
                      A                      A                      A
 Frequencies --   -246.4779               -83.3197               -53.9472
 Red. masses --      1.3495                 2.9876                 2.6728
 Frc consts  --      0.0483                 0.0122                 0.0046
 IR Inten    --     62.5119                 0.2653                 1.3708

                      4                      5                      6
                      A                      A                      A
 Frequencies --     50.9781                78.5922               142.0486
 Red. masses --      1.4826                 1.4436                 3.2492
 Frc consts  --      0.0023                 0.0053                 0.0386
 IR Inten    --      4.2003                 4.0406                 0.3067

                      7                      8                      9
                      A                      A                      A
 Frequencies --    181.9625               220.8453               242.2486
 Red. masses --      2.0323                 3.2270                 1.0312
 Frc consts  --      0.0396                 0.0927                 0.0357
 IR Inten    --      7.6108                 0.7223                 0.0861

                     10                     11                     12
                      A                      A                      A
 Frequencies --    267.8453               277.8273               308.9214
 Red. masses --      1.1084                 1.2056                 3.0948
 Frc consts  --      0.0468                 0.0548                 0.1740
 IR Inten    --      0.0171                13.1490                 2.1938

                     13                     14                     15
                      A                      A                      A
 Frequencies --    320.8364               357.6485               407.7497
 Red. masses --      2.7128                 2.9498                 2.7147
 Frc consts  --      0.1645                 0.2223                 0.2659
 IR Inten    --      2.0676                 0.4347                 6.2262

                     16                     17                     18
                      A                      A                      A
 Frequencies --    422.3071               452.0755               570.9645
 Red. masses --      2.9337                 2.6275                 3.3850
 Frc consts  --      0.3083                 0.3164                 0.6502
 IR Inten    --      3.2277                 1.7391                 7.1063

                     19                     20                     21
                      A                      A                      A
 Frequencies --    606.9228               685.7085               807.0536
 Red. masses --      2.2192                 4.3756                 1.3503
 Frc consts  --      0.4816                 1.2122                 0.5182
 IR Inten    --      7.3783                 2.9787                18.0134

                     22                     23                     24
                      A                      A                      A
 Frequencies --    808.9071               882.8201               922.6951
 Red. masses --      2.8481                 2.6887                 1.6078
 Frc consts  --      1.0980                 1.2346                 0.8065
 IR Inten    --      7.1409                 0.7864                 0.3323

                     25                     26                     27
                      A                      A                      A
 Frequencies --    934.7968               948.8587               950.3421
 Red. masses --      1.2292                 1.4271                 3.2489
 Frc consts  --      0.6329                 0.7570                 1.7288
 IR Inten    --      0.7556                 0.3184                 6.3744

                     28                     29                     30
                      A                      A                      A
 Frequencies --   1011.9073              1034.0069              1064.2340
 Red. masses --      1.7248                 2.1149                 1.4031
 Frc consts  --      1.0406                 1.3323                 0.9363
 IR Inten    --     10.1553                13.8613                 0.2648

                     31                     32                     33
                      A                      A                      A
 Frequencies --   1119.9889              1149.1009              1154.6820
 Red. masses --      1.3194                 2.6780                 2.1248
 Frc consts  --      0.9751                 2.0835                 1.6691
 IR Inten    --      1.2369                15.1159                11.1643

                     34                     35                     36
                      A                      A                      A
 Frequencies --   1168.7384              1197.3170              1207.0132
 Red. masses --      1.3927                 2.2576                 2.0021
 Frc consts  --      1.1208                 1.9068                 1.7185
 IR Inten    --      3.8293                26.2351                41.5653

                     37                     38                     39
                      A                      A                      A
 Frequencies --   1313.0852              1352.8932              1376.4067
 Red. masses --      2.5651                 1.3674                 1.4155
 Frc consts  --      2.6058                 1.4746                 1.5800
 IR Inten    --    127.2790                 7.1171                18.1004

                     40                     41                     42
                      A                      A                      A
 Frequencies --   1399.4151              1425.1667              1444.5125
 Red. masses --      1.3319                 1.2583                 1.2518
 Frc consts  --      1.5368                 1.5058                 1.5389
 IR Inten    --      0.7430                 5.7974                 7.8481

                     43                     44                     45
                      A                      A                      A
 Frequencies --   1444.9123              1448.9684              1487.9578
 Red. masses --      1.2836                 1.1875                 1.1498
 Frc consts  --      1.5789                 1.4689                 1.4999
 IR Inten    --      0.3058                35.7617                 3.6592

                     46                     47                     48
                      A                      A                      A
 Frequencies --   1510.8167              1513.0779              1518.3857
 Red. masses --      1.0439                 1.0449                 1.0505
 Frc consts  --      1.4039                 1.4094                 1.4269
 IR Inten    --      4.7171                 0.0363                 1.5382

                     49                     50                     51
                      A                      A                      A
 Frequencies --   1524.2716              1529.4222              1533.8531
 Red. masses --      1.0900                 1.0579                 1.0914
 Frc consts  --      1.4921                 1.4580                 1.5128
 IR Inten    --     14.5891                 3.8730                17.0530

                     52                     53                     54
                      A                      A                      A
 Frequencies --   1535.1666              1550.4952              1581.8185
 Red. masses --      1.0604                 1.0471                 1.4512
 Frc consts  --      1.4724                 1.4831                 2.1394
 IR Inten    --      6.9116                 4.8190                96.6287

                     55                     56                     57
                      A                      A                      A
 Frequencies --   1694.7080              1725.9832              2997.8152
 Red. masses --      4.6324                 8.9223                 1.0399
 Frc consts  --      7.8388                15.6603                 5.5064
 IR Inten    --     92.4307               139.2532                39.0006

                     58                     59                     60
                      A                      A                      A
 Frequencies --   3021.0059              3039.3340              3044.3865
 Red. masses --      1.0437                 1.0370                 1.0379
 Frc consts  --      5.6124                 5.6440                 5.6676
 IR Inten    --     70.7743                16.1491                31.2067

                     61                     62                     63
                      A                      A                      A
 Frequencies --   3053.7452              3056.6777              3099.8558
 Red. masses --      1.1002                 1.1032                 1.0932
 Frc consts  --      6.0447                 6.0730                 6.1891
 IR Inten    --     31.1359                33.2230                29.5844

                     64                     65                     66
                      A                      A                      A
 Frequencies --   3101.5298              3105.6588              3127.2852
 Red. masses --      1.1010                 1.0942                 1.0951
 Frc consts  --      6.2403                 6.2179                 6.3101
 IR Inten    --      1.8617                52.8809                39.6504

                     67                     68                     69
                      A                      A                      A
 Frequencies --   3129.9131              3134.1282              3140.0329
 Red. masses --      1.1023                 1.0982                 1.0924
 Frc consts  --      6.3621                 6.3557                 6.3462
 IR Inten    --     19.7600                39.7374                 4.6412

                     70                     71                     72
                      A                      A                      A
 Frequencies --   3171.6186              3179.9194              3725.9524
 Red. masses --      1.0838                 1.0856                 1.0748
 Frc consts  --      6.4232                 6.4680                 8.7913
 IR Inten    --     10.9286                62.9742                46.7374

 - Thermochemistry -
 -------------------
 Temperature   298.150 Kelvin.  Pressure   1.00000 Atm.
 Atom     1 has atomic number  6 and mass  12.00000

 Molecular mass:   140.13135 amu.
 Principal axes and moments of inertia in atomic units:
                           1         2         3
     Eigenvalues --  1355.270901929.245752868.49089
           X            0.99780   0.06631   0.00000
           Y           -0.06631   0.99780  -0.00000
           Z           -0.00000   0.00000   1.00000
 This molecule is an asymmetric top.
 Rotational symmetry number  1.
 Warning -- assumption of classical behavior for rotation
           may cause significant error
 Rotational temperatures (Kelvin)      0.06391     0.04490     0.03019
 Rotational constants (GHZ):           1.33165     0.93546     0.62916
    3 imaginary frequencies ignored.
 Zero-point vibrational energy     610084.2 (Joules/Mol)
                                  145.81363 (Kcal/Mol)
 Warning -- explicit consideration of  16 degrees of freedom as
           vibrations may cause significant error
 Vibrational temperatures:     73.35   113.08   204.38   261.80   317.75
          (Kelvin)            348.54   385.37   399.73   444.47   461.61
                              514.58   586.66   607.61   650.44   821.49
                              873.23   986.58  1161.17  1163.84  1270.18
                             1327.55  1344.96  1365.20  1367.33  1455.91
                             1487.71  1531.20  1611.41  1653.30  1661.33
                             1681.55  1722.67  1736.62  1889.24  1946.51
                             1980.34  2013.45  2050.50  2078.33  2078.91
                             2084.74  2140.84  2173.73  2176.98  2184.62
                             2193.09  2200.50  2206.87  2208.76  2230.82
                             2275.88  2438.31  2483.30  4313.19  4346.55
                             4372.92  4380.19  4393.66  4397.88  4460.00
                             4462.41  4468.35  4499.47  4503.25  4509.31
                             4517.81  4563.25  4575.19  5360.81

 Zero-point correction=                           0.232369 (Hartree/Particle)
 Thermal correction to Energy=                    0.243171
 Thermal correction to Enthalpy=                  0.244115
 Thermal correction to Gibbs Free Energy=         0.195983
 Sum of electronic and zero-point Energies=           -423.746009
 Sum of electronic and thermal Energies=              -423.735206
 Sum of electronic and thermal Enthalpies=            -423.734262
 Sum of electronic and thermal Free Energies=         -423.782394

                     E (Thermal)             CV                S
                      KCal/Mol        Cal/Mol-Kelvin    Cal/Mol-Kelvin
 Total                  152.592             40.352            101.303
 Electronic               0.000              0.000              0.000
 Translational            0.889              2.981             40.724
 Rotational               0.889              2.981             30.396
 Vibrational            150.815             34.391             30.183
 Vibration     1          0.595              1.977              4.779
 Vibration     2          0.600              1.964              3.926
 Vibration     3          0.616              1.911              2.776
 Vibration     4          0.630              1.864              2.308
 Vibration     5          0.648              1.809              1.952
 Vibration     6          0.658              1.776              1.786
 Vibration     7          0.673              1.732              1.610
 Vibration     8          0.679              1.714              1.547
 Vibration     9          0.698              1.657              1.368
 Vibration    10          0.706              1.634              1.306
 Vibration    11          0.733              1.560              1.132
 Vibration    12          0.772              1.453              0.935
 Vibration    13          0.785              1.422              0.884
 Vibration    14          0.811              1.356              0.790
 Vibration    15          0.927              1.094              0.502
 Vibration    16          0.966              1.017              0.438

 Optimization completed.
    -- Stationary point found.

 1\1\GINC-NODE365\Freq\RB3LYP\6-31G(d)\C8H16N2\VSC10255\13-Dec-2020\0\\
 #N Geom=AllCheck Guess=TCheck SCRF=Check GenChk RB3LYP/6-31G(d) Freq\\
 CID_134309067_JID_353_neutraal\\0,1\C,0.91629602,0.0377148889,0.023005
 8371\C,0.3875505824,-0.3791246022,1.3659166304\C,-0.3981342549,0.30610
 78348,2.2420604457\C,-0.8416697048,1.6789975761,1.8906363428\N,-1.5591
 385239,2.5692728588,2.4637453887\C,-2.1907613728,2.4229075465,3.766286
 656\N,-0.8154890309,-0.2101830142,3.4627473778\C,-0.5185302629,-1.5160
 4602,4.0297786775\C,0.2653097413,-1.3655019727,5.3406384488\C,-1.81020

 Normal termination of Gaussian 16 at Sun Dec 13 12:25:02 2020.

 ----------------------------------------------------------------------
 # B3LYP/6-311++G(d,p) empiricaldispersion=gd3bj scf=xqc pop=npa geom=c
 heck
 ----------------------------------------------------------------------

 --------------------------------------
 CID_134309067_JID_353_Energie_neutraal
 --------------------------------------
 Structure from the checkpoint file:  "JID_353.chk"
 Charge =  0 Multiplicity = 1

 SCF Done:  E(RB3LYP) =  -424.101994185     A.U. after   13 cycles
 Normal termination of Gaussian 16 at Sun Dec 13 12:26:38 2020.

 ----------------------------------------------------------------------
 # B3LYP/6-311++G(d,p) empiricaldispersion=gd3bj scf=xqc pop=npa geom=c
 heck
 ----------------------------------------------------------------------

 ------------------------------------
 CID_134309067_JID_353_Energie_kation
 ------------------------------------
 Structure from the checkpoint file:  "JID_353.chk"
 Charge =  1 Multiplicity = 2

 SCF Done:  E(UB3LYP) =  -423.838117746     A.U. after   21 cycles
 Normal termination of Gaussian 16 at Sun Dec 13 12:29:55 2020.
 Gaussian 16:  ES64L-G16RevA.03 25-Dec-2016

 -----------------------------------
 CID_134309067_JID_353_Energie_anion
 -----------------------------------
 Structure from the checkpoint file:  "JID_353.chk"
 Charge = -1 Multiplicity = 2

                         Standard orientation:
 ---------------------------------------------------------------------
 Center     Atomic      Atomic             Coordinates (Angstroms)
 Number     Number       Type             X           Y           Z
 ---------------------------------------------------------------------
      1          6           0       -2.165335   -2.521991   -0.000012
      2          6           0       -0.884551   -1.736926   -0.000011
      3          6           0       -0.690794   -0.388990   -0.000006
      4          6           0       -1.873423    0.509029    0.000002
      5          7           0       -2.043102    1.776710    0.000006
      6          6           0       -0.973787    2.763396    0.000014
      7          7           0        0.565548    0.204661   -0.000012
      8          6           0        1.863988   -0.450352   -0.000011
      9          6           0        2.645583   -0.091007   -1.270996
     10          6           0        2.645547   -0.091082    1.271017
     11          1           0       -3.072450   -1.915408   -0.000007
     12          1           0       -2.216348   -3.179987    0.879345
     13          1           0       -2.216352   -3.179979   -0.879375
     14          1           0       -0.001284   -2.370479   -0.000015
     15          1           0       -2.809211   -0.047123   -0.000001
     16          1           0       -0.337073    2.698741    0.894830
     17          1           0       -0.337048    2.698726   -0.894783
     18          1           0       -1.423403    3.761024    0.000001
     19          1           0        0.600688    1.206632    0.000012
     20          1           0        1.696506   -1.528721   -0.000046
     21          1           0        2.825517    0.990755   -1.319216
     22          1           0        3.620183   -0.592215   -1.292320
     23          1           0        2.082106   -0.381137   -2.163139
     24          1           0        2.082043   -0.381264    2.163127
     25          1           0        3.620146   -0.592294    1.292341
     26          1           0        2.825481    0.990676    1.319305
 ---------------------------------------------------------------------

 SCF Done:  E(UB3LYP) =  -424.088788130     A.U. after   33 cycles
 SCF Done:  E(UB3LYP) =  -424.088788130     a.u. after    1 cycles

 The electronic state is 2-A.
 Alpha  occ. eigenvalues --  -14.19753 -14.17594 -10.09773 -10.09473 -10.08364
 Alpha  occ. eigenvalues --  -10.07914 -10.06206 -10.04992 -10.04824 -10.03985
 Alpha  occ. eigenvalues --   -0.82206  -0.78326  -0.68447  -0.64875  -0.60565
 Alpha  occ. eigenvalues --   -0.57862  -0.56339  -0.50925  -0.46634  -0.43532
 Alpha  occ. eigenvalues --   -0.38171  -0.37680  -0.33117  -0.32814  -0.32789
 Alpha  occ. eigenvalues --   -0.32325  -0.31493  -0.30454  -0.28039  -0.27889
 Alpha  occ. eigenvalues --   -0.27373  -0.26934  -0.24844  -0.24499  -0.22568
 Alpha  occ. eigenvalues --   -0.22551  -0.16762  -0.12067  -0.07826   0.04865
 Alpha virt. eigenvalues --    0.06813   0.07502   0.07870   0.08849   0.09686
 Alpha virt. eigenvalues --    0.10201   0.10873   0.10997   0.11837   0.12160
 Alpha virt. eigenvalues --    0.13116   0.13533   0.13706   0.14993   0.15327

  Beta  occ. eigenvalues --  -14.19736 -14.17396 -10.09767 -10.09472 -10.08266
  Beta  occ. eigenvalues --  -10.07903 -10.06206 -10.04958 -10.04775 -10.03876
  Beta  occ. eigenvalues --   -0.82115  -0.78036  -0.68335  -0.64790  -0.60431
  Beta  occ. eigenvalues --   -0.57783  -0.56277  -0.50780  -0.46422  -0.43441
  Beta  occ. eigenvalues --   -0.38057  -0.37597  -0.33054  -0.32739  -0.32548
  Beta  occ. eigenvalues --   -0.32251  -0.31377  -0.30363  -0.27976  -0.27845
  Beta  occ. eigenvalues --   -0.27307  -0.26887  -0.24758  -0.24426  -0.22501
  Beta  occ. eigenvalues --   -0.22214  -0.16146  -0.11834  -0.07377
  Beta virt. eigenvalues --    0.07166   0.07831   0.08367   0.08530   0.09360
  Beta virt. eigenvalues --    0.10130   0.10637   0.10981   0.11184   0.12408
  Beta virt. eigenvalues --    0.12474   0.13441   0.13837   0.13880   0.15404

 Mulliken charges and spin densities:
               1          2
     1  C    0.051588  -0.808894
     2  C    0.212517   0.229988
     3  C   -0.011458   0.032587
     4  C   -0.990374   0.287075
     5  N   -0.101271   0.113493
     6  C   -0.086233  -0.389447
     7  N    0.253512  -0.181974
     8  C   -2.315955   2.343805
     9  C    1.497297  -2.023306
    10  C    1.200873  -1.723412
    11  H    0.094103   0.024325
    12  H    0.025297   0.102279
    13  H    0.041579   0.083343
    14  H   -0.022041   0.140619
    15  H    0.130899   0.057065
    16  H   -0.321850   0.482637
    17  H   -0.048133   0.193169
    18  H   -0.235987   0.404851
    19  H    1.702978  -1.429349
    20  H   -0.182019   0.289536
    21  H   -0.393355   0.533152
    22  H   -0.609161   0.756841
    23  H   -0.105116   0.258473
    24  H   -0.004679   0.154045
    25  H   -0.372917   0.514942
    26  H   -0.410093   0.554157
 Sum of Mulliken charges =  -1.00000   1.00000

 Dipole moment (field-independent basis, Debye):
    X=             -4.3707    Y=             -2.1615    Z=              0.0947  Tot=              4.8769
 Quadrupole moment (field-independent basis, Debye-Ang):
   XX=           -127.5588   YY=           -104.1631   ZZ=            -92.5912
   XY=              5.0932   XZ=              3.7253   YZ=             -3.1070

 Summary of Natural Population Analysis:

                                       Natural Population
                Natural  -----------------------------------------------
    Atom  No    Charge         Core      Valence    Rydberg      Total
 -----------------------------------------------------------------------
      C    1   -0.29303      0.99966     2.28885    0.00452     3.29303
      C    2   -0.11426      0.99954     2.10657    0.00814     3.11426
      C    3    0.05738      0.99944     1.93250    0.01068     2.94262
      C    4    0.07096      0.99957     1.91531    0.01417     2.92904
      N    5   -0.21516      0.99969     2.70216    0.01332     3.71516
      C    6   -0.20714      0.99963     2.19856    0.00895     3.20714
      N    7   -0.32550      0.99966     2.81438    0.01145     3.82550
      C    8   -0.01029      0.99961     1.99898    0.01170     3.01029
      C    9   -0.28594      0.99965     2.28018    0.00611     3.28594
      C   10   -0.28507      0.99965     2.27961    0.00581     3.28507
      H   11    0.09659      0.00000     0.40234    0.00106     0.40341
      H   12    0.09517      0.00000     0.40303    0.00180     0.40483
      H   13    0.09464      0.00000     0.40378    0.00158     0.40536
      H   14    0.08733      0.00000     0.41120    0.00146     0.41267
      H   15    0.07829      0.00000     0.41980    0.00192     0.42171
      H   16    0.09464      0.00000     0.40326    0.00210     0.40536
      H   17    0.09021      0.00000     0.40853    0.00126     0.40979
      H   18    0.09268      0.00000     0.40571    0.00161     0.40732
      H   19    0.19042      0.00000     0.30503    0.00455     0.30958
      H   20    0.09403      0.00000     0.40330    0.00267     0.40597
      H   21    0.09598      0.00000     0.40238    0.00165     0.40402
      H   22    0.10044      0.00000     0.39743    0.00213     0.39956
      H   23    0.10160      0.00000     0.39726    0.00114     0.39840
      H   24    0.10043      0.00000     0.39851    0.00106     0.39957
      H   25    0.09839      0.00000     0.40044    0.00118     0.40161
      H   26    0.09720      0.00000     0.40119    0.00162     0.40280
 =======================================================================
   * Total *    0.00000      9.99610    28.88028    0.12362    39.00000

 Normal termination of Gaussian 16 at Sun Dec 13 12:35:10 2020.
