 Gaussian 16, Revision A.03,

 -----------------------------------------------------------
 # opt freq B3LYP/6-31G(d) empiricaldispersion=gd3bj scf=xqc
 -----------------------------------------------------------

 ------------------------------
 CID_90066365_JID_2835_neutraal
 ------------------------------
 Symbolic Z-matrix:
 Charge =  0 Multiplicity = 1

 SCF Done:  E(RB3LYP) =  -552.192934694     A.U. after   14 cycles
 SCF Done:  E(RB3LYP) =  -552.197752997     A.U. after   12 cycles
 SCF Done:  E(RB3LYP) =  -552.198003048     A.U. after   11 cycles
 SCF Done:  E(RB3LYP) =  -552.198097095     A.U. after   10 cycles
 SCF Done:  E(RB3LYP) =  -552.198119973     A.U. after    9 cycles
 SCF Done:  E(RB3LYP) =  -552.198128180     A.U. after    9 cycles
 SCF Done:  E(RB3LYP) =  -552.198129203     A.U. after    8 cycles
 SCF Done:  E(RB3LYP) =  -552.198129395     A.U. after    7 cycles
 SCF Done:  E(RB3LYP) =  -552.198129421     A.U. after    6 cycles
 Optimization completed.
    -- Stationary point found.
 Normal termination of Gaussian 16 at Wed Dec  9 18:03:03 2020.

 --------------------------------------------------------------------
 #N Geom=AllCheck Guess=TCheck SCRF=Check GenChk RB3LYP/6-31G(d) Freq
 --------------------------------------------------------------------

 Structure from the checkpoint file:  "JID_2835.chk"
 ------------------------------
 CID_90066365_JID_2835_neutraal
 ------------------------------
 Charge =  0 Multiplicity = 1

 SCF Done:  E(RB3LYP) =  -552.198129421     A.U. after    1 cycles

  Exact polarizability: 152.662  -3.808  97.648  10.515   6.917  70.667
 Approx polarizability: 203.224  -5.496 168.292  21.586  20.321 104.041

                      1                      2                      3
                      A                      A                      A
 Frequencies --     28.3430                43.2315                67.6893
 Red. masses --      3.8147                 3.9575                 2.9810
 Frc consts  --      0.0018                 0.0044                 0.0080
 IR Inten    --      0.2474                 0.2904                 0.9035

                      4                      5                      6
                      A                      A                      A
 Frequencies --    115.4669               144.8002               180.2398
 Red. masses --      2.8150                 5.5011                 1.9557
 Frc consts  --      0.0221                 0.0680                 0.0374
 IR Inten    --      1.2484                 0.5096                 1.1900

                      7                      8                      9
                      A                      A                      A
 Frequencies --    241.5486               285.9502               356.5028
 Red. masses --      2.0444                 1.4955                 3.1336
 Frc consts  --      0.0703                 0.0720                 0.2346
 IR Inten    --      0.8021                 0.8939                 7.5387

                     10                     11                     12
                      A                      A                      A
 Frequencies --    362.1339               384.9394               425.1021
 Red. masses --      2.0657                 6.5228                 3.4726
 Frc consts  --      0.1596                 0.5695                 0.3697
 IR Inten    --      2.1543                26.5050                 2.3372

                     13                     14                     15
                      A                      A                      A
 Frequencies --    434.0333               472.2560               488.1899
 Red. masses --      1.9317                 1.6675                 1.4353
 Frc consts  --      0.2144                 0.2191                 0.2015
 IR Inten    --     11.3023                17.0283               287.8767

                     16                     17                     18
                      A                      A                      A
 Frequencies --    498.5366               547.2975               606.0852
 Red. masses --      2.5721                 2.4528                 4.1942
 Frc consts  --      0.3766                 0.4329                 0.9077
 IR Inten    --      0.9855                87.3529                19.3285

                     19                     20                     21
                      A                      A                      A
 Frequencies --    661.9263               752.8072               795.9331
 Red. masses --      8.5001                 1.2864                 3.9753
 Frc consts  --      2.1943                 0.4295                 1.4838
 IR Inten    --      6.6483                10.1422                 7.8513

                     22                     23                     24
                      A                      A                      A
 Frequencies --    807.1714               837.6208               889.1673
 Red. masses --      5.2721                 2.6963                 1.8787
 Frc consts  --      2.0238                 1.1146                 0.8751
 IR Inten    --     19.7570                 3.2861                 8.0917

                     25                     26                     27
                      A                      A                      A
 Frequencies --    904.5961               926.7234               967.8587
 Red. masses --      4.3239                 1.5555                 1.3717
 Frc consts  --      2.0847                 0.7871                 0.7571
 IR Inten    --      0.9234                15.9441                 1.0543

                     28                     29                     30
                      A                      A                      A
 Frequencies --    980.2373              1005.1921              1037.3610
 Red. masses --      1.8457                 1.5509                 2.3357
 Frc consts  --      1.0449                 0.9233                 1.4809
 IR Inten    --      3.8915                 9.7105                25.4116

                     31                     32                     33
                      A                      A                      A
 Frequencies --   1058.4070              1090.4314              1107.6678
 Red. masses --      2.6367                 1.6015                 2.4986
 Frc consts  --      1.7403                 1.1219                 1.8062
 IR Inten    --     18.6330                 2.5522                35.6482

                     34                     35                     36
                      A                      A                      A
 Frequencies --   1152.8859              1171.0332              1264.1775
 Red. masses --      1.8884                 2.1053                 1.6821
 Frc consts  --      1.4788                 1.7010                 1.5839
 IR Inten    --      5.4780                 5.2685                25.5485

                     37                     38                     39
                      A                      A                      A
 Frequencies --   1267.9491              1291.3379              1320.0419
 Red. masses --      2.0255                 1.3028                 2.8367
 Frc consts  --      1.9186                 1.2800                 2.9123
 IR Inten    --     54.2413                 1.9241               263.9116

                     40                     41                     42
                      A                      A                      A
 Frequencies --   1340.2634              1342.2678              1393.5073
 Red. masses --      1.1241                 1.4051                 1.3573
 Frc consts  --      1.1897                 1.4916                 1.5529
 IR Inten    --      2.4608                11.0439                11.0307

                     43                     44                     45
                      A                      A                      A
 Frequencies --   1404.5265              1410.7808              1441.3288
 Red. masses --      3.1290                 1.5009                 1.3548
 Frc consts  --      3.6368                 1.7600                 1.6583
 IR Inten    --     37.2632                 2.0668                30.0235

                     46                     47                     48
                      A                      A                      A
 Frequencies --   1445.7828              1457.9400              1505.2687
 Red. masses --      1.4212                 2.9408                 1.1059
 Frc consts  --      1.7502                 3.6830                 1.4764
 IR Inten    --      6.3062                19.3620                22.7989

                     49                     50                     51
                      A                      A                      A
 Frequencies --   1512.7690              1521.0519              1531.2310
 Red. masses --      2.5777                 1.0864                 1.0578
 Frc consts  --      3.4756                 1.4809                 1.4613
 IR Inten    --    470.9489                 9.4821                11.5811

                     52                     53                     54
                      A                      A                      A
 Frequencies --   1537.6610              1556.5052              1607.3070
 Red. masses --      1.0921                 1.0988                 6.3267
 Frc consts  --      1.5214                 1.5684                 9.6300
 IR Inten    --      8.6125                 2.1647                68.0438

                     55                     56                     57
                      A                      A                      A
 Frequencies --   1652.0995              1678.5567              3015.2797
 Red. masses --      1.6166                 3.4851                 1.0563
 Frc consts  --      2.5998                 5.7854                 5.6585
 IR Inten    --    142.2174               158.2337                23.1574

                     58                     59                     60
                      A                      A                      A
 Frequencies --   3039.3943              3045.6302              3052.2008
 Red. masses --      1.0628                 1.0417                 1.0652
 Frc consts  --      5.7848                 5.6934                 5.8465
 IR Inten    --     13.4616                26.2760                32.9242

                     61                     62                     63
                      A                      A                      A
 Frequencies --   3053.7286              3083.7911              3093.2416
 Red. masses --      1.1023                 1.0997                 1.0994
 Frc consts  --      6.0561                 6.1616                 6.1978
 IR Inten    --     47.7390                25.1354                25.3610

                     64                     65                     66
                      A                      A                      A
 Frequencies --   3113.6990              3119.3226              3178.0942
 Red. masses --      1.1008                 1.1023                 1.0912
 Frc consts  --      6.2878                 6.3193                 6.4938
 IR Inten    --     54.1884                55.3397                17.7883

                     67                     68                     69
                      A                      A                      A
 Frequencies --   3195.3786              3589.8073              3708.1861
 Red. masses --      1.0902                 1.0459                 1.1020
 Frc consts  --      6.5585                 7.9413                 8.9279
 IR Inten    --     26.7884                54.1176                31.5491

 - Thermochemistry -
 -------------------
 Temperature   298.150 Kelvin.  Pressure   1.00000 Atm.
 Atom     1 has atomic number  6 and mass  12.00000

 Molecular mass:   167.10586 amu.
 Principal axes and moments of inertia in atomic units:
                           1         2         3
     Eigenvalues --   674.071274677.445064806.63173
           X            0.99998   0.00102  -0.00676
           Y           -0.00129   0.99915  -0.04109
           Z            0.00671   0.04109   0.99913
 This molecule is an asymmetric top.
 Rotational symmetry number  1.
 Warning -- assumption of classical behavior for rotation
           may cause significant error
 Rotational temperatures (Kelvin)      0.12849     0.01852     0.01802
 Rotational constants (GHZ):           2.67737     0.38584     0.37547
 Zero-point vibrational energy     559849.2 (Joules/Mol)
                                  133.80717 (Kcal/Mol)
 Warning -- explicit consideration of  18 degrees of freedom as
           vibrations may cause significant error
 Vibrational temperatures:     40.78    62.20    97.39   166.13   208.34
          (Kelvin)            259.32   347.53   411.42   512.93   521.03
                              553.84   611.63   624.48   679.47   702.40
                              717.28   787.44   872.02   952.36  1083.12
                             1145.17  1161.34  1205.15  1279.31  1301.51
                             1333.35  1392.53  1410.34  1446.25  1492.53
                             1522.81  1568.89  1593.69  1658.75  1684.86
                             1818.87  1824.30  1857.95  1899.25  1928.34
                             1931.22  2004.95  2020.80  2029.80  2073.75
                             2080.16  2097.65  2165.75  2176.54  2188.45
                             2203.10  2212.35  2239.46  2312.56  2377.00
                             2415.07  4338.31  4373.01  4381.98  4391.44
                             4393.63  4436.89  4450.48  4479.92  4488.01
                             4572.57  4597.44  5164.93  5335.25

 Zero-point correction=                           0.213235 (Hartree/Particle)
 Thermal correction to Energy=                    0.225138
 Thermal correction to Enthalpy=                  0.226082
 Thermal correction to Gibbs Free Energy=         0.173903
 Sum of electronic and zero-point Energies=           -551.984894
 Sum of electronic and thermal Energies=              -551.972991
 Sum of electronic and thermal Enthalpies=            -551.972047
 Sum of electronic and thermal Free Energies=         -552.024226

                     E (Thermal)             CV                S
                      KCal/Mol        Cal/Mol-Kelvin    Cal/Mol-Kelvin
 Total                  141.276             44.384            109.821
 Electronic               0.000              0.000              0.000
 Translational            0.889              2.981             41.249
 Rotational               0.889              2.981             31.095
 Vibrational            139.499             38.422             37.478
 Vibration     1          0.593              1.984              5.942
 Vibration     2          0.595              1.980              5.105
 Vibration     3          0.598              1.970              4.219
 Vibration     4          0.608              1.937              3.175
 Vibration     5          0.616              1.908              2.739
 Vibration     6          0.629              1.867              2.326
 Vibration     7          0.658              1.777              1.791
 Vibration     8          0.684              1.700              1.498
 Vibration     9          0.732              1.562              1.137
 Vibration    10          0.736              1.550              1.113
 Vibration    11          0.754              1.502              1.020
 Vibration    12          0.787              1.416              0.875
 Vibration    13          0.795              1.396              0.846
 Vibration    14          0.829              1.312              0.731
 Vibration    15          0.844              1.276              0.688
 Vibration    16          0.854              1.253              0.662
 Vibration    17          0.903              1.146              0.550
 Vibration    18          0.965              1.019              0.439

                           ! Non-Optimized Parameters !
 Normal termination of Gaussian 16 at Wed Dec  9 18:08:24 2020.

 ----------------------------------------------------------------------
 # B3LYP/6-311++G(d,p) empiricaldispersion=gd3bj scf=xqc pop=npa geom=c
 heck
 ----------------------------------------------------------------------

 --------------------------------------
 CID_90066365_JID_2835_Energie_neutraal
 --------------------------------------
 Structure from the checkpoint file:  "JID_2835.chk"
 Charge =  0 Multiplicity = 1

 SCF Done:  E(RB3LYP) =  -552.357220720     A.U. after   14 cycles
 Normal termination of Gaussian 16 at Wed Dec  9 18:11:01 2020.

 ----------------------------------------------------------------------
 # B3LYP/6-311++G(d,p) empiricaldispersion=gd3bj scf=xqc pop=npa geom=c
 heck
 ----------------------------------------------------------------------

 ------------------------------------
 CID_90066365_JID_2835_Energie_kation
 ------------------------------------
 Structure from the checkpoint file:  "JID_2835.chk"
 Charge =  1 Multiplicity = 2

 SCF Done:  E(UB3LYP) =  -552.067270263     A.U. after   19 cycles
 Normal termination of Gaussian 16 at Wed Dec  9 18:15:30 2020.
 Gaussian 16:  ES64L-G16RevA.03 25-Dec-2016

 ----------------------------------------------------------------------
 # B3LYP/6-311++G(d,p) empiricaldispersion=gd3bj scf=xqc pop=npa geom=c
 heck
 ----------------------------------------------------------------------

 -----------------------------------
 CID_90066365_JID_2835_Energie_anion
 -----------------------------------
 Structure from the checkpoint file:  "JID_2835.chk"
 Charge = -1 Multiplicity = 2

                         Standard orientation:
 ---------------------------------------------------------------------
 Center     Atomic      Atomic             Coordinates (Angstroms)
 Number     Number       Type             X           Y           Z
 ---------------------------------------------------------------------
      1          6           0       -3.723305   -0.410757    1.538615
      2          6           0       -3.697730   -0.656203    0.027252
      3          6           0       -3.173122    0.532737   -0.790750
      4          6           0       -1.746226    0.939324   -0.453350
      5          8           0       -0.904534   -0.191662   -0.674716
      6          6           0        0.416554   -0.066342   -0.362423
      7          6           0        1.229383   -1.195430   -0.528524
      8          7           0        2.528819   -1.196160   -0.257043
      9          6           0        3.040922   -0.033829    0.199417
     10          7           0        2.366009    1.110209    0.377393
     11          6           0        1.057772    1.085363    0.096054
     12          7           0        4.372317   -0.040543    0.546108
     13          1           0       -2.713643   -0.283230    1.944563
     14          1           0       -4.180546   -1.255943    2.064297
     15          1           0       -4.300823    0.488576    1.787339
     16          1           0       -3.080329   -1.534725   -0.190915
     17          1           0       -4.711369   -0.891584   -0.321005
     18          1           0       -3.223031    0.293184   -1.859950
     19          1           0       -3.813421    1.411078   -0.630289
     20          1           0       -1.420950    1.775734   -1.088742
     21          1           0       -1.661929    1.261445    0.593851
     22          1           0        0.790678   -2.119992   -0.900335
     23          1           0        0.521730    2.019429    0.240770
     24          1           0        4.811539    0.867404    0.598296
     25          1           0        4.922866   -0.781796    0.136905
 ---------------------------------------------------------------------

 SCF Done:  E(UB3LYP) =  -552.347222389     A.U. after   33 cycles
 SCF Done:  E(UB3LYP) =  -552.347222389     a.u. after    1 cycles

 The electronic state is 2-A.
 Alpha  occ. eigenvalues --  -19.03380 -14.20906 -14.17079 -14.16975 -10.13704
 Alpha  occ. eigenvalues --  -10.11193 -10.10252 -10.07226 -10.06854 -10.06014
 Alpha  occ. eigenvalues --  -10.05590 -10.05101  -0.95026  -0.86778  -0.78010
 Alpha  occ. eigenvalues --   -0.75299  -0.69480  -0.64267  -0.60567  -0.55168
 Alpha  occ. eigenvalues --   -0.52807  -0.50426  -0.46320  -0.42237  -0.41969
 Alpha  occ. eigenvalues --   -0.40942  -0.37772  -0.36446  -0.34071  -0.32110
 Alpha  occ. eigenvalues --   -0.31077  -0.29933  -0.29642  -0.28656  -0.27575
 Alpha  occ. eigenvalues --   -0.25181  -0.24687  -0.22529  -0.22053  -0.21714
 Alpha  occ. eigenvalues --   -0.19008  -0.18790  -0.17975  -0.11879  -0.09215
 Alpha  occ. eigenvalues --    0.05017
 Alpha virt. eigenvalues --    0.06684   0.07812   0.08217   0.08850   0.09735
 Alpha virt. eigenvalues --    0.10669   0.11235   0.11692   0.12198   0.12610
 Alpha virt. eigenvalues --    0.13105   0.13597   0.13935   0.15078   0.15721

  Beta  occ. eigenvalues --  -19.03390 -14.20913 -14.16864 -14.16757 -10.13747
  Beta  occ. eigenvalues --  -10.11177 -10.10337 -10.07005 -10.06574 -10.05992
  Beta  occ. eigenvalues --  -10.05572 -10.05073  -0.95045  -0.86536  -0.77888
  Beta  occ. eigenvalues --   -0.74791  -0.69436  -0.64125  -0.60407  -0.54964
  Beta  occ. eigenvalues --   -0.52413  -0.50368  -0.46242  -0.42104  -0.41865
  Beta  occ. eigenvalues --   -0.40838  -0.37725  -0.36365  -0.34024  -0.31829
  Beta  occ. eigenvalues --   -0.30900  -0.29686  -0.29443  -0.28514  -0.27492
  Beta  occ. eigenvalues --   -0.25105  -0.24622  -0.22486  -0.21954  -0.21638
  Beta  occ. eigenvalues --   -0.18702  -0.17741  -0.17119  -0.11631  -0.08588
  Beta virt. eigenvalues --    0.07534   0.07814   0.08901   0.09172   0.09831
  Beta virt. eigenvalues --    0.10131   0.10833   0.11565   0.11973   0.12549
  Beta virt. eigenvalues --    0.12564   0.13271   0.13697   0.14117   0.15226

 Mulliken charges and spin densities:
               1          2
     1  C    0.841629  -1.392261
     2  C   -0.673089   0.527935
     3  C    0.494915  -0.936969
     4  C    0.018937  -0.238861
     5  O   -0.123317   0.019193
     6  C   -0.049519  -0.217732
     7  C   -0.212952   0.476429
     8  N   -0.238928   0.086511
     9  C   -0.117262  -0.084684
    10  N   -0.233623   0.103642
    11  C    0.083978   0.007441
    12  N   -0.258488  -0.001557
    13  H    0.045504   0.095508
    14  H   -0.336031   0.468480
    15  H   -0.135796   0.267877
    16  H    0.188831  -0.049909
    17  H   -0.559222   0.712922
    18  H   -0.060211   0.218687
    19  H   -0.408678   0.557775
    20  H   -0.122785   0.282642
    21  H    0.219749  -0.073014
    22  H    0.130461   0.019978
    23  H    0.027224   0.149838
    24  H    0.241515  -0.003249
    25  H    0.237156   0.003375
 Sum of Mulliken charges =  -1.00000   1.00000

 Dipole moment (field-independent basis, Debye):
    X=              6.2045    Y=              0.0800    Z=             -0.6364  Tot=              6.2375
 Quadrupole moment (field-independent basis, Debye-Ang):
   XX=           -147.7860   YY=            -98.5268   ZZ=            -95.6397
   XY=              1.8045   XZ=              0.0385   YZ=              2.9880

 Summary of Natural Population Analysis:

                                       Natural Population
                Natural  -----------------------------------------------
    Atom  No    Charge         Core      Valence    Rydberg      Total
 -----------------------------------------------------------------------
      C    1   -0.28818      0.99967     2.28281    0.00571     3.28818
      C    2   -0.19345      0.99964     2.18436    0.00945     3.19345
      C    3   -0.19654      0.99962     2.18678    0.01013     3.19654
      C    4   -0.01165      0.99957     1.99891    0.01317     3.01165
      O    5   -0.28320      0.99985     3.27371    0.00963     4.28320
      C    6    0.09217      0.99937     1.89783    0.01064     2.90783
      C    7    0.07875      0.99958     1.90708    0.01459     2.92125
      N    8   -0.24848      0.99968     2.73599    0.01281     3.74848
      C    9    0.27094      0.99964     1.71080    0.01861     2.72906
      N   10   -0.24888      0.99967     2.73688    0.01233     3.74888
      C   11    0.03871      0.99956     1.94887    0.01287     2.96129
      N   12   -0.40642      0.99970     2.89698    0.00973     3.90642
      H   13    0.09619      0.00000     0.40274    0.00107     0.40381
      H   14    0.09890      0.00000     0.40007    0.00103     0.40110
      H   15    0.09538      0.00000     0.40343    0.00119     0.40462
      H   16    0.09921      0.00000     0.39923    0.00156     0.40079
      H   17    0.09614      0.00000     0.40201    0.00186     0.40386
      H   18    0.09903      0.00000     0.39962    0.00135     0.40097
      H   19    0.09873      0.00000     0.39961    0.00166     0.40127
      H   20    0.08544      0.00000     0.41302    0.00154     0.41456
      H   21    0.08158      0.00000     0.41664    0.00178     0.41842
      H   22    0.08478      0.00000     0.41350    0.00172     0.41522
      H   23    0.08615      0.00000     0.41144    0.00241     0.41385
      H   24    0.18730      0.00000     0.31139    0.00131     0.31270
      H   25    0.18739      0.00000     0.31129    0.00132     0.31261
 =======================================================================
   * Total *   -0.00000     11.99555    32.84496    0.15949    45.00000

 Normal termination of Gaussian 16 at Wed Dec  9 18:22:57 2020.
