 Gaussian 16, Revision A.03,

 -----------------------------------------------------------
 # opt freq B3LYP/6-31G(d) empiricaldispersion=gd3bj scf=xqc
 -----------------------------------------------------------

 --------------------------------
 CID_102960640_JID_10002_neutraal
 --------------------------------
 Symbolic Z-matrix:
 Charge =  0 Multiplicity = 1

 SCF Done:  E(RB3LYP) =  -901.607502707     A.U. after   15 cycles
 SCF Done:  E(RB3LYP) =  -901.611335157     A.U. after   13 cycles
 SCF Done:  E(RB3LYP) =  -901.610896687     A.U. after   13 cycles
 SCF Done:  E(RB3LYP) =  -901.611887942     A.U. after   12 cycles
 SCF Done:  E(RB3LYP) =  -901.611988509     A.U. after   12 cycles
 SCF Done:  E(RB3LYP) =  -901.611988745     A.U. after   12 cycles
 SCF Done:  E(RB3LYP) =  -901.612010582     A.U. after   11 cycles
 SCF Done:  E(RB3LYP) =  -901.612017675     A.U. after   10 cycles
 SCF Done:  E(RB3LYP) =  -901.612019478     A.U. after    9 cycles
 SCF Done:  E(RB3LYP) =  -901.612020042     A.U. after    8 cycles
 SCF Done:  E(RB3LYP) =  -901.612020242     A.U. after    8 cycles
 SCF Done:  E(RB3LYP) =  -901.612020283     A.U. after    7 cycles
 SCF Done:  E(RB3LYP) =  -901.612020292     A.U. after    6 cycles
 Optimization completed.
    -- Stationary point found.
 Normal termination of Gaussian 16 at Mon Dec 14 17:27:48 2020.

 --------------------------------------------------------------------
 #N Geom=AllCheck Guess=TCheck SCRF=Check GenChk RB3LYP/6-31G(d) Freq
 --------------------------------------------------------------------

 Structure from the checkpoint file:  "JID_10002.chk"
 --------------------------------
 CID_102960640_JID_10002_neutraal
 --------------------------------
 Charge =  0 Multiplicity = 1

 SCF Done:  E(RB3LYP) =  -901.612020292     A.U. after    1 cycles

  Exact polarizability: 236.109   2.501 172.458  27.522  -9.979 125.987
 Approx polarizability: 295.451  11.137 324.440  49.729 -28.218 196.499

                      1                      2                      3
                      A                      A                      A
 Frequencies --     18.9046                25.8987                44.7836
 Red. masses --      5.1696                 4.1432                 4.0515
 Frc consts  --      0.0011                 0.0016                 0.0048
 IR Inten    --      0.4686                 0.1041                 0.4984

                      4                      5                      6
                      A                      A                      A
 Frequencies --     70.9162                77.3784               118.2708
 Red. masses --      2.6843                 3.3987                 4.3433
 Frc consts  --      0.0080                 0.0120                 0.0358
 IR Inten    --      0.9014                 2.1045                 0.1304

                      7                      8                      9
                      A                      A                      A
 Frequencies --    123.6459               145.1311               152.5107
 Red. masses --      6.8730                 2.6735                 3.3979
 Frc consts  --      0.0619                 0.0332                 0.0466
 IR Inten    --      2.9617                 0.4164                 5.5832

                     10                     11                     12
                      A                      A                      A
 Frequencies --    221.6402               233.3801               250.5955
 Red. masses --      1.7000                 3.9522                 4.6649
 Frc consts  --      0.0492                 0.1268                 0.1726
 IR Inten    --      3.2197                 2.6531                 1.6149

                     13                     14                     15
                      A                      A                      A
 Frequencies --    268.8690               296.5878               325.8588
 Red. masses --      2.7172                 5.7418                 2.4143
 Frc consts  --      0.1157                 0.2976                 0.1510
 IR Inten    --      3.9329                 1.3042                 2.0754

                     16                     17                     18
                      A                      A                      A
 Frequencies --    337.8977               385.7756               394.1663
 Red. masses --      3.5585                 2.6814                 3.2702
 Frc consts  --      0.2394                 0.2351                 0.2994
 IR Inten    --      1.5628                 2.1778                 5.0930

                     19                     20                     21
                      A                      A                      A
 Frequencies --    418.1360               421.3438               435.4204
 Red. masses --      3.2028                 2.0502                 3.0817
 Frc consts  --      0.3299                 0.2145                 0.3442
 IR Inten    --      1.0577                 7.0906                 4.4423

                     22                     23                     24
                      A                      A                      A
 Frequencies --    510.2618               513.6090               537.3617
 Red. masses --      3.3185                 6.1161                 2.7605
 Frc consts  --      0.5091                 0.9506                 0.4696
 IR Inten    --      1.7039                 3.5665                 1.5802

                     25                     26                     27
                      A                      A                      A
 Frequencies --    556.9539               582.7963               598.9883
 Red. masses --      3.3763                 4.1516                 4.7381
 Frc consts  --      0.6171                 0.8308                 1.0016
 IR Inten    --     17.7113                 0.4007                 4.1766

                     28                     29                     30
                      A                      A                      A
 Frequencies --    619.2184               671.4082               707.1416
 Red. masses --      4.0971                 6.0870                 2.8713
 Frc consts  --      0.9256                 1.6167                 0.8459
 IR Inten    --     12.2141                 5.2177                 0.7038

                     31                     32                     33
                      A                      A                      A
 Frequencies --    763.9180               768.4060               773.2153
 Red. masses --      3.2240                 1.4650                 3.8211
 Frc consts  --      1.1085                 0.5096                 1.3460
 IR Inten    --     13.6470                54.5227                 8.6135

                     34                     35                     36
                      A                      A                      A
 Frequencies --    799.5821               807.9059               839.3714
 Red. masses --      5.0382                 2.0134                 2.6343
 Frc consts  --      1.8978                 0.7743                 1.0935
 IR Inten    --     11.5471                27.6216                 4.0446

                     37                     38                     39
                      A                      A                      A
 Frequencies --    848.9741               870.5811               878.1077
 Red. masses --      2.5891                 5.5536                 2.3484
 Frc consts  --      1.0995                 2.4800                 1.0669
 IR Inten    --      8.9978                 9.8655                14.8961

                     40                     41                     42
                      A                      A                      A
 Frequencies --    878.8782               898.0136               924.7094
 Red. masses --      1.4155                 1.6932                 2.1423
 Frc consts  --      0.6442                 0.8045                 1.0793
 IR Inten    --      0.3987                16.8205                 9.5874

                     43                     44                     45
                      A                      A                      A
 Frequencies --    948.9165               954.9141               990.3247
 Red. masses --      1.3323                 3.5951                 1.2519
 Frc consts  --      0.7068                 1.9315                 0.7234
 IR Inten    --      2.5817                25.7253                 0.2360

                     46                     47                     48
                      A                      A                      A
 Frequencies --    992.7080              1023.7895              1035.6446
 Red. masses --      2.1704                 2.4652                 2.1194
 Frc consts  --      1.2602                 1.5224                 1.3393
 IR Inten    --      9.5875                 8.3133                12.0406

                     49                     50                     51
                      A                      A                      A
 Frequencies --   1039.3954              1058.6321              1094.8385
 Red. masses --      2.0603                 2.1750                 1.7409
 Frc consts  --      1.3114                 1.4362                 1.2295
 IR Inten    --      8.4778                 0.3881                22.1754

                     52                     53                     54
                      A                      A                      A
 Frequencies --   1118.0947              1124.1401              1145.3474
 Red. masses --      2.4636                 2.4753                 2.4402
 Frc consts  --      1.8146                 1.8430                 1.8861
 IR Inten    --     17.0500               113.0446                63.9102

                     55                     56                     57
                      A                      A                      A
 Frequencies --   1154.3883              1170.7961              1178.8086
 Red. masses --      2.5079                 2.0456                 1.5519
 Frc consts  --      1.9690                 1.6521                 1.2706
 IR Inten    --     22.5655                83.1343                14.2296

                     58                     59                     60
                      A                      A                      A
 Frequencies --   1183.7470              1191.3306              1194.7562
 Red. masses --      1.7566                 1.5046                 1.9548
 Frc consts  --      1.4502                 1.2581                 1.6441
 IR Inten    --     64.2524                14.4150                29.2836

                     61                     62                     63
                      A                      A                      A
 Frequencies --   1209.5834              1232.1395              1237.4523
 Red. masses --      1.3229                 1.5715                 1.5573
 Frc consts  --      1.1404                 1.4056                 1.4050
 IR Inten    --     19.9967                26.6451                 4.9588

                     64                     65                     66
                      A                      A                      A
 Frequencies --   1255.8793              1297.4246              1307.2907
 Red. masses --      2.5782                 1.6775                 1.1917
 Frc consts  --      2.3959                 1.6637                 1.1999
 IR Inten    --      1.7229                 1.6770                16.2678

                     67                     68                     69
                      A                      A                      A
 Frequencies --   1323.3838              1348.9875              1357.4839
 Red. masses --      1.8922                 1.4410                 1.6440
 Frc consts  --      1.9525                 1.5451                 1.7850
 IR Inten    --     43.2762                 9.7600                 7.5766

                     70                     71                     72
                      A                      A                      A
 Frequencies --   1367.7398              1371.5320              1380.2652
 Red. masses --      1.3521                 1.4962                 1.3786
 Frc consts  --      1.4903                 1.6583                 1.5474
 IR Inten    --     16.3288                 6.4661                 1.1557

                     73                     74                     75
                      A                      A                      A
 Frequencies --   1395.4522              1400.0694              1407.0291
 Red. masses --      5.9925                 1.4115                 3.0669
 Frc consts  --      6.8753                 1.6302                 3.5773
 IR Inten    --      2.4128                22.6532                28.4775

                     76                     77                     78
                      A                      A                      A
 Frequencies --   1414.6366              1425.6490              1441.4918
 Red. masses --      1.4147                 1.4729                 1.4441
 Frc consts  --      1.6681                 1.7638                 1.7680
 IR Inten    --      4.3519                20.3018                 8.8437

                     79                     80                     81
                      A                      A                      A
 Frequencies --   1491.4035              1495.3732              1501.0784
 Red. masses --      1.3970                 1.6571                 1.1364
 Frc consts  --      1.8307                 2.1832                 1.5087
 IR Inten    --     29.2700                 9.7047                 2.3484

                     82                     83                     84
                      A                      A                      A
 Frequencies --   1507.7059              1512.8325              1515.1941
 Red. masses --      1.0803                 1.1026                 1.0905
 Frc consts  --      1.4469                 1.4868                 1.4751
 IR Inten    --      5.9010                 5.1495                 5.1332

                     85                     86                     87
                      A                      A                      A
 Frequencies --   1527.7342              1528.2419              1535.5572
 Red. masses --      1.1996                 2.3242                 1.1003
 Frc consts  --      1.6496                 3.1982                 1.5286
 IR Inten    --     12.1714                18.2164                19.1409

                     88                     89                     90
                      A                      A                      A
 Frequencies --   1540.8073              1597.2315              1644.6740
 Red. masses --      1.0578                 5.4111                 6.7250
 Frc consts  --      1.4796                 8.1334                10.7177
 IR Inten    --      4.9139               126.3446                 3.5248

                     91                     92                     93
                      A                      A                      A
 Frequencies --   1676.0657              1742.6393              2926.6020
 Red. masses --      7.3004                11.1635                 1.0725
 Frc consts  --     12.0832                19.9741                 5.4124
 IR Inten    --      1.2874               131.9435                57.7226

                     94                     95                     96
                      A                      A                      A
 Frequencies --   2966.7760              2981.9485              2991.2839
 Red. masses --      1.0735                 1.0754                 1.0464
 Frc consts  --      5.5670                 5.6342                 5.5166
 IR Inten    --     13.8816                50.2276               100.6421

                     97                     98                     99
                      A                      A                      A
 Frequencies --   3036.4039              3043.8710              3055.2261
 Red. masses --      1.0955                 1.0722                 1.0613
 Frc consts  --      5.9510                 5.8529                 5.8367
 IR Inten    --     62.6064                32.5244                16.4754

                    100                    101                    102
                      A                      A                      A
 Frequencies --   3058.1373              3071.6199              3089.9773
 Red. masses --      1.0647                 1.0829                 1.0958
 Frc consts  --      5.8668                 6.0194                 6.1646
 IR Inten    --     28.3158                53.7815                55.4709

                    103                    104                    105
                      A                      A                      A
 Frequencies --   3107.1484              3109.4206              3109.9323
 Red. masses --      1.0965                 1.1003                 1.1017
 Frc consts  --      6.2369                 6.2676                 6.2780
 IR Inten    --      3.3871                19.5403                50.7448

                    106                    107                    108
                      A                      A                      A
 Frequencies --   3131.6257              3193.7793              3208.8539
 Red. masses --      1.0964                 1.0869                 1.0920
 Frc consts  --      6.3352                 6.5319                 6.6250
 IR Inten    --     35.4968                 4.8580                20.3312

                    109                    110                    111
                      A                      A                      A
 Frequencies --   3227.8092              3249.4286              3297.5588
 Red. masses --      1.0949                 1.0932                 1.0978
 Frc consts  --      6.7208                 6.8006                 7.0333
 IR Inten    --      9.5316                 1.6344                 0.2075

 - Thermochemistry -
 -------------------
 Temperature   298.150 Kelvin.  Pressure   1.00000 Atm.
 Atom     1 has atomic number  6 and mass  12.00000

 Molecular mass:   273.13649 amu.
 Principal axes and moments of inertia in atomic units:
                           1         2         3
     Eigenvalues --  2015.45534********************
           X            0.99999  -0.00301  -0.00255
           Y            0.00297   0.99988  -0.01534
           Z            0.00260   0.01534   0.99988
 This molecule is an asymmetric top.
 Rotational symmetry number  1.
 Warning -- assumption of classical behavior for rotation
           may cause significant error
 Rotational temperatures (Kelvin)      0.04297     0.00729     0.00703
 Rotational constants (GHZ):           0.89545     0.15183     0.14650
 Zero-point vibrational energy     864687.8 (Joules/Mol)
                                  206.66535 (Kcal/Mol)
 Warning -- explicit consideration of  28 degrees of freedom as
           vibrations may cause significant error
 Vibrational temperatures:     27.20    37.26    64.43   102.03   111.33
          (Kelvin)            170.17   177.90   208.81   219.43   318.89
                              335.78   360.55   386.84   426.72   468.84
                              486.16   555.05   567.12   601.60   606.22
                              626.47   734.15   738.97   773.14   801.33
                              838.51   861.81   890.92   966.01  1017.42
                             1099.11  1105.56  1112.48  1150.42  1162.40
                             1207.67  1221.48  1252.57  1263.40  1264.51
                             1292.04  1330.45  1365.28  1373.91  1424.86
                             1428.29  1473.00  1490.06  1495.46  1523.14
                             1575.23  1608.69  1617.39  1647.90  1660.91
                             1684.51  1696.04  1703.15  1714.06  1718.99
                             1740.32  1772.77  1780.42  1806.93  1866.70
                             1880.90  1904.05  1940.89  1953.12  1967.87
                             1973.33  1985.89  2007.74  2014.39  2024.40
                             2035.35  2051.19  2073.99  2145.80  2151.51
                             2159.72  2169.25  2176.63  2180.03  2198.07
                             2198.80  2209.32  2216.88  2298.06  2366.32
                             2411.48  2507.27  4210.73  4268.53  4290.36
                             4303.79  4368.71  4379.45  4395.79  4399.98
                             4419.38  4445.79  4470.49  4473.76  4474.50
                             4505.71  4595.14  4616.83  4644.10  4675.20
                             4744.45

 Zero-point correction=                           0.329342 (Hartree/Particle)
 Thermal correction to Energy=                    0.346816
 Thermal correction to Enthalpy=                  0.347760
 Thermal correction to Gibbs Free Energy=         0.282037
 Sum of electronic and zero-point Energies=           -901.282678
 Sum of electronic and thermal Energies=              -901.265204
 Sum of electronic and thermal Enthalpies=            -901.264260
 Sum of electronic and thermal Free Energies=         -901.329984

                     E (Thermal)             CV                S
                      KCal/Mol        Cal/Mol-Kelvin    Cal/Mol-Kelvin
 Total                  217.630             68.010            138.327
 Electronic               0.000              0.000              0.000
 Translational            0.889              2.981             42.713
 Rotational               0.889              2.981             34.045
 Vibrational            215.853             62.049             61.569
 Vibration     1          0.593              1.986              6.746
 Vibration     2          0.593              1.985              6.121
 Vibration     3          0.595              1.979              5.035
 Vibration     4          0.598              1.968              4.128
 Vibration     5          0.599              1.964              3.956
 Vibration     6          0.608              1.934              3.128
 Vibration     7          0.610              1.929              3.043
 Vibration     8          0.617              1.908              2.735
 Vibration     9          0.619              1.900              2.641
 Vibration    10          0.648              1.808              1.946
 Vibration    11          0.654              1.790              1.853
 Vibration    12          0.663              1.762              1.726
 Vibration    13          0.673              1.730              1.603
 Vibration    14          0.690              1.680              1.436
 Vibration    15          0.710              1.624              1.281
 Vibration    16          0.718              1.600              1.222
 Vibration    17          0.754              1.501              1.016
 Vibration    18          0.761              1.483              0.984
 Vibration    19          0.781              1.431              0.898
 Vibration    20          0.784              1.424              0.887
 Vibration    21          0.796              1.393              0.841
 Vibration    22          0.865              1.227              0.633
 Vibration    23          0.869              1.220              0.625
 Vibration    24          0.892              1.167              0.571
 Vibration    25          0.912              1.124              0.530
 Vibration    26          0.940              1.069              0.480
 Vibration    27          0.957              1.034              0.451
 Vibration    28          0.979              0.991              0.418

 Optimization completed.
    -- Stationary point found.
 Normal termination of Gaussian 16 at Mon Dec 14 17:47:51 2020.

 ----------------------------------------------------------------------
 # B3LYP/6-311++G(d,p) empiricaldispersion=gd3bj scf=xqc pop=npa geom=c
 heck
 ----------------------------------------------------------------------

 ----------------------------------------
 CID_102960640_JID_10002_Energie_neutraal
 ----------------------------------------
 Structure from the checkpoint file:  "JID_10002.chk"
 Charge =  0 Multiplicity = 1

 SCF Done:  E(RB3LYP) =  -901.854364299     A.U. after   15 cycles
 Normal termination of Gaussian 16 at Mon Dec 14 17:57:08 2020.

 ----------------------------------------------------------------------
 # B3LYP/6-311++G(d,p) empiricaldispersion=gd3bj scf=xqc pop=npa geom=c
 heck
 ----------------------------------------------------------------------

 --------------------------------------
 CID_102960640_JID_10002_Energie_kation
 --------------------------------------
 Structure from the checkpoint file:  "JID_10002.chk"
 Charge =  1 Multiplicity = 2

 SCF Done:  E(UB3LYP) =  -901.579475473     A.U. after   29 cycles
 Normal termination of Gaussian 16 at Mon Dec 14 18:22:30 2020.
 Gaussian 16:  ES64L-G16RevA.03 25-Dec-2016

 ----------------------------------------------------------------------
 # B3LYP/6-311++G(d,p) empiricaldispersion=gd3bj scf=xqc pop=npa geom=c
 heck
 ----------------------------------------------------------------------

 -------------------------------------
 CID_102960640_JID_10002_Energie_anion
 -------------------------------------
 Structure from the checkpoint file:  "JID_10002.chk"
 Charge = -1 Multiplicity = 2

                         Standard orientation:
 ---------------------------------------------------------------------
 Center     Atomic      Atomic             Coordinates (Angstroms)
 Number     Number       Type             X           Y           Z
 ---------------------------------------------------------------------
      1          6           0       -5.998714   -0.310127    0.185791
      2          8           0       -4.684373   -0.269916   -0.322751
      3          6           0       -3.690106   -0.707945    0.598341
      4          6           0       -3.409777    0.330990    1.693576
      5          6           0       -2.777101    1.584503    1.083171
      6          6           0       -1.517452    1.213771    0.298391
      7          7           0       -1.845502    0.239374   -0.739505
      8          6           0       -2.418906   -0.992095   -0.200894
      9          6           0       -0.794828    0.021080   -1.728278
     10          6           0        0.449680   -0.657459   -1.141621
     11          8           0        0.436157   -1.864131   -0.914602
     12          6           0        1.612634    0.158167   -0.771216
     13          6           0        1.807743    1.498181   -0.973411
     14          8           0        3.010791    1.925915   -0.505790
     15          6           0        3.638570    0.817697    0.030103
     16          6           0        4.892789    0.798698    0.622861
     17          6           0        5.325703   -0.439524    1.096846
     18          6           0        4.526557   -1.591237    0.973678
     19          6           0        3.270332   -1.546791    0.374456
     20          6           0        2.818073   -0.311985   -0.107504
     21          1           0       -6.667474   -0.065893   -0.643893
     22          1           0       -6.166071    0.418167    0.993615
     23          1           0       -6.255837   -1.311986    0.567514
     24          1           0       -4.019330   -1.654355    1.059947
     25          1           0       -4.327205    0.578324    2.239113
     26          1           0       -2.721734   -0.117637    2.423470
     27          1           0       -3.492157    2.055231    0.400226
     28          1           0       -2.524091    2.310806    1.864507
     29          1           0       -1.100501    2.103533   -0.188145
     30          1           0       -0.746705    0.840002    1.001289
     31          1           0       -1.712291   -1.536721    0.450727
     32          1           0       -2.662460   -1.652762   -1.037946
     33          1           0       -1.188613   -0.640333   -2.507138
     34          1           0       -0.550217    0.985185   -2.188948
     35          1           0        1.197043    2.263834   -1.426775
     36          1           0        5.494689    1.696623    0.708879
     37          1           0        6.300122   -0.514421    1.570133
     38          1           0        4.901353   -2.536282    1.355585
     39          1           0        2.648212   -2.427429    0.273767
 ---------------------------------------------------------------------

 SCF Done:  E(UB3LYP) =  -901.863919336     A.U. after   33 cycles
 SCF Done:  E(UB3LYP) =  -901.863919336     a.u. after    1 cycles

 The electronic state is 2-A.
 Alpha  occ. eigenvalues --  -19.04661 -19.02935 -18.92815 -14.18536 -10.12655
 Alpha  occ. eigenvalues --  -10.12175 -10.10145 -10.07935 -10.07598 -10.07417
 Alpha  occ. eigenvalues --  -10.07291 -10.06855 -10.06528 -10.06356 -10.05732
 Alpha  occ. eigenvalues --  -10.05662 -10.05133 -10.05010 -10.04411 -10.02560
 Alpha  occ. eigenvalues --   -0.97423  -0.94385  -0.86906  -0.80873  -0.73334
 Alpha  occ. eigenvalues --   -0.69678  -0.66805  -0.65485  -0.62582  -0.60993
 Alpha  occ. eigenvalues --   -0.59299  -0.58526  -0.52093  -0.51652  -0.50823
 Alpha  occ. eigenvalues --   -0.48336  -0.46362  -0.44745  -0.42080  -0.39870
 Alpha  occ. eigenvalues --   -0.38882  -0.37682  -0.37315  -0.36809  -0.35910
 Alpha  occ. eigenvalues --   -0.34828  -0.34033  -0.33264  -0.32870  -0.32035
 Alpha  occ. eigenvalues --   -0.31719  -0.30530  -0.29729  -0.28895  -0.28502
 Alpha  occ. eigenvalues --   -0.27415  -0.26755  -0.26181  -0.25203  -0.24147
 Alpha  occ. eigenvalues --   -0.23779  -0.23339  -0.23175  -0.22801  -0.21909
 Alpha  occ. eigenvalues --   -0.21147  -0.20515  -0.16874  -0.15877  -0.12225
 Alpha  occ. eigenvalues --   -0.12084  -0.10231  -0.07291   0.04288
 Alpha virt. eigenvalues --    0.05582   0.07869   0.08090   0.08301   0.08956
 Alpha virt. eigenvalues --    0.09690   0.09985   0.10281   0.10701   0.10853
 Alpha virt. eigenvalues --    0.11438   0.11663   0.12037   0.12472   0.13110

  Beta  occ. eigenvalues --  -19.04501 -19.02932 -18.92364 -14.18499 -10.12642
  Beta  occ. eigenvalues --  -10.12173 -10.10191 -10.07933 -10.07598 -10.07287
  Beta  occ. eigenvalues --  -10.07095 -10.06526 -10.06379 -10.06219 -10.05728
  Beta  occ. eigenvalues --  -10.05578 -10.05115 -10.05014 -10.04349 -10.02611
  Beta  occ. eigenvalues --   -0.97054  -0.94379  -0.86101  -0.80788  -0.73264
  Beta  occ. eigenvalues --   -0.69645  -0.66548  -0.65474  -0.62460  -0.60632
  Beta  occ. eigenvalues --   -0.59255  -0.58353  -0.52050  -0.51446  -0.50472
  Beta  occ. eigenvalues --   -0.48119  -0.46019  -0.44715  -0.41826  -0.39792
  Beta  occ. eigenvalues --   -0.38867  -0.37480  -0.37299  -0.36577  -0.35778
  Beta  occ. eigenvalues --   -0.34708  -0.33915  -0.33161  -0.32149  -0.31884
  Beta  occ. eigenvalues --   -0.31563  -0.30414  -0.29629  -0.28872  -0.28371
  Beta  occ. eigenvalues --   -0.27140  -0.26635  -0.26086  -0.25119  -0.24035
  Beta  occ. eigenvalues --   -0.23416  -0.23092  -0.22812  -0.22485  -0.21240
  Beta  occ. eigenvalues --   -0.20859  -0.20104  -0.16864  -0.15045  -0.11847
  Beta  occ. eigenvalues --   -0.11771  -0.08471  -0.07035
  Beta virt. eigenvalues --    0.05721   0.07827   0.08062   0.08239   0.08918
  Beta virt. eigenvalues --    0.09673   0.09812   0.10287   0.10680   0.10762
  Beta virt. eigenvalues --    0.11338   0.11488   0.11843   0.12426   0.12753

 Mulliken charges and spin densities:
               1          2
     1  C    0.079442  -0.328090
     2  O   -0.077796   0.006919
     3  C   -0.464882   0.124136
     4  C   -0.145115  -0.117767
     5  C   -0.303408  -0.101470
     6  C   -0.438264   0.050003
     7  N    0.218903   0.024269
     8  C   -0.349423  -0.041939
     9  C   -0.354771  -0.004460
    10  C   -0.309709   0.229022
    11  O   -0.369676   0.157379
    12  C    0.611815  -0.101770
    13  C   -0.371636   0.504581
    14  O   -0.078945   0.014281
    15  C   -0.127174  -0.074167
    16  C   -0.639963   0.074107
    17  C   -0.270453  -0.004033
    18  C   -0.444032   0.012242
    19  C   -0.573585   0.050865
    20  C    1.254215  -0.017581
    21  H    0.035959   0.100886
    22  H   -0.000277   0.124973
    23  H    0.004496   0.106380
    24  H    0.107965   0.053805
    25  H    0.085676   0.067005
    26  H    0.122329  -0.002224
    27  H    0.152912   0.004013
    28  H    0.128625   0.011028
    29  H    0.138619  -0.009557
    30  H    0.142231   0.005037
    31  H    0.170922  -0.015841
    32  H    0.163989   0.024357
    33  H    0.136622   0.049338
    34  H    0.085716   0.043123
    35  H    0.121287  -0.009140
    36  H    0.133550  -0.004972
    37  H    0.118454  -0.000067
    38  H    0.126025  -0.001217
    39  H    0.179357  -0.003456
 Sum of Mulliken charges =  -1.00000   1.00000

 Dipole moment (field-independent basis, Debye):
    X=             -3.2605    Y=              1.9314    Z=              2.7744  Tot=              4.6966
 Quadrupole moment (field-independent basis, Debye-Ang):
   XX=           -181.5310   YY=           -138.7317   ZZ=           -135.1184
   XY=              0.6735   XZ=             -1.4670   YZ=             -2.5779

 Summary of Natural Population Analysis:

                                       Natural Population
                Natural  -----------------------------------------------
    Atom  No    Charge         Core      Valence    Rydberg      Total
 -----------------------------------------------------------------------
      C    1   -0.09626      0.99961     2.08822    0.00842     3.09626
      O    2   -0.30072      0.99988     3.28932    0.01153     4.30072
      C    3    0.06040      0.99954     1.92133    0.01874     2.93960
      C    4   -0.20309      0.99961     2.19610    0.00738     3.20309
      C    5   -0.19545      0.99963     2.18738    0.00844     3.19545
      C    6   -0.08256      0.99962     2.07342    0.00951     3.08256
      N    7   -0.27428      0.99971     2.76176    0.01281     3.77428
      C    8   -0.09135      0.99959     2.07989    0.01188     3.09135
      C    9   -0.11604      0.99960     2.10381    0.01264     3.11604
      C   10    0.29421      0.99961     1.68590    0.02029     2.70579
      O   11   -0.27075      0.99988     3.26447    0.00640     4.27075
      C   12   -0.13262      0.99946     2.11968    0.01349     3.13262
      C   13    0.21860      0.99948     1.76737    0.01455     2.78140
      O   14   -0.23385      0.99986     3.22565    0.00834     4.23385
      C   15    0.14137      0.99935     1.84670    0.01259     2.85863
      C   16   -0.11363      0.99951     2.10477    0.00934     3.11363
      C   17   -0.12697      0.99962     2.11514    0.01222     3.12697
      C   18   -0.11657      0.99946     2.10301    0.01409     3.11657
      C   19   -0.05719      0.99956     2.05174    0.00589     3.05719
      C   20   -0.05075      0.99949     2.03825    0.01301     3.05075
      H   21    0.08823      0.00000     0.41052    0.00125     0.41177
      H   22    0.07499      0.00000     0.42318    0.00183     0.42501
      H   23    0.07413      0.00000     0.42397    0.00191     0.42587
      H   24    0.08023      0.00000     0.41846    0.00131     0.41977
      H   25    0.09525      0.00000     0.40340    0.00135     0.40475
      H   26    0.09929      0.00000     0.39918    0.00153     0.40071
      H   27    0.09991      0.00000     0.39830    0.00179     0.40009
      H   28    0.09431      0.00000     0.40444    0.00126     0.40569
      H   29    0.09631      0.00000     0.40248    0.00121     0.40369
      H   30    0.08356      0.00000     0.41454    0.00190     0.41644
      H   31    0.09447      0.00000     0.40387    0.00167     0.40553
      H   32    0.10310      0.00000     0.39549    0.00141     0.39690
      H   33    0.09874      0.00000     0.39977    0.00149     0.40126
      H   34    0.09080      0.00000     0.40793    0.00127     0.40920
      H   35    0.08003      0.00000     0.41910    0.00087     0.41997
      H   36    0.09916      0.00000     0.39979    0.00105     0.40084
      H   37    0.09173      0.00000     0.40714    0.00113     0.40827
      H   38    0.09368      0.00000     0.40558    0.00074     0.40632
      H   39    0.10964      0.00000     0.38889    0.00147     0.39036
 =======================================================================
   * Total *    0.00005     19.99205    52.74992    0.25798    72.99995

 Normal termination of Gaussian 16 at Mon Dec 14 18:52:31 2020.
