 Gaussian 16, Revision A.03,

 -----------------------------------------------------------
 # opt freq B3LYP/6-31G(d) empiricaldispersion=gd3bj scf=xqc
 -----------------------------------------------------------

 ------------------------------
 CID_79977237_JID_3964_neutraal
 ------------------------------
 Symbolic Z-matrix:
 Charge =  0 Multiplicity = 1

 SCF Done:  E(RB3LYP) =  -539.719197769     A.U. after   15 cycles
 SCF Done:  E(RB3LYP) =  -539.721381405     A.U. after   13 cycles
 SCF Done:  E(RB3LYP) =  -539.721258558     A.U. after   12 cycles
 SCF Done:  E(RB3LYP) =  -539.721157022     A.U. after   13 cycles
 SCF Done:  E(RB3LYP) =  -539.721791643     A.U. after   13 cycles
 SCF Done:  E(RB3LYP) =  -539.721839416     A.U. after   12 cycles
 SCF Done:  E(RB3LYP) =  -539.721865241     A.U. after   13 cycles
 SCF Done:  E(RB3LYP) =  -539.721868009     A.U. after   10 cycles
 SCF Done:  E(RB3LYP) =  -539.721869880     A.U. after   10 cycles
 SCF Done:  E(RB3LYP) =  -539.721871659     A.U. after   10 cycles
 SCF Done:  E(RB3LYP) =  -539.723140707     A.U. after   15 cycles
 SCF Done:  E(RB3LYP) =  -539.724011922     A.U. after   12 cycles
 SCF Done:  E(RB3LYP) =  -539.724049217     A.U. after   11 cycles
 SCF Done:  E(RB3LYP) =  -539.724054051     A.U. after   10 cycles
 SCF Done:  E(RB3LYP) =  -539.724055575     A.U. after    9 cycles
 SCF Done:  E(RB3LYP) =  -539.724055829     A.U. after    8 cycles
 Optimization completed.
    -- Stationary point found.
 Normal termination of Gaussian 16 at Sun Dec 13 20:17:47 2020.

 --------------------------------------------------------------------
 #N Geom=AllCheck Guess=TCheck SCRF=Check GenChk RB3LYP/6-31G(d) Freq
 --------------------------------------------------------------------

 Structure from the checkpoint file:  "JID_3964.chk"
 ------------------------------
 CID_79977237_JID_3964_neutraal
 ------------------------------
 Charge =  0 Multiplicity = 1

 SCF Done:  E(RB3LYP) =  -539.724055829     A.U. after    1 cycles

  Exact polarizability: 264.867   4.632 116.241  -0.001   0.005  59.030
 Approx polarizability: 383.600  24.136 203.372   0.002   0.010  88.840

                      1                      2                      3
                      A                      A                      A
 Frequencies --     33.1267                70.0439                87.1749
 Red. masses --      5.2576                 3.3305                 6.2001
 Frc consts  --      0.0034                 0.0096                 0.0278
 IR Inten    --      1.0937                 1.1073                 2.9633

                      4                      5                      6
                      A                      A                      A
 Frequencies --    103.2762               132.7987               181.0004
 Red. masses --      1.9313                 4.0197                 4.0764
 Frc consts  --      0.0121                 0.0418                 0.0787
 IR Inten    --      2.2831                 1.6108                 0.6564

                      7                      8                      9
                      A                      A                      A
 Frequencies --    205.2127               268.4993               318.8534
 Red. masses --      3.3184                 5.3402                 2.9736
 Frc consts  --      0.0823                 0.2268                 0.1781
 IR Inten    --      2.0914                 6.1277                 2.1664

                     10                     11                     12
                      A                      A                      A
 Frequencies --    350.9002               411.1294               412.8064
 Red. masses --      5.0316                 4.3319                 3.0227
 Frc consts  --      0.3650                 0.4314                 0.3035
 IR Inten    --      4.1010                 0.1681                 0.0382

                     13                     14                     15
                      A                      A                      A
 Frequencies --    441.1203               554.6387               565.3216
 Red. masses --      3.2010                 2.2356                 3.6946
 Frc consts  --      0.3670                 0.4052                 0.6957
 IR Inten    --      0.1217                 7.4729                 5.8568

                     16                     17                     18
                      A                      A                      A
 Frequencies --    593.4193               657.6538               734.9447
 Red. masses --      3.8070                 6.7525                 2.9431
 Frc consts  --      0.7899                 1.7207                 0.9366
 IR Inten    --     11.9293                 0.5950                 7.1394

                     19                     20                     21
                      A                      A                      A
 Frequencies --    738.3991               804.5435               828.4580
 Red. masses --      3.1895                 1.1282                 1.9708
 Frc consts  --      1.0246                 0.4303                 0.7970
 IR Inten    --      0.6188                 0.0680                35.7315

                     22                     23                     24
                      A                      A                      A
 Frequencies --    829.1668               843.6181               872.5273
 Red. masses --      1.2853                 1.3627                 4.7226
 Frc consts  --      0.5206                 0.5714                 2.1183
 IR Inten    --      5.3545                 0.9860                 0.2734

                     25                     26                     27
                      A                      A                      A
 Frequencies --    878.9775               923.0513               931.1552
 Red. masses --      1.7413                 2.2616                 3.5429
 Frc consts  --      0.7926                 1.1353                 1.8099
 IR Inten    --      1.0175                 1.2984                41.7443

                     28                     29                     30
                      A                      A                      A
 Frequencies --    961.1841               969.4680              1005.3029
 Red. masses --      1.3359                 1.3556                 1.4449
 Frc consts  --      0.7271                 0.7507                 0.8603
 IR Inten    --      0.0457                 1.9963                20.8021

                     31                     32                     33
                      A                      A                      A
 Frequencies --   1038.2288              1040.6190              1065.6717
 Red. masses --      2.7809                 1.3400                 1.3884
 Frc consts  --      1.7661                 0.8550                 0.9290
 IR Inten    --      3.7111                 9.4278                52.8135

                     34                     35                     36
                      A                      A                      A
 Frequencies --   1077.1722              1083.4295              1136.9133
 Red. masses --      1.4844                 1.3241                 1.1048
 Frc consts  --      1.0148                 0.9157                 0.8414
 IR Inten    --     30.8597                 3.2715                 0.8432

                     37                     38                     39
                      A                      A                      A
 Frequencies --   1150.6702              1158.6194              1214.7674
 Red. masses --      2.0970                 1.9733                 2.1904
 Frc consts  --      1.6358                 1.5607                 1.9044
 IR Inten    --     74.3178               173.6094                 8.0584

                     40                     41                     42
                      A                      A                      A
 Frequencies --   1215.0803              1224.3580              1247.7285
 Red. masses --      1.3907                 1.2929                 1.4304
 Frc consts  --      1.2098                 1.1419                 1.3121
 IR Inten    --      0.5319                12.0813                 7.1011

                     43                     44                     45
                      A                      A                      A
 Frequencies --   1267.0240              1292.7111              1342.6566
 Red. masses --      1.7224                 2.1387                 1.7526
 Frc consts  --      1.6291                 2.1057                 1.8615
 IR Inten    --     18.8151                15.6019                17.5045

                     46                     47                     48
                      A                      A                      A
 Frequencies --   1353.4446              1374.4518              1426.6765
 Red. masses --      2.7472                 1.6086                 1.9882
 Frc consts  --      2.9649                 1.7905                 2.3843
 IR Inten    --      0.7748                10.4578                 1.0552

                     49                     50                     51
                      A                      A                      A
 Frequencies --   1441.9702              1477.1699              1497.5326
 Red. masses --      1.2735                 2.1910                 1.0863
 Frc consts  --      1.5601                 2.8168                 1.4353
 IR Inten    --      2.1485                14.5564                 1.9140

                     52                     53                     54
                      A                      A                      A
 Frequencies --   1534.2260              1567.5583              1616.2056
 Red. masses --      1.3569                 2.4993                 5.7004
 Frc consts  --      1.8818                 3.6184                 8.7729
 IR Inten    --      8.3611                20.8316                10.2571

                     55                     56                     57
                      A                      A                      A
 Frequencies --   1669.2252              1696.5590              1785.4717
 Red. masses --      5.4318                 5.3208                 9.3284
 Frc consts  --      8.9171                 9.0232                17.5212
 IR Inten    --    217.3347                98.7944               456.1469

                     58                     59                     60
                      A                      A                      A
 Frequencies --   2884.3937              3137.6607              3150.1657
 Red. masses --      1.0828                 1.0874                 1.0503
 Frc consts  --      5.3078                 6.3074                 6.1406
 IR Inten    --    151.4630                15.7049                19.2987

                     61                     62                     63
                      A                      A                      A
 Frequencies --   3152.5020              3168.5335              3180.5468
 Red. masses --      1.0586                 1.0897                 1.0869
 Frc consts  --      6.1984                 6.4458                 6.4782
 IR Inten    --     11.3558                 8.0490                17.7588

                     64                     65                     66
                      A                      A                      A
 Frequencies --   3186.3683              3198.9427              3201.0390
 Red. masses --      1.0880                 1.0936                 1.0915
 Frc consts  --      6.5085                 6.5935                 6.5897
 IR Inten    --     15.0221                19.7614                 2.4071

                     67                     68                     69
                      A                      A                      A
 Frequencies --   3212.7291              3225.5890              3239.9105
 Red. masses --      1.0920                 1.1200                 1.1161
 Frc consts  --      6.6409                 6.8658                 6.9027
 IR Inten    --     13.0516                 0.1868                21.3899

 - Thermochemistry -
 -------------------
 Temperature   298.150 Kelvin.  Pressure   1.00000 Atm.
 Atom     1 has atomic number  6 and mass  12.00000

 Molecular mass:   172.08882 amu.
 Principal axes and moments of inertia in atomic units:
                           1         2         3
     Eigenvalues --   479.161166550.884386887.54027
           X            1.00000  -0.00260  -0.00000
           Y            0.00260   1.00000   0.00001
           Z            0.00000  -0.00001   1.00000
 This molecule is an asymmetric top.
 Rotational symmetry number  1.
 Warning -- assumption of classical behavior for rotation
           may cause significant error
 Rotational temperatures (Kelvin)      0.18076     0.01322     0.01258
 Rotational constants (GHZ):           3.76646     0.27550     0.26203
 Zero-point vibrational energy     542161.3 (Joules/Mol)
                                  129.57967 (Kcal/Mol)
 Warning -- explicit consideration of  16 degrees of freedom as
           vibrations may cause significant error
 Vibrational temperatures:     47.66   100.78   125.43   148.59   191.07
          (Kelvin)            260.42   295.26   386.31   458.76   504.87
                              591.52   593.94   634.67   798.00   813.37
                              853.80   946.22  1057.42  1062.39  1157.56
                             1191.97  1192.99  1213.78  1255.37  1264.65
                             1328.06  1339.72  1382.93  1394.85  1446.41
                             1493.78  1497.22  1533.26  1549.81  1558.81
                             1635.76  1655.56  1666.99  1747.78  1748.23
                             1761.58  1795.20  1822.96  1859.92  1931.78
                             1947.30  1977.53  2052.67  2074.67  2125.32
                             2154.62  2207.41  2255.37  2325.36  2401.64
                             2440.97  2568.90  4150.00  4514.39  4532.39
                             4535.75  4558.81  4576.10  4584.47  4602.57
                             4605.58  4622.40  4640.90  4661.51

 Zero-point correction=                           0.206498 (Hartree/Particle)
 Thermal correction to Energy=                    0.218225
 Thermal correction to Enthalpy=                  0.219169
 Thermal correction to Gibbs Free Energy=         0.167550
 Sum of electronic and zero-point Energies=           -539.517557
 Sum of electronic and thermal Energies=              -539.505831
 Sum of electronic and thermal Enthalpies=            -539.504886
 Sum of electronic and thermal Free Energies=         -539.556505

                     E (Thermal)             CV                S
                      KCal/Mol        Cal/Mol-Kelvin    Cal/Mol-Kelvin
 Total                  136.938             44.364            108.641
 Electronic               0.000              0.000              0.000
 Translational            0.889              2.981             41.336
 Rotational               0.889              2.981             31.448
 Vibrational            135.161             38.402             35.858
 Vibration     1          0.594              1.983              5.633
 Vibration     2          0.598              1.968              4.152
 Vibration     3          0.601              1.958              3.722
 Vibration     4          0.605              1.947              3.392
 Vibration     5          0.613              1.921              2.905
 Vibration     6          0.630              1.866              2.318
 Vibration     7          0.640              1.832              2.086
 Vibration     8          0.673              1.731              1.606
 Vibration     9          0.705              1.638              1.316
 Vibration    10          0.728              1.573              1.162
 Vibration    11          0.775              1.446              0.923
 Vibration    12          0.777              1.442              0.917
 Vibration    13          0.801              1.380              0.823
 Vibration    14          0.910              1.130              0.535
 Vibration    15          0.921              1.106              0.513
 Vibration    16          0.951              1.046              0.461

                           ! Non-Optimized Parameters !
 Normal termination of Gaussian 16 at Sun Dec 13 20:23:13 2020.

 ----------------------------------------------------------------------
 # B3LYP/6-311++G(d,p) empiricaldispersion=gd3bj scf=xqc pop=npa geom=c
 heck
 ----------------------------------------------------------------------

 --------------------------------------
 CID_79977237_JID_3964_Energie_neutraal
 --------------------------------------
 Structure from the checkpoint file:  "JID_3964.chk"
 Charge =  0 Multiplicity = 1

 SCF Done:  E(RB3LYP) =  -539.869420967     A.U. after   15 cycles
 Normal termination of Gaussian 16 at Sun Dec 13 20:25:47 2020.

 ----------------------------------------------------------------------
 # B3LYP/6-311++G(d,p) empiricaldispersion=gd3bj scf=xqc pop=npa geom=c
 heck
 ----------------------------------------------------------------------

 ------------------------------------
 CID_79977237_JID_3964_Energie_kation
 ------------------------------------
 Structure from the checkpoint file:  "JID_3964.chk"
 Charge =  1 Multiplicity = 2

 SCF Done:  E(UB3LYP) =  -539.571273057     A.U. after   27 cycles
 Normal termination of Gaussian 16 at Sun Dec 13 20:32:21 2020.
 Gaussian 16:  ES64L-G16RevA.03 25-Dec-2016

 ----------------------------------------------------------------------
 # B3LYP/6-311++G(d,p) empiricaldispersion=gd3bj scf=xqc pop=npa geom=c
 heck
 ----------------------------------------------------------------------

 -----------------------------------
 CID_79977237_JID_3964_Energie_anion
 -----------------------------------
 Structure from the checkpoint file:  "JID_3964.chk"
 Charge = -1 Multiplicity = 2

                         Standard orientation:
 ---------------------------------------------------------------------
 Center     Atomic      Atomic             Coordinates (Angstroms)
 Number     Number       Type             X           Y           Z
 ---------------------------------------------------------------------
      1          6           0        4.398962    0.216360   -0.749020
      2          6           0        4.398655    0.216572    0.748855
      3          6           0        3.393053   -0.641323   -0.000034
      4          6           0        1.946504   -0.307045   -0.000195
      5          6           0        0.994002   -1.339811    0.000161
      6          6           0       -0.366688   -1.069808    0.000448
      7          6           0       -0.838325    0.255793    0.000296
      8          6           0        0.116246    1.288793   -0.000036
      9          6           0        1.477690    1.015515   -0.000288
     10          6           0       -2.254160    0.596976    0.000422
     11          6           0       -3.313076   -0.240274   -0.000237
     12          6           0       -4.677048    0.286059    0.000036
     13          8           0       -5.685273   -0.398999   -0.000440
     14          1           0        5.203779   -0.294029   -1.269996
     15          1           0        4.014486    1.089969   -1.267905
     16          1           0        5.203404   -0.293593    1.270189
     17          1           0        4.014220    1.090315    1.267566
     18          1           0        3.595137   -1.709263    0.000140
     19          1           0        1.334180   -2.372055    0.000171
     20          1           0       -1.072036   -1.894784    0.000806
     21          1           0       -0.223086    2.321714   -0.000136
     22          1           0        2.181542    1.843020   -0.000544
     23          1           0       -2.469357    1.667112    0.001070
     24          1           0       -3.212373   -1.322283   -0.001016
     25          1           0       -4.742608    1.399025    0.000716
 ---------------------------------------------------------------------

 SCF Done:  E(UB3LYP) =  -539.897059435     A.U. after   22 cycles

 The electronic state is 2-A.
 Alpha  occ. eigenvalues --  -18.92821 -10.08019 -10.07761 -10.07734 -10.06945
 Alpha  occ. eigenvalues --  -10.04347 -10.04262 -10.04199 -10.03745 -10.03361
 Alpha  occ. eigenvalues --  -10.03015 -10.01348 -10.00018  -0.86361  -0.76781
 Alpha  occ. eigenvalues --   -0.72099  -0.65171  -0.61638  -0.60029  -0.52605
 Alpha  occ. eigenvalues --   -0.50926  -0.48116  -0.46832  -0.43588  -0.40753
 Alpha  occ. eigenvalues --   -0.39614  -0.38414  -0.33752  -0.33009  -0.31989
 Alpha  occ. eigenvalues --   -0.29287  -0.28227  -0.27899  -0.27775  -0.25476
 Alpha  occ. eigenvalues --   -0.25383  -0.23242  -0.22907  -0.22374  -0.20989
 Alpha  occ. eigenvalues --   -0.20433  -0.19825  -0.15124  -0.12898  -0.08695
 Alpha  occ. eigenvalues --   -0.08658   0.03149
 Alpha virt. eigenvalues --    0.06755   0.08525   0.08868   0.09640   0.10818
 Alpha virt. eigenvalues --    0.11247   0.11652   0.12317   0.12919   0.13452
 Alpha virt. eigenvalues --    0.13592   0.14067   0.15857   0.16228   0.16231

  Beta  occ. eigenvalues --  -18.92362 -10.08051 -10.07721 -10.07694 -10.06793
  Beta  occ. eigenvalues --  -10.04367 -10.04254 -10.04018 -10.03635 -10.03317
  Beta  occ. eigenvalues --  -10.02806 -10.00999  -9.99872  -0.85551  -0.76654
  Beta  occ. eigenvalues --   -0.71826  -0.64576  -0.61419  -0.59519  -0.52210
  Beta  occ. eigenvalues --   -0.50834  -0.47914  -0.46380  -0.43233  -0.40591
  Beta  occ. eigenvalues --   -0.39354  -0.38316  -0.33543  -0.32836  -0.31819
  Beta  occ. eigenvalues --   -0.29220  -0.28000  -0.27822  -0.27543  -0.25058
  Beta  occ. eigenvalues --   -0.24759  -0.22758  -0.22157  -0.21395  -0.20244
  Beta  occ. eigenvalues --   -0.20137  -0.19706  -0.13570  -0.12267  -0.08268
  Beta  occ. eigenvalues --   -0.06963
  Beta virt. eigenvalues --    0.06716   0.08483   0.08685   0.09170   0.09611
  Beta virt. eigenvalues --    0.10798   0.11604   0.11631   0.12368   0.12897
  Beta virt. eigenvalues --    0.13566   0.14034   0.14829   0.15829   0.16220

 Mulliken charges and spin densities:
               1          2
     1  C   -0.438948   0.010602
     2  C   -0.438633   0.010632
     3  C    0.130101  -0.027287
     4  C    0.440540   0.205775
     5  C   -0.803034  -0.073110
     6  C   -1.118587   0.175593
     7  C    1.385530   0.023025
     8  C   -0.148370   0.117644
     9  C   -0.526650  -0.004271
    10  C   -0.033924   0.183762
    11  C   -0.143943   0.116006
    12  C   -0.162459   0.151410
    13  O   -0.386704   0.148054
    14  H    0.113839   0.007393
    15  H    0.138173  -0.002088
    16  H    0.113786   0.007375
    17  H    0.138190  -0.002092
    18  H    0.238828   0.001133
    19  H    0.095226   0.005205
    20  H    0.046012  -0.011806
    21  H    0.119856  -0.003363
    22  H    0.100663   0.001744
    23  H    0.005287  -0.022121
    24  H    0.117945  -0.010457
    25  H    0.017277  -0.008759
 Sum of Mulliken charges =  -1.00000   1.00000

 Dipole moment (field-independent basis, Debye):
    X=             11.9892    Y=              0.8509    Z=              0.0012  Tot=             12.0193
 Quadrupole moment (field-independent basis, Debye-Ang):
   XX=           -170.9063   YY=            -80.7935   ZZ=            -87.8054
   XY=             -8.1543   XZ=             -0.0055   YZ=              0.0000

 Summary of Natural Population Analysis:

                                       Natural Population
                Natural  -----------------------------------------------
    Atom  No    Charge         Core      Valence    Rydberg      Total
 -----------------------------------------------------------------------
      C    1   -0.19217      0.99964     2.18603    0.00650     3.19217
      C    2   -0.19217      0.99964     2.18602    0.00651     3.19217
      C    3   -0.11204      0.99958     2.10326    0.00921     3.11204
      C    4    0.02493      0.99951     1.96608    0.00948     2.97507
      C    5   -0.11799      0.99944     2.11000    0.00856     3.11799
      C    6   -0.04596      0.99955     2.03772    0.00868     3.04596
      C    7   -0.03821      0.99951     2.03008    0.00861     3.03821
      C    8   -0.06229      0.99954     2.05420    0.00855     3.06229
      C    9   -0.12784      0.99953     2.12032    0.00799     3.12784
      C   10   -0.00830      0.99953     1.99952    0.00925     3.00830
      C   11   -0.12313      0.99951     2.11452    0.00910     3.12313
      C   12    0.20798      0.99971     1.77088    0.02143     2.79202
      O   13   -0.26184      0.99988     3.25331    0.00865     4.26184
      H   14    0.09506      0.00000     0.40384    0.00110     0.40494
      H   15    0.10121      0.00000     0.39757    0.00121     0.39879
      H   16    0.09505      0.00000     0.40385    0.00110     0.40495
      H   17    0.10122      0.00000     0.39757    0.00121     0.39878
      H   18    0.09887      0.00000     0.39961    0.00152     0.40113
      H   19    0.08955      0.00000     0.40878    0.00168     0.41045
      H   20    0.09390      0.00000     0.40464    0.00146     0.40610
      H   21    0.08992      0.00000     0.40857    0.00151     0.41008
      H   22    0.08964      0.00000     0.40888    0.00148     0.41036
      H   23    0.07950      0.00000     0.41849    0.00201     0.42050
      H   24    0.08855      0.00000     0.40958    0.00186     0.41145
      H   25    0.02657      0.00000     0.47039    0.00305     0.47343
 =======================================================================
   * Total *    0.00000     12.99456    32.86372    0.14172    46.00000

 Normal termination of Gaussian 16 at Sun Dec 13 20:37:47 2020.
