 Gaussian 16, Revision A.03,

 -----------------------------------------------------------
 # opt freq B3LYP/6-31G(d) empiricaldispersion=gd3bj scf=xqc
 -----------------------------------------------------------

 -------------------------------
 CID_147252934_JID_1293_neutraal
 -------------------------------
 Symbolic Z-matrix:
 Charge =  0 Multiplicity = 1

 SCF Done:  E(RB3LYP) =  -548.781761570     A.U. after   15 cycles
 SCF Done:  E(RB3LYP) =  -548.789795750     A.U. after   13 cycles
 SCF Done:  E(RB3LYP) =  -548.791181091     A.U. after   13 cycles
 SCF Done:  E(RB3LYP) =  -548.791275743     A.U. after   13 cycles
 SCF Done:  E(RB3LYP) =  -548.792556288     A.U. after   12 cycles
 SCF Done:  E(RB3LYP) =  -548.792829967     A.U. after   12 cycles
 SCF Done:  E(RB3LYP) =  -548.792938346     A.U. after   12 cycles
 SCF Done:  E(RB3LYP) =  -548.793083532     A.U. after   11 cycles
 SCF Done:  E(RB3LYP) =  -548.793130706     A.U. after   11 cycles
 SCF Done:  E(RB3LYP) =  -548.793135598     A.U. after    9 cycles
 SCF Done:  E(RB3LYP) =  -548.793137930     A.U. after    9 cycles
 SCF Done:  E(RB3LYP) =  -548.793138646     A.U. after    9 cycles
 SCF Done:  E(RB3LYP) =  -548.793138827     A.U. after    8 cycles
 Optimization completed.
    -- Stationary point found.
 Normal termination of Gaussian 16 at Tue Dec  8 19:37:39 2020.

 --------------------------------------------------------------------
 #N Geom=AllCheck Guess=TCheck SCRF=Check GenChk RB3LYP/6-31G(d) Freq
 --------------------------------------------------------------------

 Structure from the checkpoint file:  "JID_1293.chk"
 -------------------------------
 CID_147252934_JID_1293_neutraal
 -------------------------------
 Charge =  0 Multiplicity = 1

 SCF Done:  E(RB3LYP) =  -548.793138827     A.U. after    1 cycles

  Exact polarizability: 108.043   0.128 108.821   1.317  -0.982  47.885
 Approx polarizability: 162.903  -8.327 202.759  -1.047  -3.458  72.079

                      1                      2                      3
                      A                      A                      A
 Frequencies --     86.3463               109.2712               177.4250
 Red. masses --      4.6855                 5.8638                 5.5147
 Frc consts  --      0.0206                 0.0413                 0.1023
 IR Inten    --      8.5998                 1.3155                 5.6775

                      4                      5                      6
                      A                      A                      A
 Frequencies --    213.5521               257.0121               290.5752
 Red. masses --      4.7037                 3.8924                 1.7027
 Frc consts  --      0.1264                 0.1515                 0.0847
 IR Inten    --      0.7971                 3.0984                 8.2566

                      7                      8                      9
                      A                      A                      A
 Frequencies --    328.6115               367.4140               402.3103
 Red. masses --      4.0470                 2.7425                 3.2015
 Frc consts  --      0.2575                 0.2181                 0.3053
 IR Inten    --     13.9360                 2.3236                20.5699

                     10                     11                     12
                      A                      A                      A
 Frequencies --    474.0878               513.7401               528.3786
 Red. masses --      1.4175                 3.3190                 2.5188
 Frc consts  --      0.1877                 0.5161                 0.4143
 IR Inten    --     24.5257                 2.3993                 0.9142

                     13                     14                     15
                      A                      A                      A
 Frequencies --    534.2088               550.5332               626.6113
 Red. masses --      4.0213                 5.4754                 1.8569
 Frc consts  --      0.6761                 0.9778                 0.4296
 IR Inten    --      4.4774                 4.1304                80.1454

                     16                     17                     18
                      A                      A                      A
 Frequencies --    630.7726               641.6436               706.9066
 Red. masses --      1.5017                 4.2434                 4.3688
 Frc consts  --      0.3520                 1.0293                 1.2863
 IR Inten    --     53.3128                 4.8994                 5.4516

                     19                     20                     21
                      A                      A                      A
 Frequencies --    715.1112               743.5933               761.6196
 Red. masses --      1.6063                 1.9918                 3.1660
 Frc consts  --      0.4840                 0.6489                 1.0820
 IR Inten    --    120.5422                 4.2295                24.7982

                     22                     23                     24
                      A                      A                      A
 Frequencies --    822.3173               880.2164               891.8880
 Red. masses --      1.5440                 2.1417                 1.2162
 Frc consts  --      0.6152                 0.9777                 0.5700
 IR Inten    --    342.1514                65.2533                 6.6124

                     25                     26                     27
                      A                      A                      A
 Frequencies --    933.5046               989.8770              1017.1054
 Red. masses --      1.7200                 2.6096                 4.0223
 Frc consts  --      0.8831                 1.5066                 2.4516
 IR Inten    --     69.6861                36.5152                80.0688

                     28                     29                     30
                      A                      A                      A
 Frequencies --   1083.3662              1117.6597              1196.7008
 Red. masses --      3.2470                 1.9946                 1.7460
 Frc consts  --      2.2453                 1.4680                 1.4732
 IR Inten    --    110.9167                16.6027                12.5228

                     31                     32                     33
                      A                      A                      A
 Frequencies --   1204.5276              1228.8595              1281.1682
 Red. masses --      1.4338                 1.4155                 1.7791
 Frc consts  --      1.2256                 1.2594                 1.7205
 IR Inten    --     18.3789                30.6234                 6.5172

                     34                     35                     36
                      A                      A                      A
 Frequencies --   1301.5622              1346.6360              1365.5540
 Red. masses --      2.9209                 1.4698                 1.6534
 Frc consts  --      2.9154                 1.5704                 1.8166
 IR Inten    --     27.8399                17.2013                22.9786

                     37                     38                     39
                      A                      A                      A
 Frequencies --   1413.2369              1479.4877              1491.7725
 Red. masses --      1.7737                 1.6871                 1.5644
 Frc consts  --      2.0871                 2.1757                 2.0512
 IR Inten    --     13.7982                30.2221                79.3573

                     40                     41                     42
                      A                      A                      A
 Frequencies --   1509.3197              1602.0234              1643.4543
 Red. masses --      2.5949                 2.5994                 1.6243
 Frc consts  --      3.4828                 3.9307                 2.5849
 IR Inten    --     23.6429                15.1286               189.1846

                     43                     44                     45
                      A                      A                      A
 Frequencies --   1663.9380              1685.9219              1761.8093
 Red. masses --      1.1469                 4.2979                 6.7337
 Frc consts  --      1.8708                 7.1974                12.3146
 IR Inten    --     48.3170                50.3310               392.9573

                     46                     47                     48
                      A                      A                      A
 Frequencies --   3018.8796              3217.9755              3245.0829
 Red. masses --      1.0858                 1.0884                 1.0970
 Frc consts  --      5.8302                 6.6406                 6.8061
 IR Inten    --     68.4193                 4.0086                 6.4900

                     49                     50                     51
                      A                      A                      A
 Frequencies --   3464.1220              3465.7217              3557.2563
 Red. masses --      1.0490                 1.0500                 1.0934
 Frc consts  --      7.4168                 7.4305                 8.1518
 IR Inten    --      1.1148                56.4065                 0.2009

                     52                     53                     54
                      A                      A                      A
 Frequencies --   3587.5905              3603.3784              3640.1381
 Red. masses --      1.0960                 1.0775                 1.0657
 Frc consts  --      8.3111                 8.2428                 8.3197
 IR Inten    --     74.8897                56.7370                32.4728

 - Thermochemistry -
 -------------------
 Temperature   298.150 Kelvin.  Pressure   1.00000 Atm.
 Atom     1 has atomic number  6 and mass  12.00000

 Molecular mass:   155.06948 amu.
 Principal axes and moments of inertia in atomic units:
                           1         2         3
     Eigenvalues --   974.532281988.486722617.04404
           X            0.99963   0.02430   0.01263
           Y           -0.02429   0.99970  -0.00036
           Z           -0.01263   0.00006   0.99992
 This molecule is an asymmetric top.
 Rotational symmetry number  1.
 Warning -- assumption of classical behavior for rotation
           may cause significant error
 Rotational temperatures (Kelvin)      0.08888     0.04356     0.03310
 Rotational constants (GHZ):           1.85190     0.90760     0.68961
 Zero-point vibrational energy     426898.0 (Joules/Mol)
                                  102.03108 (Kcal/Mol)
 Warning -- explicit consideration of  14 degrees of freedom as
           vibrations may cause significant error
 Vibrational temperatures:    124.23   157.22   255.27   307.25   369.78
          (Kelvin)            418.07   472.80   528.63   578.83   682.11
                              739.16   760.22   768.61   792.09   901.55
                              907.54   923.18  1017.08  1028.89  1069.86
                             1095.80  1183.13  1266.44  1283.23  1343.10
                             1424.21  1463.39  1558.72  1608.06  1721.79
                             1733.05  1768.05  1843.32  1872.66  1937.51
                             1964.73  2033.33  2128.65  2146.33  2171.57
                             2304.95  2364.56  2394.04  2425.67  2534.85
                             4343.49  4629.95  4668.95  4984.10  4986.40
                             5118.10  5161.74  5184.46  5237.35

 Zero-point correction=                           0.162597 (Hartree/Particle)
 Thermal correction to Energy=                    0.172351
 Thermal correction to Enthalpy=                  0.173295
 Thermal correction to Gibbs Free Energy=         0.127947
 Sum of electronic and zero-point Energies=           -548.630542
 Sum of electronic and thermal Energies=              -548.620788
 Sum of electronic and thermal Enthalpies=            -548.619844
 Sum of electronic and thermal Free Energies=         -548.665192

                     E (Thermal)             CV                S
                      KCal/Mol        Cal/Mol-Kelvin    Cal/Mol-Kelvin
 Total                  108.152             38.714             95.444
 Electronic               0.000              0.000              0.000
 Translational            0.889              2.981             41.026
 Rotational               0.889              2.981             30.007
 Vibrational            106.374             32.753             24.412
 Vibration     1          0.601              1.959              3.741
 Vibration     2          0.606              1.942              3.282
 Vibration     3          0.628              1.870              2.355
 Vibration     4          0.644              1.820              2.013
 Vibration     5          0.667              1.751              1.682
 Vibration     6          0.687              1.691              1.471
 Vibration     7          0.712              1.618              1.267
 Vibration     8          0.740              1.539              1.091
 Vibration     9          0.768              1.465              0.954
 Vibration    10          0.831              1.308              0.726
 Vibration    11          0.869              1.220              0.625
 Vibration    12          0.883              1.187              0.591
 Vibration    13          0.889              1.174              0.578
 Vibration    14          0.906              1.139              0.543

                           ! Non-Optimized Parameters !
 Normal termination of Gaussian 16 at Tue Dec  8 19:41:41 2020.

 ----------------------------------------------------------------------
 # B3LYP/6-311++G(d,p) empiricaldispersion=gd3bj scf=xqc pop=npa geom=c
 heck
 ----------------------------------------------------------------------

 ---------------------------------------
 CID_147252934_JID_1293_Energie_neutraal
 ---------------------------------------
 Structure from the checkpoint file:  "JID_1293.chk"
 Charge =  0 Multiplicity = 1

 SCF Done:  E(RB3LYP) =  -548.977614793     A.U. after   15 cycles
 Normal termination of Gaussian 16 at Tue Dec  8 19:43:23 2020.

 ----------------------------------------------------------------------
 # B3LYP/6-311++G(d,p) empiricaldispersion=gd3bj scf=xqc pop=npa geom=c
 heck
 ----------------------------------------------------------------------

 -------------------------------------
 CID_147252934_JID_1293_Energie_kation
 -------------------------------------
 Structure from the checkpoint file:  "JID_1293.chk"
 Charge =  1 Multiplicity = 2

 SCF Done:  E(UB3LYP) =  -548.696114723     A.U. after   23 cycles
 Normal termination of Gaussian 16 at Tue Dec  8 19:47:07 2020.
 Gaussian 16:  ES64L-G16RevA.03 25-Dec-2016

 ----------------------------------------------------------------------
 # B3LYP/6-311++G(d,p) empiricaldispersion=gd3bj scf=xqc pop=npa geom=c
 heck
 ----------------------------------------------------------------------

 ------------------------------------
 CID_147252934_JID_1293_Energie_anion
 ------------------------------------
 Structure from the checkpoint file:  "JID_1293.chk"
 Charge = -1 Multiplicity = 2

                         Standard orientation:
 ---------------------------------------------------------------------
 Center     Atomic      Atomic             Coordinates (Angstroms)
 Number     Number       Type             X           Y           Z
 ---------------------------------------------------------------------
      1          6           0        0.281152    1.825306   -0.029498
      2          6           0        1.641830    1.824901   -0.019553
      3          7           0        2.315685    0.626874   -0.002255
      4          6           0        1.723229   -0.629327   -0.001084
      5          8           0        2.392826   -1.666916    0.005634
      6          6           0        0.262516   -0.602446   -0.018018
      7          6           0       -0.429611    0.589548   -0.024004
      8          6           0       -1.946222    0.555777    0.053121
      9          7           0       -2.472706   -0.201912   -1.094253
     10          8           0       -2.405367   -0.052205    1.241046
     11          7           0       -0.355772   -1.846736    0.034814
     12          1           0       -0.260659    2.764454   -0.029336
     13          1           0        2.252370    2.719150   -0.020284
     14          1           0        3.328383    0.608919    0.000195
     15          1           0       -2.333066    1.583922    0.102430
     16          1           0       -3.490439   -0.205920   -1.039541
     17          1           0       -2.209400    0.252497   -1.968243
     18          1           0       -1.937339   -0.906412    1.310595
     19          1           0        0.319939   -2.594380   -0.097250
     20          1           0       -1.177281   -1.899396   -0.565931
 ---------------------------------------------------------------------

 SCF Done:  E(UB3LYP) =  -548.971379445     A.U. after   33 cycles
 SCF Done:  E(UB3LYP) =  -548.971379446     a.u. after    1 cycles

 The electronic state is 2-A.
 Alpha  occ. eigenvalues --  -19.01084 -18.96197 -14.24158 -14.19508 -14.18985
 Alpha  occ. eigenvalues --  -10.14501 -10.13989 -10.09052 -10.08334 -10.05793
 Alpha  occ. eigenvalues --  -10.05561  -0.92520  -0.91640  -0.83149  -0.79700
 Alpha  occ. eigenvalues --   -0.76569  -0.68394  -0.62059  -0.56656  -0.51031
 Alpha  occ. eigenvalues --   -0.50041  -0.43839  -0.42391  -0.40690  -0.37386
 Alpha  occ. eigenvalues --   -0.36248  -0.34981  -0.34503  -0.32675  -0.31729
 Alpha  occ. eigenvalues --   -0.30949  -0.28728  -0.26588  -0.24725  -0.22587
 Alpha  occ. eigenvalues --   -0.21348  -0.18206  -0.15489  -0.14798  -0.14330
 Alpha  occ. eigenvalues --   -0.08197   0.04562
 Alpha virt. eigenvalues --    0.06786   0.07465   0.08971   0.10248   0.10575
 Alpha virt. eigenvalues --    0.10696   0.12569   0.13051   0.13282   0.14482
 Alpha virt. eigenvalues --    0.15488   0.16073   0.17224   0.17855   0.18424

  Beta  occ. eigenvalues --  -19.01060 -18.96168 -14.24015 -14.19489 -14.18917
  Beta  occ. eigenvalues --  -10.14475 -10.13980 -10.08902 -10.08202 -10.05704
  Beta  occ. eigenvalues --  -10.05597  -0.92463  -0.91535  -0.82924  -0.79588
  Beta  occ. eigenvalues --   -0.76439  -0.68225  -0.61820  -0.56443  -0.50921
  Beta  occ. eigenvalues --   -0.49908  -0.43696  -0.42269  -0.40607  -0.37300
  Beta  occ. eigenvalues --   -0.36118  -0.34870  -0.34329  -0.32600  -0.31316
  Beta  occ. eigenvalues --   -0.30867  -0.28627  -0.26514  -0.24533  -0.22159
  Beta  occ. eigenvalues --   -0.21074  -0.18102  -0.15365  -0.14454  -0.14255
  Beta  occ. eigenvalues --   -0.07570
  Beta virt. eigenvalues --    0.07526   0.08065   0.08719   0.09468   0.10648
  Beta virt. eigenvalues --    0.11210   0.11393   0.12761   0.13151   0.13810
  Beta virt. eigenvalues --    0.14615   0.15457   0.16082   0.17335   0.18013

 Mulliken charges and spin densities:
               1          2
     1  C   -1.685733   1.481805
     2  C    1.517587  -1.790077
     3  N   -0.274181   0.099401
     4  C   -0.155367   0.025708
     5  O   -0.448816   0.014200
     6  C   -0.874523   0.501302
     7  C    1.498539  -0.003690
     8  C    1.180435  -2.338850
     9  N   -0.234942  -0.070036
    10  O   -0.205765   0.018865
    11  N   -0.444985   0.028826
    12  H   -0.357350   0.503297
    13  H   -0.970430   1.126031
    14  H   -0.002284   0.323824
    15  H   -0.166440   0.383128
    16  H   -0.093656   0.318704
    17  H   -0.070424   0.302923
    18  H    0.272118   0.003683
    19  H    0.270166   0.013672
    20  H    0.246051   0.057285
 Sum of Mulliken charges =  -1.00000   1.00000

 Dipole moment (field-independent basis, Debye):
    X=             -1.0320    Y=             -2.6988    Z=              0.5148  Tot=              2.9349
 Quadrupole moment (field-independent basis, Debye-Ang):
   XX=           -116.1017   YY=           -101.0121   ZZ=            -87.7016
   XY=              0.0401   XZ=             -3.8495   YZ=             -0.0159

 Summary of Natural Population Analysis:

                                       Natural Population
                Natural  -----------------------------------------------
    Atom  No    Charge         Core      Valence    Rydberg      Total
 -----------------------------------------------------------------------
      C    1   -0.14230      0.99953     2.13233    0.01045     3.14230
      C    2    0.03554      0.99956     1.95205    0.01285     2.96446
      N    3   -0.26387      0.99967     2.75436    0.00983     3.76387
      C    4    0.30358      0.99959     1.67437    0.02246     2.69642
      O    5   -0.35246      0.99988     3.34667    0.00591     4.35246
      C    6    0.06717      0.99943     1.92119    0.01222     2.93283
      C    7   -0.03287      0.99945     2.02139    0.01203     3.03287
      C    8    0.14553      0.99958     1.83660    0.01829     2.85447
      N    9   -0.43990      0.99976     2.92874    0.01140     3.93990
      O   10   -0.37179      0.99990     3.36619    0.00570     4.37179
      N   11   -0.42403      0.99971     2.91363    0.01069     3.92403
      H   12    0.10555      0.00000     0.39306    0.00139     0.39445
      H   13    0.09864      0.00000     0.39789    0.00347     0.40136
      H   14    0.19754      0.00000     0.29950    0.00296     0.30246
      H   15    0.07611      0.00000     0.42144    0.00246     0.42389
      H   16    0.18049      0.00000     0.31664    0.00287     0.31951
      H   17    0.18334      0.00000     0.31391    0.00275     0.31666
      H   18    0.23661      0.00000     0.26033    0.00306     0.26339
      H   19    0.19557      0.00000     0.30277    0.00166     0.30443
      H   20    0.20156      0.00000     0.29646    0.00198     0.29844
 =======================================================================
   * Total *    0.00000     10.99607    29.84951    0.15442    41.00000

 Normal termination of Gaussian 16 at Tue Dec  8 19:52:57 2020.
