 Gaussian 16, Revision A.03,

 -----------------------------------------------------------
 # opt freq B3LYP/6-31G(d) empiricaldispersion=gd3bj scf=xqc
 -----------------------------------------------------------

 -------------------------------
 CID_104605729_JID_7387_neutraal
 -------------------------------
 Symbolic Z-matrix:
 Charge =  0 Multiplicity = 1

 SCF Done:  E(RB3LYP) =  -740.111114776     A.U. after   15 cycles
 SCF Done:  E(RB3LYP) =  -740.117229242     A.U. after   12 cycles
 SCF Done:  E(RB3LYP) =  -740.118798816     A.U. after   12 cycles
 SCF Done:  E(RB3LYP) =  -740.119560256     A.U. after   12 cycles
 SCF Done:  E(RB3LYP) =  -740.119917197     A.U. after   12 cycles
 SCF Done:  E(RB3LYP) =  -740.120188730     A.U. after   12 cycles
 SCF Done:  E(RB3LYP) =  -740.120450683     A.U. after   12 cycles
 SCF Done:  E(RB3LYP) =  -740.120590651     A.U. after   12 cycles
 SCF Done:  E(RB3LYP) =  -740.120740586     A.U. after   12 cycles
 SCF Done:  E(RB3LYP) =  -740.120822287     A.U. after   12 cycles
 SCF Done:  E(RB3LYP) =  -740.128746617     A.U. after    9 cycles
 SCF Done:  E(RB3LYP) =  -740.128747946     A.U. after    9 cycles
 SCF Done:  E(RB3LYP) =  -740.128748320     A.U. after    8 cycles
 SCF Done:  E(RB3LYP) =  -740.128748724     A.U. after    8 cycles
 SCF Done:  E(RB3LYP) =  -740.128748792     A.U. after    7 cycles
 Optimization completed.
    -- Stationary point found.
 Normal termination of Gaussian 16 at Fri Dec 11 12:45:24 2020.

 --------------------------------------------------------------------
 #N Geom=AllCheck Guess=TCheck SCRF=Check GenChk RB3LYP/6-31G(d) Freq
 --------------------------------------------------------------------

 Structure from the checkpoint file:  "JID_7387.chk"
 -------------------------------
 CID_104605729_JID_7387_neutraal
 -------------------------------
 Charge =  0 Multiplicity = 1

 SCF Done:  E(RB3LYP) =  -740.128748792     A.U. after    1 cycles

  Exact polarizability: 220.842 -13.239 171.556  -2.624   0.263  79.340
 Approx polarizability: 305.219 -21.800 280.236  -3.458  -2.107 126.011

                      1                      2                      3
                      A                      A                      A
 Frequencies --     27.1258                65.3120               105.4020
 Red. masses --      4.4396                 3.4531                 1.3334
 Frc consts  --      0.0019                 0.0087                 0.0087
 IR Inten    --      0.4793                 1.9503                 1.1450

                      4                      5                      6
                      A                      A                      A
 Frequencies --    106.0097               108.6804               143.9172
 Red. masses --      3.1405                 2.0134                 3.5211
 Frc consts  --      0.0208                 0.0140                 0.0430
 IR Inten    --      2.2216                 2.2810                 4.5008

                      7                      8                      9
                      A                      A                      A
 Frequencies --    175.2008               227.9900               244.3690
 Red. masses --      3.5409                 3.5847                 4.6659
 Frc consts  --      0.0640                 0.1098                 0.1642
 IR Inten    --      2.2585                 4.9752                 2.3031

                     10                     11                     12
                      A                      A                      A
 Frequencies --    259.0336               283.0481               285.6923
 Red. masses --      2.0779                 1.4124                 3.1237
 Frc consts  --      0.0821                 0.0667                 0.1502
 IR Inten    --     16.5514                29.6727                 0.6361

                     13                     14                     15
                      A                      A                      A
 Frequencies --    327.5379               336.6615               362.5046
 Red. masses --      4.0865                 2.0515                 5.0882
 Frc consts  --      0.2583                 0.1370                 0.3939
 IR Inten    --      1.5891                 9.9969                 3.6616

                     16                     17                     18
                      A                      A                      A
 Frequencies --    414.7874               455.4991               483.8876
 Red. masses --      3.8758                 3.8375                 3.5587
 Frc consts  --      0.3929                 0.4691                 0.4909
 IR Inten    --      0.7771                 0.4561                 1.1358

                     19                     20                     21
                      A                      A                      A
 Frequencies --    511.7429               548.7312               572.4152
 Red. masses --      3.7510                 4.2150                 4.5584
 Frc consts  --      0.5788                 0.7478                 0.8800
 IR Inten    --      1.6880                 0.4465                 3.5422

                     22                     23                     24
                      A                      A                      A
 Frequencies --    625.5570               652.5874               660.1441
 Red. masses --      3.6223                 2.8875                 2.9930
 Frc consts  --      0.8351                 0.7245                 0.7685
 IR Inten    --      5.2464                45.2579                40.8102

                     25                     26                     27
                      A                      A                      A
 Frequencies --    682.4663               725.9429               764.2521
 Red. masses --      5.7438                 3.5130                 2.4002
 Frc consts  --      1.5762                 1.0908                 0.8260
 IR Inten    --     34.1302                15.4155                33.2903

                     28                     29                     30
                      A                      A                      A
 Frequencies --    769.1713               786.5873               812.3797
 Red. masses --      5.4102                 1.8992                 2.4902
 Frc consts  --      1.8859                 0.6923                 0.9683
 IR Inten    --     14.4246               209.4445                37.1145

                     31                     32                     33
                      A                      A                      A
 Frequencies --    816.0031               842.8587               877.0937
 Red. masses --      2.2273                 2.9291                 1.9221
 Frc consts  --      0.8738                 1.2260                 0.8712
 IR Inten    --      6.5087                96.5909                28.3500

                     34                     35                     36
                      A                      A                      A
 Frequencies --    905.2598               927.9204               976.1061
 Red. masses --      2.7742                 1.4197                 1.5186
 Frc consts  --      1.3395                 0.7202                 0.8525
 IR Inten    --      1.4335                 2.2164                 3.5399

                     37                     38                     39
                      A                      A                      A
 Frequencies --    979.3616               983.8531              1018.3827
 Red. masses --      2.6318                 1.3960                 2.8239
 Frc consts  --      1.4873                 0.7962                 1.7255
 IR Inten    --      6.3270                 3.0265                 6.4565

                     40                     41                     42
                      A                      A                      A
 Frequencies --   1038.8506              1051.1420              1113.4139
 Red. masses --      6.3358                 2.1459                 2.2982
 Frc consts  --      4.0286                 1.3969                 1.6786
 IR Inten    --      0.3367                15.4933                11.5989

                     43                     44                     45
                      A                      A                      A
 Frequencies --   1130.7505              1140.2357              1157.6396
 Red. masses --      1.7371                 1.7873                 2.5512
 Frc consts  --      1.3086                 1.3691                 2.0144
 IR Inten    --      7.4526                19.4833                32.2824

                     46                     47                     48
                      A                      A                      A
 Frequencies --   1162.2888              1191.6664              1208.8270
 Red. masses --      1.6600                 1.5495                 1.5446
 Frc consts  --      1.3212                 1.2964                 1.3298
 IR Inten    --      2.2863                12.7504                 3.3982

                     49                     50                     51
                      A                      A                      A
 Frequencies --   1214.4626              1222.3402              1254.8424
 Red. masses --      1.6063                 2.0525                 1.8040
 Frc consts  --      1.3958                 1.8068                 1.6736
 IR Inten    --      3.8388                 9.9375                 1.2088

                     52                     53                     54
                      A                      A                      A
 Frequencies --   1276.4510              1278.5446              1315.0322
 Red. masses --      2.6110                 1.4779                 4.2296
 Frc consts  --      2.5065                 1.4234                 4.3094
 IR Inten    --      9.1503                12.0783                 9.8414

                     55                     56                     57
                      A                      A                      A
 Frequencies --   1329.0976              1356.3848              1364.4085
 Red. masses --      2.7439                 1.8433                 1.7182
 Frc consts  --      2.8559                 1.9980                 1.8846
 IR Inten    --      3.6991                71.0629                12.8458

                     58                     59                     60
                      A                      A                      A
 Frequencies --   1390.4548              1395.1200              1416.4740
 Red. masses --      1.9918                 1.8436                 1.4725
 Frc consts  --      2.2688                 2.1142                 1.7407
 IR Inten    --     58.4667                 8.3785                 9.4622

                     61                     62                     63
                      A                      A                      A
 Frequencies --   1459.7618              1475.2063              1486.7757
 Red. masses --      1.4603                 1.4539                 1.9118
 Frc consts  --      1.8334                 1.8642                 2.4899
 IR Inten    --      6.9456                 2.6053                18.0304

                     64                     65                     66
                      A                      A                      A
 Frequencies --   1500.9374              1505.3125              1513.7279
 Red. masses --      1.5280                 1.1388                 1.3001
 Frc consts  --      2.0281                 1.5204                 1.7552
 IR Inten    --     21.8851                 2.5817                12.6872

                     67                     68                     69
                      A                      A                      A
 Frequencies --   1517.0220              1521.5614              1526.6261
 Red. masses --      1.2299                 1.1205                 1.6780
 Frc consts  --      1.6676                 1.5285                 2.3041
 IR Inten    --     24.9106                 2.5433                10.7930

                     70                     71                     72
                      A                      A                      A
 Frequencies --   1539.6042              1569.8166              1607.1576
 Red. masses --      1.6888                 4.8256                 3.3111
 Frc consts  --      2.3586                 7.0065                 5.0390
 IR Inten    --      5.6853                90.3829               150.3297

                     73                     74                     75
                      A                      A                      A
 Frequencies --   1642.4886              1653.7061              1688.6329
 Red. masses --      6.1547                 5.7638                 1.3881
 Frc consts  --      9.7828                 9.2870                 2.3320
 IR Inten    --      1.2994                 1.2342               154.2665

                     76                     77                     78
                      A                      A                      A
 Frequencies --   3013.9032              3033.2659              3041.4583
 Red. masses --      1.0686                 1.0736                 1.0616
 Frc consts  --      5.7191                 5.8197                 5.7857
 IR Inten    --     40.9213                 8.7772                56.4791

                     79                     80                     81
                      A                      A                      A
 Frequencies --   3053.6761              3075.3426              3087.3190
 Red. masses --      1.0409                 1.0946                 1.0999
 Frc consts  --      5.7186                 6.0997                 6.1767
 IR Inten    --     60.9050                30.9703                44.2047

                     82                     83                     84
                      A                      A                      A
 Frequencies --   3097.8058              3127.4387              3166.1536
 Red. masses --      1.0927                 1.0968                 1.0876
 Frc consts  --      6.1781                 6.3205                 6.4236
 IR Inten    --     16.5112                13.9978                14.0108

                     85                     86                     87
                      A                      A                      A
 Frequencies --   3171.5269              3195.0625              3233.1696
 Red. masses --      1.1037                 1.0925                 1.0922
 Frc consts  --      6.5410                 6.5710                 6.7267
 IR Inten    --      3.6722                32.5087                 4.6389

                     88                     89                     90
                      A                      A                      A
 Frequencies --   3458.7269              3532.8844              3631.5622
 Red. masses --      1.0735                 1.0492                 1.0958
 Frc consts  --      7.5660                 7.7154                 8.5149
 IR Inten    --      2.4605                18.7479                22.9312

 - Thermochemistry -
 -------------------
 Temperature   298.150 Kelvin.  Pressure   1.00000 Atm.
 Atom     1 has atomic number  6 and mass  12.00000

 Molecular mass:   229.13275 amu.
 Principal axes and moments of inertia in atomic units:
                           1         2         3
     Eigenvalues --  1914.871766181.999037982.80736
           X            0.99998  -0.00624  -0.00049
           Y            0.00624   0.99998   0.00054
           Z            0.00048  -0.00054   1.00000
 This molecule is an asymmetric top.
 Rotational symmetry number  1.
 Warning -- assumption of classical behavior for rotation
           may cause significant error
 Rotational temperatures (Kelvin)      0.04523     0.01401     0.01085
 Rotational constants (GHZ):           0.94249     0.29193     0.22608
 Zero-point vibrational energy     705722.2 (Joules/Mol)
                                  168.67165 (Kcal/Mol)
 Warning -- explicit consideration of  21 degrees of freedom as
           vibrations may cause significant error
 Vibrational temperatures:     39.03    93.97   151.65   152.52   156.37
          (Kelvin)            207.06   252.07   328.03   351.59   372.69
                              407.24   411.05   471.25   484.38   521.56
                              596.79   655.36   696.21   736.28   789.50
                              823.58   900.04   938.93   949.80   981.92
                             1044.47  1099.59  1106.67  1131.72  1168.83
                             1174.05  1212.69  1261.94  1302.47  1335.07
                             1404.40  1409.08  1415.55  1465.23  1494.67
                             1512.36  1601.95  1626.90  1640.54  1665.59
                             1672.27  1714.54  1739.23  1747.34  1758.67
                             1805.44  1836.53  1839.54  1892.04  1912.28
                             1951.54  1963.08  2000.55  2007.27  2037.99
                             2100.27  2122.49  2139.14  2159.51  2165.81
                             2177.92  2182.66  2189.19  2196.47  2215.15
                             2258.62  2312.34  2363.17  2379.31  2429.57
                             4336.33  4364.19  4375.98  4393.56  4424.73
                             4441.96  4457.05  4499.69  4555.39  4563.12
                             4596.98  4651.81  4976.34  5083.03  5225.01

 Zero-point correction=                           0.268795 (Hartree/Particle)
 Thermal correction to Energy=                    0.283400
 Thermal correction to Enthalpy=                  0.284344
 Thermal correction to Gibbs Free Energy=         0.226696
 Sum of electronic and zero-point Energies=           -739.859953
 Sum of electronic and thermal Energies=              -739.845348
 Sum of electronic and thermal Enthalpies=            -739.844404
 Sum of electronic and thermal Free Energies=         -739.902052

                     E (Thermal)             CV                S
                      KCal/Mol        Cal/Mol-Kelvin    Cal/Mol-Kelvin
 Total                  177.836             56.973            121.331
 Electronic               0.000              0.000              0.000
 Translational            0.889              2.981             42.189
 Rotational               0.889              2.981             32.913
 Vibrational            176.059             51.012             46.228
 Vibration     1          0.593              1.984              6.029
 Vibration     2          0.597              1.971              4.290
 Vibration     3          0.605              1.945              3.352
 Vibration     4          0.605              1.944              3.341
 Vibration     5          0.606              1.942              3.292
 Vibration     6          0.616              1.909              2.751
 Vibration     7          0.627              1.873              2.379
 Vibration     8          0.651              1.798              1.895
 Vibration     9          0.660              1.772              1.771
 Vibration    10          0.668              1.747              1.668
 Vibration    11          0.682              1.705              1.515
 Vibration    12          0.683              1.700              1.499
 Vibration    13          0.711              1.620              1.272
 Vibration    14          0.717              1.602              1.228
 Vibration    15          0.736              1.549              1.111
 Vibration    16          0.778              1.438              0.910
 Vibration    17          0.814              1.349              0.779
 Vibration    18          0.840              1.286              0.700
 Vibration    19          0.867              1.224              0.629
 Vibration    20          0.904              1.142              0.547
 Vibration    21          0.929              1.091              0.500

 Optimization completed.
    -- Stationary point found.
 Normal termination of Gaussian 16 at Fri Dec 11 12:58:11 2020.

 ----------------------------------------------------------------------
 # B3LYP/6-311++G(d,p) empiricaldispersion=gd3bj scf=xqc pop=npa geom=c
 heck
 ----------------------------------------------------------------------

 ---------------------------------------
 CID_104605729_JID_7387_Energie_neutraal
 ---------------------------------------
 Structure from the checkpoint file:  "JID_7387.chk"
 Charge =  0 Multiplicity = 1

 SCF Done:  E(RB3LYP) =  -740.328595625     A.U. after   15 cycles
 Normal termination of Gaussian 16 at Fri Dec 11 13:04:07 2020.

 ----------------------------------------------------------------------
 # B3LYP/6-311++G(d,p) empiricaldispersion=gd3bj scf=xqc pop=npa geom=c
 heck
 ----------------------------------------------------------------------

 -------------------------------------
 CID_104605729_JID_7387_Energie_kation
 -------------------------------------
 Structure from the checkpoint file:  "JID_7387.chk"
 Charge =  1 Multiplicity = 2

 SCF Done:  E(UB3LYP) =  -740.053075698     A.U. after   27 cycles
 Normal termination of Gaussian 16 at Fri Dec 11 13:19:33 2020.
 Gaussian 16:  ES64L-G16RevA.03 25-Dec-2016

 ----------------------------------------------------------------------
 # B3LYP/6-311++G(d,p) empiricaldispersion=gd3bj scf=xqc pop=npa geom=c
 heck
 ----------------------------------------------------------------------

 ------------------------------------
 CID_104605729_JID_7387_Energie_anion
 ------------------------------------
 Structure from the checkpoint file:  "JID_7387.chk"
 Charge = -1 Multiplicity = 2

                         Standard orientation:
 ---------------------------------------------------------------------
 Center     Atomic      Atomic             Coordinates (Angstroms)
 Number     Number       Type             X           Y           Z
 ---------------------------------------------------------------------
      1          6           0        3.734635   -2.029148    0.276423
      2          7           0        2.913355   -0.851359    0.116378
      3          6           0        3.286794    0.436190   -0.084166
      4          7           0        2.225603    1.217410   -0.160352
      5          6           0        1.172452    0.340930   -0.005219
      6          7           0        1.545872   -0.927479    0.152217
      7          6           0       -0.220368    0.819593    0.001608
      8          6           0       -0.399314    2.210640    0.056258
      9          6           0       -1.672557    2.765682    0.091007
     10          6           0       -2.783662    1.928975    0.076633
     11          6           0       -2.632039    0.541384    0.012578
     12          6           0       -1.350118   -0.035167   -0.039349
     13          6           0       -1.215171   -1.543724   -0.125830
     14          6           0       -2.535538   -2.245016   -0.465619
     15          7           0       -3.680471   -1.739065    0.294235
     16          6           0       -3.883499   -0.326930   -0.016777
     17          7           0        4.612210    0.844011   -0.117102
     18          1           0        3.223385   -2.713475    0.955221
     19          1           0        4.693457   -1.734706    0.711676
     20          1           0        3.905520   -2.537683   -0.680098
     21          1           0        0.482426    2.840289    0.074726
     22          1           0       -1.795660    3.844004    0.141469
     23          1           0       -3.786140    2.350888    0.117999
     24          1           0       -0.826639   -1.925462    0.828613
     25          1           0       -0.445530   -1.808270   -0.857553
     26          1           0       -2.441675   -3.323812   -0.296603
     27          1           0       -2.770927   -2.107954   -1.529651
     28          1           0       -3.467542   -1.824366    1.288825
     29          1           0       -4.335881   -0.271387   -1.018487
     30          1           0       -4.629391    0.080568    0.675877
     31          1           0        4.668824    1.834962   -0.325252
     32          1           0        5.200105    0.311323   -0.749683
 ---------------------------------------------------------------------

 SCF Done:  E(UB3LYP) =  -740.322584317     A.U. after   33 cycles
 SCF Done:  E(UB3LYP) =  -740.322584318     a.u. after    1 cycles

 The electronic state is 2-A.
 Alpha  occ. eigenvalues --  -14.27982 -14.21965 -14.21778 -14.21605 -14.18470
 Alpha  occ. eigenvalues --  -10.16086 -10.11471 -10.11252 -10.10500 -10.10468
 Alpha  occ. eigenvalues --  -10.08585 -10.08159 -10.08149 -10.07522 -10.07302
 Alpha  occ. eigenvalues --  -10.06986 -10.06650  -0.96611  -0.83327  -0.82275
 Alpha  occ. eigenvalues --   -0.79405  -0.75777  -0.71350  -0.68229  -0.66847
 Alpha  occ. eigenvalues --   -0.64335  -0.60498  -0.56222  -0.54413  -0.53314
 Alpha  occ. eigenvalues --   -0.49193  -0.47922  -0.46979  -0.43209  -0.40716
 Alpha  occ. eigenvalues --   -0.39665  -0.39132  -0.38259  -0.37458  -0.36086
 Alpha  occ. eigenvalues --   -0.35237  -0.34363  -0.32811  -0.32640  -0.31460
 Alpha  occ. eigenvalues --   -0.30801  -0.30586  -0.29486  -0.28292  -0.27201
 Alpha  occ. eigenvalues --   -0.25680  -0.25289  -0.23912  -0.22660  -0.21775
 Alpha  occ. eigenvalues --   -0.18829  -0.16923  -0.14877  -0.14832  -0.14222
 Alpha  occ. eigenvalues --   -0.11491   0.04249
 Alpha virt. eigenvalues --    0.05856   0.06371   0.07235   0.08025   0.08275
 Alpha virt. eigenvalues --    0.08565   0.08859   0.09868   0.10314   0.10521
 Alpha virt. eigenvalues --    0.11056   0.11491   0.12190   0.12722   0.13588

  Beta  occ. eigenvalues --  -14.27957 -14.21872 -14.21692 -14.21604 -14.18455
  Beta  occ. eigenvalues --  -10.16089 -10.11463 -10.11252 -10.10499 -10.10406
  Beta  occ. eigenvalues --  -10.08572 -10.08144 -10.08104 -10.07528 -10.07230
  Beta  occ. eigenvalues --  -10.06986 -10.06623  -0.96543  -0.83319  -0.82158
  Beta  occ. eigenvalues --   -0.79350  -0.75705  -0.71229  -0.68174  -0.66783
  Beta  occ. eigenvalues --   -0.64273  -0.60407  -0.56184  -0.54361  -0.53256
  Beta  occ. eigenvalues --   -0.49113  -0.47841  -0.46928  -0.43117  -0.40686
  Beta  occ. eigenvalues --   -0.39605  -0.39035  -0.38172  -0.37383  -0.36067
  Beta  occ. eigenvalues --   -0.35178  -0.34308  -0.32791  -0.32577  -0.31415
  Beta  occ. eigenvalues --   -0.30713  -0.30525  -0.29465  -0.28269  -0.27153
  Beta  occ. eigenvalues --   -0.25637  -0.25162  -0.23872  -0.22496  -0.21690
  Beta  occ. eigenvalues --   -0.18600  -0.16868  -0.14778  -0.14652  -0.14123
  Beta  occ. eigenvalues --   -0.11197
  Beta virt. eigenvalues --    0.06220   0.06592   0.07165   0.07634   0.08214
  Beta virt. eigenvalues --    0.08605   0.08773   0.09054   0.10348   0.10644
  Beta virt. eigenvalues --    0.10822   0.11441   0.11628   0.12658   0.13117

 Mulliken charges and spin densities:
               1          2
     1  C    1.566576  -1.878150
     2  N    0.431646  -0.114692
     3  C    0.031181   0.229780
     4  N   -0.104312  -0.028182
     5  C    0.559365  -0.944639
     6  N   -0.660333   0.358088
     7  C    0.815791  -0.128956
     8  C   -0.440926   0.074541
     9  C   -0.482397   0.021606
    10  C   -0.392541   0.000477
    11  C    0.239176   0.079052
    12  C    0.612641  -0.124341
    13  C   -0.455657   0.022740
    14  C   -0.844475  -0.000444
    15  N    0.020127   0.016058
    16  C   -0.819789  -0.092754
    17  N   -0.484340   0.115687
    18  H   -0.218471   0.393440
    19  H   -0.466638   0.635264
    20  H   -0.471322   0.661156
    21  H    0.138930   0.045606
    22  H    0.121867   0.013111
    23  H    0.113926  -0.006997
    24  H    0.203208   0.007157
    25  H    0.154068   0.033080
    26  H    0.146646   0.036192
    27  H    0.135230   0.012617
    28  H    0.209440   0.007028
    29  H    0.149408   0.022694
    30  H    0.168121  -0.001916
    31  H   -0.225314   0.508646
    32  H   -0.750829   1.027055
 Sum of Mulliken charges =  -1.00000   1.00000

 Dipole moment (field-independent basis, Debye):
    X=            -13.3646    Y=              1.1816    Z=              1.8157  Tot=             13.5390
 Quadrupole moment (field-independent basis, Debye-Ang):
   XX=           -218.6638   YY=           -133.8703   ZZ=           -122.2653
   XY=              3.0265   XZ=              7.5525   YZ=              0.1112

 Summary of Natural Population Analysis:

                                       Natural Population
                Natural  -----------------------------------------------
    Atom  No    Charge         Core      Valence    Rydberg      Total
 -----------------------------------------------------------------------
      C    1   -0.17655      0.99964     2.16838    0.00852     3.17655
      N    2   -0.12438      0.99962     2.61132    0.01344     3.62438
      C    3    0.28814      0.99958     1.69571    0.01657     2.71186
      N    4   -0.29108      0.99967     2.78202    0.00939     3.79108
      C    5    0.16961      0.99961     1.81241    0.01836     2.83039
      N    6   -0.15990      0.99970     2.64962    0.01058     3.65990
      C    7   -0.03079      0.99945     2.02090    0.01044     3.03079
      C    8   -0.08337      0.99954     2.07520    0.00862     3.08337
      C    9   -0.10614      0.99957     2.09786    0.00871     3.10614
      C   10   -0.09277      0.99952     2.08447    0.00877     3.09277
      C   11   -0.03229      0.99948     2.02502    0.00779     3.03229
      C   12    0.00252      0.99942     1.98896    0.00910     2.99748
      C   13   -0.21495      0.99960     2.20687    0.00847     3.21495
      C   14   -0.08736      0.99964     2.07659    0.01113     3.08736
      N   15   -0.33343      0.99977     2.82258    0.01108     3.83343
      C   16   -0.09154      0.99960     2.08144    0.01050     3.09154
      N   17   -0.40257      0.99972     2.89292    0.00993     3.90257
      H   18    0.10599      0.00000     0.39239    0.00162     0.39401
      H   19    0.10841      0.00000     0.38913    0.00246     0.39159
      H   20    0.09942      0.00000     0.39886    0.00172     0.40058
      H   21    0.11302      0.00000     0.38573    0.00125     0.38698
      H   22    0.09548      0.00000     0.40357    0.00095     0.40452
      H   23    0.09174      0.00000     0.40685    0.00142     0.40826
      H   24    0.10724      0.00000     0.39135    0.00142     0.39276
      H   25    0.11797      0.00000     0.38040    0.00163     0.38203
      H   26    0.09305      0.00000     0.40556    0.00140     0.40695
      H   27    0.08762      0.00000     0.41098    0.00141     0.41238
      H   28    0.16647      0.00000     0.33130    0.00223     0.33353
      H   29    0.09159      0.00000     0.40664    0.00177     0.40841
      H   30    0.09506      0.00000     0.40390    0.00104     0.40494
      H   31    0.19404      0.00000     0.30315    0.00280     0.30596
      H   32    0.19974      0.00000     0.27557    0.02468     0.30026
 =======================================================================
   * Total *    0.00000     16.99313    43.77766    0.22920    61.00000

 Normal termination of Gaussian 16 at Fri Dec 11 13:38:00 2020.
