 Gaussian 16, Revision A.03,

 -----------------------------------------------------------
 # opt freq B3LYP/6-31G(d) empiricaldispersion=gd3bj scf=xqc
 -----------------------------------------------------------

 -------------------------------
 CID_153844207_JID_4094_neutraal
 -------------------------------
 Symbolic Z-matrix:
 Charge =  0 Multiplicity = 1

 SCF Done:  E(RB3LYP) =  -567.637909803     A.U. after   13 cycles
 SCF Done:  E(RB3LYP) =  -567.641838940     A.U. after   11 cycles
 SCF Done:  E(RB3LYP) =  -567.637907414     A.U. after   11 cycles
 SCF Done:  E(RB3LYP) =  -567.642355861     A.U. after   11 cycles
 SCF Done:  E(RB3LYP) =  -567.644702410     A.U. after    8 cycles
 SCF Done:  E(RB3LYP) =  -567.641668846     A.U. after   11 cycles
 SCF Done:  E(RB3LYP) =  -567.644423705     A.U. after   10 cycles
 SCF Done:  E(RB3LYP) =  -567.645230462     A.U. after    7 cycles
 SCF Done:  E(RB3LYP) =  -567.644771954     A.U. after   10 cycles
 SCF Done:  E(RB3LYP) =  -567.644846859     A.U. after   10 cycles
 SCF Done:  E(RB3LYP) =  -567.645519736     A.U. after    9 cycles
 SCF Done:  E(RB3LYP) =  -567.645530378     A.U. after    8 cycles
 SCF Done:  E(RB3LYP) =  -567.645532072     A.U. after    7 cycles
 SCF Done:  E(RB3LYP) =  -567.645532684     A.U. after    7 cycles
 SCF Done:  E(RB3LYP) =  -567.645532806     A.U. after    6 cycles
 SCF Done:  E(RB3LYP) =  -567.645532887     A.U. after    6 cycles
 Optimization completed.
    -- Stationary point found.
 Normal termination of Gaussian 16 at Thu Dec 10 09:30:52 2020.

 --------------------------------------------------------------------
 #N Geom=AllCheck Guess=TCheck SCRF=Check GenChk RB3LYP/6-31G(d) Freq
 --------------------------------------------------------------------

 Structure from the checkpoint file:  "JID_4094.chk"
 -------------------------------
 CID_153844207_JID_4094_neutraal
 -------------------------------
 Charge =  0 Multiplicity = 1

 SCF Done:  E(RB3LYP) =  -567.645532887     A.U. after    1 cycles

  Exact polarizability: 164.522   0.585 137.579  -0.032   0.473 127.354
 Approx polarizability: 207.121  -0.395 196.882  -0.195   2.978 193.948

                      1                      2                      3
                      A                      A                      A
 Frequencies --     67.1199                96.3059               111.1088
 Red. masses --      3.0138                 2.2291                 1.6001
 Frc consts  --      0.0080                 0.0122                 0.0116
 IR Inten    --      0.0212                 0.0952                 0.0720

                      4                      5                      6
                      A                      A                      A
 Frequencies --    116.9806               151.5441               168.3152
 Red. masses --      1.6632                 1.6434                 1.4473
 Frc consts  --      0.0134                 0.0222                 0.0242
 IR Inten    --      0.1468                 0.0798                 0.0995

                      7                      8                      9
                      A                      A                      A
 Frequencies --    184.3719               218.5454               230.7452
 Red. masses --      1.6238                 1.9049                 1.8865
 Frc consts  --      0.0325                 0.0536                 0.0592
 IR Inten    --      0.1594                 0.3174                 0.8055

                     10                     11                     12
                      A                      A                      A
 Frequencies --    234.8097               249.0548               255.8130
 Red. masses --      1.5156                 1.9047                 1.6970
 Frc consts  --      0.0492                 0.0696                 0.0654
 IR Inten    --      0.1558                 0.0676                 0.1406

                     13                     14                     15
                      A                      A                      A
 Frequencies --    271.2048               288.7214               299.7950
 Red. masses --      2.3506                 1.3372                 1.4672
 Frc consts  --      0.1019                 0.0657                 0.0777
 IR Inten    --      0.7659                 0.2020                 0.0901

                     16                     17                     18
                      A                      A                      A
 Frequencies --    305.6449               312.2186               327.8061
 Red. masses --      1.2078                 1.3523                 1.6975
 Frc consts  --      0.0665                 0.0777                 0.1075
 IR Inten    --      0.0394                 0.0906                 0.2082

                     19                     20                     21
                      A                      A                      A
 Frequencies --    341.1819               343.5399               360.7435
 Red. masses --      2.3708                 1.6693                 2.3698
 Frc consts  --      0.1626                 0.1161                 0.1817
 IR Inten    --      0.5351                 1.1916                 0.4144

                     22                     23                     24
                      A                      A                      A
 Frequencies --    389.7983               400.3865               402.0237
 Red. masses --      2.2222                 2.3389                 2.1271
 Frc consts  --      0.1989                 0.2209                 0.2026
 IR Inten    --      0.2332                 0.3548                 0.2485

                     25                     26                     27
                      A                      A                      A
 Frequencies --    422.7606               445.1062               477.9658
 Red. masses --      2.3157                 2.3387                 2.4213
 Frc consts  --      0.2438                 0.2730                 0.3259
 IR Inten    --      0.3913                 0.2788                 2.0777

                     28                     29                     30
                      A                      A                      A
 Frequencies --    488.7048               556.4873               572.2509
 Red. masses --      3.1066                 2.5602                 2.8957
 Frc consts  --      0.4371                 0.4671                 0.5587
 IR Inten    --      4.5499                 1.1491                 1.5200

                     31                     32                     33
                      A                      A                      A
 Frequencies --    585.1425               636.7570               724.2181
 Red. masses --      2.7435                 3.3383                 2.0258
 Frc consts  --      0.5535                 0.7975                 0.6260
 IR Inten    --      2.5450                 5.1135                 4.1106

                     34                     35                     36
                      A                      A                      A
 Frequencies --    805.3344               830.0908               841.8717
 Red. masses --      1.3430                 1.3941                 2.0481
 Frc consts  --      0.5132                 0.5660                 0.8552
 IR Inten    --      1.0527                 0.9085                 0.9006

                     37                     38                     39
                      A                      A                      A
 Frequencies --    876.2414               899.1314               930.6229
 Red. masses --      1.8274                 1.8589                 1.9175
 Frc consts  --      0.8267                 0.8854                 0.9785
 IR Inten    --      2.8923                 2.4132                14.4731

                     40                     41                     42
                      A                      A                      A
 Frequencies --    934.7179               951.2918               978.9246
 Red. masses --      1.8371                 1.7046                 1.5784
 Frc consts  --      0.9457                 0.9089                 0.8912
 IR Inten    --      2.4969                 0.2122                10.7974

                     43                     44                     45
                      A                      A                      A
 Frequencies --    981.8282               988.1859              1005.0135
 Red. masses --      1.1866                 1.3983                 1.8774
 Frc consts  --      0.6739                 0.8045                 1.1172
 IR Inten    --      0.0671                 3.7907                18.0043

                     46                     47                     48
                      A                      A                      A
 Frequencies --   1036.5242              1041.3884              1050.3789
 Red. masses --      1.6266                 2.7863                 1.4599
 Frc consts  --      1.0296                 1.7803                 0.9490
 IR Inten    --      2.4031                10.4710                 0.6575

                     49                     50                     51
                      A                      A                      A
 Frequencies --   1066.2275              1081.1074              1107.5008
 Red. masses --      1.7617                 1.3817                 2.3901
 Frc consts  --      1.1800                 0.9515                 1.7272
 IR Inten    --      1.7869                13.9477                30.8832

                     52                     53                     54
                      A                      A                      A
 Frequencies --   1128.1184              1137.9677              1152.9848
 Red. masses --      2.1484                 2.1906                 1.6220
 Frc consts  --      1.6109                 1.6714                 1.2704
 IR Inten    --     14.1798                24.4476                 4.9002

                     55                     56                     57
                      A                      A                      A
 Frequencies --   1167.1169              1187.0852              1201.1716
 Red. masses --      1.7826                 1.9205                 2.2075
 Frc consts  --      1.4307                 1.5945                 1.8765
 IR Inten    --      5.9349                16.4177                12.8853

                     58                     59                     60
                      A                      A                      A
 Frequencies --   1226.2610              1239.0258              1251.0818
 Red. masses --      2.3776                 2.1695                 2.3042
 Frc consts  --      2.1065                 1.9623                 2.1250
 IR Inten    --     26.8419                19.4109                 6.4892

                     61                     62                     63
                      A                      A                      A
 Frequencies --   1257.1039              1276.6097              1314.1706
 Red. masses --      2.8053                 2.7229                 1.2647
 Frc consts  --      2.6120                 2.6146                 1.2868
 IR Inten    --      3.6642                 3.6830                 2.8804

                     64                     65                     66
                      A                      A                      A
 Frequencies --   1349.5697              1360.6403              1390.2511
 Red. masses --      1.2294                 1.3253                 1.3390
 Frc consts  --      1.3193                 1.4456                 1.5248
 IR Inten    --      4.3213                 7.9537                 2.9246

                     67                     68                     69
                      A                      A                      A
 Frequencies --   1402.1880              1429.4113              1430.7850
 Red. masses --      1.3800                 1.2251                 1.2218
 Frc consts  --      1.5986                 1.4749                 1.4736
 IR Inten    --      0.7913                 0.4389                 3.1314

                     70                     71                     72
                      A                      A                      A
 Frequencies --   1433.8536              1439.9123              1441.3469
 Red. masses --      1.2183                 1.2227                 1.2085
 Frc consts  --      1.4757                 1.4937                 1.4792
 IR Inten    --      1.1776                 6.8381                 4.7695

                     73                     74                     75
                      A                      A                      A
 Frequencies --   1444.6789              1460.5889              1472.5246
 Red. masses --      1.2219                 1.1674                 1.1872
 Frc consts  --      1.5026                 1.4674                 1.5167
 IR Inten    --     18.1322                18.6337                 9.0663

                     76                     77                     78
                      A                      A                      A
 Frequencies --   1504.5243              1509.7101              1512.7792
 Red. masses --      1.0987                 1.0679                 1.0562
 Frc consts  --      1.4653                 1.4340                 1.4241
 IR Inten    --      1.8428                 0.7588                 0.4903

                     79                     80                     81
                      A                      A                      A
 Frequencies --   1517.4590              1518.0455              1520.4814
 Red. masses --      1.0572                 1.0606                 1.0496
 Frc consts  --      1.4343                 1.4401                 1.4296
 IR Inten    --      3.6090                 3.4234                 4.9517

                     82                     83                     84
                      A                      A                      A
 Frequencies --   1524.8062              1528.5776              1533.5405
 Red. masses --      1.0494                 1.0481                 1.0489
 Frc consts  --      1.4376                 1.4429                 1.4533
 IR Inten    --      1.0370                 5.2167                 2.1692

                     85                     86                     87
                      A                      A                      A
 Frequencies --   1536.0596              1537.5993              1540.8703
 Red. masses --      1.0501                 1.0613                 1.0571
 Frc consts  --      1.4598                 1.4784                 1.4787
 IR Inten    --      7.4839                 3.5287                 3.5894

                     88                     89                     90
                      A                      A                      A
 Frequencies --   1544.3845              1548.4341              1552.3475
 Red. masses --      1.0503                 1.0498                 1.0659
 Frc consts  --      1.4760                 1.4830                 1.5134
 IR Inten    --      1.5907                 1.2756                 8.7763

                     91                     92                     93
                      A                      A                      A
 Frequencies --   1556.9083              1560.6683              1565.6261
 Red. masses --      1.0523                 1.0549                 1.0536
 Frc consts  --      1.5028                 1.5139                 1.5216
 IR Inten    --      1.8738                 7.5469                 2.2235

                     94                     95                     96
                      A                      A                      A
 Frequencies --   1569.8197              2958.1021              3043.3226
 Red. masses --      1.0528                 1.0634                 1.0421
 Frc consts  --      1.5286                 5.4826                 5.6869
 IR Inten    --      8.4294                71.1507                20.6766

                     97                     98                     99
                      A                      A                      A
 Frequencies --   3047.2569              3056.8394              3058.2822
 Red. masses --      1.0792                 1.0450                 1.0472
 Frc consts  --      5.9041                 5.7533                 5.7707
 IR Inten    --     17.7386                18.2236                11.2188

                    100                    101                    102
                      A                      A                      A
 Frequencies --   3059.6120              3062.7869              3067.2369
 Red. masses --      1.0368                 1.0474                 1.0454
 Frc consts  --      5.7184                 5.7888                 5.7947
 IR Inten    --     13.8131                34.7851                48.8803

                    103                    104                    105
                      A                      A                      A
 Frequencies --   3071.4215              3077.8666              3084.3307
 Red. masses --      1.0623                 1.0476                 1.0601
 Frc consts  --      5.9045                 5.8473                 5.9416
 IR Inten    --     23.2960                15.4218                36.4937

                    106                    107                    108
                      A                      A                      A
 Frequencies --   3099.0553              3100.4031              3109.9737
 Red. masses --      1.0801                 1.0994                 1.0962
 Frc consts  --      6.1121                 6.2265                 6.2466
 IR Inten    --     32.5487                 9.4653                19.5237

                    109                    110                    111
                      A                      A                      A
 Frequencies --   3112.1964              3113.9136              3120.1574
 Red. masses --      1.0987                 1.1008                 1.0976
 Frc consts  --      6.2697                 6.2889                 6.2956
 IR Inten    --     14.6926                36.3821                68.9635

                    112                    113                    114
                      A                      A                      A
 Frequencies --   3123.3115              3127.1089              3132.2723
 Red. masses --      1.0983                 1.0986                 1.1002
 Frc consts  --      6.3128                 6.3293                 6.3600
 IR Inten    --     89.3654                 6.9791                42.7578

                    115                    116                    117
                      A                      A                      A
 Frequencies --   3137.4844              3139.0912              3145.9695
 Red. masses --      1.0989                 1.1003                 1.0843
 Frc consts  --      6.3734                 6.3881                 6.3228
 IR Inten    --     25.6002                56.4331                23.2406

                    118                    119                    120
                      A                      A                      A
 Frequencies --   3161.3567              3169.9329              3172.9076
 Red. masses --      1.0957                 1.0980                 1.0954
 Frc consts  --      6.4521                 6.5008                 6.4973
 IR Inten    --     22.9301                28.7209                46.4566

                    121                    122                    123
                      A                      A                      A
 Frequencies --   3175.9956              3179.7682              3205.0305
 Red. masses --      1.0980                 1.0980                 1.0871
 Frc consts  --      6.5254                 6.5410                 6.5796
 IR Inten    --     26.3614                 9.9138                25.2120

 - Thermochemistry -
 -------------------
 Temperature   298.150 Kelvin.  Pressure   1.00000 Atm.
 Atom     1 has atomic number  6 and mass  12.00000

 Molecular mass:   199.23000 amu.
 Principal axes and moments of inertia in atomic units:
                           1         2         3
     Eigenvalues --  1757.564233848.257544255.75509
           X            1.00000   0.00196   0.00128
           Y           -0.00195   0.99993  -0.01176
           Z           -0.00130   0.01175   0.99993
 This molecule is an asymmetric top.
 Rotational symmetry number  1.
 Warning -- assumption of classical behavior for rotation
           may cause significant error
 Rotational temperatures (Kelvin)      0.04928     0.02251     0.02035
 Rotational constants (GHZ):           1.02684     0.46898     0.42407
 Zero-point vibrational energy    1072653.3 (Joules/Mol)
                                  256.37029 (Kcal/Mol)
 Warning -- explicit consideration of  31 degrees of freedom as
           vibrations may cause significant error
 Vibrational temperatures:     96.57   138.56   159.86   168.31   218.04
          (Kelvin)            242.17   265.27   314.44   331.99   337.84
                              358.33   368.06   390.20   415.41   431.34
                              439.75   449.21   471.64   490.88   494.28
                              519.03   560.83   576.07   578.42   608.26
                              640.41   687.69   703.14   800.66   823.34
                              841.89   916.15  1041.99  1158.70  1194.32
                             1211.27  1260.72  1293.65  1338.96  1344.85
                             1368.70  1408.45  1412.63  1421.78  1445.99
                             1491.33  1498.33  1511.26  1534.06  1555.47
                             1593.45  1623.11  1637.28  1658.89  1679.22
                             1707.95  1728.22  1764.32  1782.68  1800.03
                             1808.69  1836.76  1890.80  1941.73  1957.66
                             2000.26  2017.44  2056.60  2058.58  2063.00
                             2071.71  2073.78  2078.57  2101.46  2118.63
                             2164.67  2172.14  2176.55  2183.29  2184.13
                             2187.63  2193.86  2199.28  2206.42  2210.05
                             2212.26  2216.97  2222.02  2227.85  2233.48
                             2240.04  2245.45  2252.59  2258.62  4256.05
                             4378.66  4384.32  4398.11  4400.19  4402.10
                             4406.67  4413.07  4419.09  4428.36  4437.66
                             4458.85  4460.79  4474.56  4477.76  4480.23
                             4489.21  4493.75  4499.21  4506.64  4514.14
                             4516.45  4526.35  4548.49  4560.83  4565.11
                             4569.55  4574.98  4611.32

 Zero-point correction=                           0.408552 (Hartree/Particle)
 Thermal correction to Energy=                    0.426201
 Thermal correction to Enthalpy=                  0.427145
 Thermal correction to Gibbs Free Energy=         0.366662
 Sum of electronic and zero-point Energies=           -567.236981
 Sum of electronic and thermal Energies=              -567.219332
 Sum of electronic and thermal Enthalpies=            -567.218388
 Sum of electronic and thermal Free Energies=         -567.278871

                     E (Thermal)             CV                S
                      KCal/Mol        Cal/Mol-Kelvin    Cal/Mol-Kelvin
 Total                  267.445             70.392            127.298
 Electronic               0.000              0.000              0.000
 Translational            0.889              2.981             41.773
 Rotational               0.889              2.981             31.732
 Vibrational            265.668             64.431             53.794
 Vibration     1          0.598              1.970              4.236
 Vibration     2          0.603              1.952              3.528
 Vibration     3          0.607              1.940              3.249
 Vibration     4          0.608              1.935              3.150
 Vibration     5          0.619              1.901              2.653
 Vibration     6          0.625              1.881              2.454
 Vibration     7          0.631              1.861              2.284
 Vibration     8          0.646              1.813              1.971
 Vibration     9          0.652              1.794              1.873
 Vibration    10          0.655              1.788              1.842
 Vibration    11          0.662              1.764              1.737
 Vibration    12          0.666              1.753              1.690
 Vibration    13          0.675              1.726              1.589
 Vibration    14          0.685              1.695              1.481
 Vibration    15          0.692              1.674              1.418
 Vibration    16          0.696              1.663              1.386
 Vibration    17          0.701              1.650              1.351
 Vibration    18          0.711              1.620              1.271
 Vibration    19          0.721              1.593              1.207
 Vibration    20          0.722              1.588              1.196
 Vibration    21          0.735              1.553              1.119
 Vibration    22          0.758              1.492              1.001
 Vibration    23          0.766              1.469              0.961
 Vibration    24          0.768              1.466              0.955
 Vibration    25          0.785              1.421              0.883
 Vibration    26          0.804              1.372              0.811
 Vibration    27          0.834              1.299              0.716
 Vibration    28          0.845              1.275              0.687
 Vibration    29          0.912              1.126              0.531
 Vibration    30          0.928              1.091              0.500
 Vibration    31          0.942              1.063              0.476

                           ! Non-Optimized Parameters !
 Normal termination of Gaussian 16 at Thu Dec 10 09:47:58 2020.

 ----------------------------------------------------------------------
 # B3LYP/6-311++G(d,p) empiricaldispersion=gd3bj scf=xqc pop=npa geom=c
 heck
 ----------------------------------------------------------------------

 ---------------------------------------
 CID_153844207_JID_4094_Energie_neutraal
 ---------------------------------------
 Structure from the checkpoint file:  "JID_4094.chk"
 Charge =  0 Multiplicity = 1

 SCF Done:  E(RB3LYP) =  -567.804049856     A.U. after   13 cycles
 Normal termination of Gaussian 16 at Thu Dec 10 09:55:31 2020.

 ----------------------------------------------------------------------
 # B3LYP/6-311++G(d,p) empiricaldispersion=gd3bj scf=xqc pop=npa geom=c
 heck
 ----------------------------------------------------------------------

 -------------------------------------
 CID_153844207_JID_4094_Energie_kation
 -------------------------------------
 Structure from the checkpoint file:  "JID_4094.chk"
 Charge =  1 Multiplicity = 2

 SCF Done:  E(UB3LYP) =  -567.531479390     A.U. after   17 cycles
 Normal termination of Gaussian 16 at Thu Dec 10 10:08:42 2020.
 Gaussian 16:  ES64L-G16RevA.03 25-Dec-2016

 ----------------------------------------------------------------------
 # B3LYP/6-311++G(d,p) empiricaldispersion=gd3bj scf=xqc pop=npa geom=c
 heck
 ----------------------------------------------------------------------

 ------------------------------------
 CID_153844207_JID_4094_Energie_anion
 ------------------------------------
 Structure from the checkpoint file:  "JID_4094.chk"
 Charge = -1 Multiplicity = 2

                         Standard orientation:
 ---------------------------------------------------------------------
 Center     Atomic      Atomic             Coordinates (Angstroms)
 Number     Number       Type             X           Y           Z
 ---------------------------------------------------------------------
      1          6           0        4.117568    0.556182   -0.574922
      2          6           0        2.600099    0.730931   -0.436738
      3          6           0        1.868617   -0.599289   -0.163237
      4          6           0        2.281796   -1.223132    1.184876
      5          7           0        0.411719   -0.602738   -0.509758
      6          6           0        0.095557   -1.884080   -1.139527
      7          6           0       -0.631902   -0.098885    0.453074
      8          6           0       -0.815972   -1.036565    1.677388
      9          6           0       -0.163032    1.261424    1.043795
     10          6           0        0.000226    2.480373    0.124547
     11          6           0       -2.065258    0.054221   -0.263877
     12          6           0       -1.948947    0.586959   -1.707406
     13          6           0       -2.901760   -1.257259   -0.273889
     14          6           0       -2.965868    1.044069    0.518079
     15          1           0        4.586778    0.257954    0.368695
     16          1           0        4.585778    1.495407   -0.889367
     17          1           0        4.364670   -0.205470   -1.325362
     18          1           0        2.405226    1.472335    0.342780
     19          1           0        2.201131    1.136197   -1.372242
     20          1           0        2.290466   -1.271363   -0.917772
     21          1           0        2.097116   -0.556801    2.033265
     22          1           0        1.753733   -2.163564    1.365332
     23          1           0        3.353700   -1.446589    1.175877
     24          1           0        0.041705   -2.742352   -0.445078
     25          1           0       -0.844432   -1.837961   -1.681606
     26          1           0        0.864569   -2.115193   -1.882005
     27          1           0        0.027286   -0.963111    2.364342
     28          1           0       -1.712502   -0.766175    2.243189
     29          1           0       -0.919975   -2.083653    1.382595
     30          1           0       -0.854682    1.521340    1.851478
     31          1           0        0.787852    1.075591    1.548526
     32          1           0       -0.952444    2.969539   -0.092328
     33          1           0        0.640241    3.227319    0.608674
     34          1           0        0.458720    2.216283   -0.828013
     35          1           0       -1.381905   -0.076354   -2.361819
     36          1           0       -2.953829    0.700209   -2.132431
     37          1           0       -1.464625    1.563065   -1.742516
     38          1           0       -3.244872   -1.516677    0.732066
     39          1           0       -3.796641   -1.097142   -0.886103
     40          1           0       -2.387809   -2.130170   -0.673557
     41          1           0       -3.064990    0.765622    1.572441
     42          1           0       -2.616608    2.076305    0.470987
     43          1           0       -3.972422    1.024894    0.085275
 ---------------------------------------------------------------------

 SCF Done:  E(UB3LYP) =  -567.787365820     A.U. after   29 cycles

 The electronic state is 2-A.
 Alpha  occ. eigenvalues --  -14.19921 -10.11433 -10.09739 -10.09002 -10.07892
 Alpha  occ. eigenvalues --  -10.06557 -10.05992 -10.05948 -10.05807 -10.05763
 Alpha  occ. eigenvalues --  -10.05668 -10.05616 -10.05275 -10.05227  -0.81319
 Alpha  occ. eigenvalues --   -0.72518  -0.68437  -0.67350  -0.62760  -0.61968
 Alpha  occ. eigenvalues --   -0.58665  -0.58476  -0.56889  -0.54202  -0.52121
 Alpha  occ. eigenvalues --   -0.49541  -0.46876  -0.41383  -0.38603  -0.37447
 Alpha  occ. eigenvalues --   -0.35717  -0.35466  -0.35304  -0.34417  -0.33661
 Alpha  occ. eigenvalues --   -0.32510  -0.31286  -0.30532  -0.29738  -0.29665
 Alpha  occ. eigenvalues --   -0.29216  -0.28658  -0.28038  -0.27549  -0.27293
 Alpha  occ. eigenvalues --   -0.26711  -0.26238  -0.25284  -0.25169  -0.24593
 Alpha  occ. eigenvalues --   -0.23998  -0.22728  -0.22064  -0.21536  -0.20783
 Alpha  occ. eigenvalues --   -0.19739  -0.10759   0.04458
 Alpha virt. eigenvalues --    0.06273   0.06881   0.07264   0.08283   0.08525
 Alpha virt. eigenvalues --    0.08709   0.09390   0.09496   0.10487   0.10540
 Alpha virt. eigenvalues --    0.10893   0.11559   0.11721   0.12248   0.12861

  Beta  occ. eigenvalues --  -14.19920 -10.11429 -10.09731 -10.08999 -10.07869
  Beta  occ. eigenvalues --  -10.06548 -10.05981 -10.05926 -10.05772 -10.05750
  Beta  occ. eigenvalues --  -10.05644 -10.05596 -10.05261 -10.05209  -0.81308
  Beta  occ. eigenvalues --   -0.72502  -0.68411  -0.67330  -0.62734  -0.61927
  Beta  occ. eigenvalues --   -0.58631  -0.58437  -0.56843  -0.54150  -0.52073
  Beta  occ. eigenvalues --   -0.49496  -0.46837  -0.41348  -0.38571  -0.37421
  Beta  occ. eigenvalues --   -0.35693  -0.35439  -0.35281  -0.34390  -0.33635
  Beta  occ. eigenvalues --   -0.32485  -0.31263  -0.30505  -0.29715  -0.29639
  Beta  occ. eigenvalues --   -0.29190  -0.28630  -0.28010  -0.27525  -0.27262
  Beta  occ. eigenvalues --   -0.26685  -0.26216  -0.25246  -0.25142  -0.24569
  Beta  occ. eigenvalues --   -0.23974  -0.22703  -0.22040  -0.21502  -0.20766
  Beta  occ. eigenvalues --   -0.19720  -0.10747
  Beta virt. eigenvalues --    0.06393   0.07078   0.07493   0.07763   0.08751
  Beta virt. eigenvalues --    0.09009   0.09191   0.09729   0.09779   0.10883
  Beta virt. eigenvalues --    0.10932   0.11309   0.11839   0.12090   0.12531

 Mulliken charges and spin densities:
               1          2
     1  C    1.071735  -1.872619
     2  C   -1.997910   2.048490
     3  C   -0.078828  -0.133854
     4  C    0.933132  -1.433761
     5  N    0.413514   0.144948
     6  C    0.673356  -0.855263
     7  C   -0.287532  -0.362418
     8  C    0.791793  -1.305286
     9  C   -0.661106   0.453139
    10  C    0.079994  -0.674054
    11  C   -1.108851   1.559657
    12  C   -0.121756  -0.383445
    13  C    0.216660  -0.684484
    14  C    0.345081  -0.969006
    15  H   -0.048973   0.191778
    16  H   -0.395085   0.539077
    17  H   -0.439725   0.581961
    18  H    0.223629  -0.101471
    19  H    0.041964   0.119940
    20  H    0.552505  -0.446605
    21  H    0.001901   0.161303
    22  H   -0.123601   0.271490
    23  H   -0.190389   0.338897
    24  H   -0.191491   0.346047
    25  H    0.386104  -0.264005
    26  H   -0.465390   0.617301
    27  H    0.085496   0.057574
    28  H    0.048731   0.106186
    29  H    0.012473   0.146655
    30  H   -0.023527   0.183020
    31  H   -0.072033   0.207944
    32  H   -0.008639   0.121364
    33  H   -0.162387   0.321163
    34  H    0.135777   0.047177
    35  H   -0.084418   0.198365
    36  H   -0.139000   0.296919
    37  H    0.162056  -0.017070
    38  H   -0.113738   0.257575
    39  H   -0.082651   0.243284
    40  H   -0.227357   0.357977
    41  H   -0.162547   0.315540
    42  H   -0.010119   0.143950
    43  H    0.021153   0.124621
 Sum of Mulliken charges =  -1.00000   1.00000

 Dipole moment (field-independent basis, Debye):
    X=             -2.4928    Y=              1.0758    Z=              0.6863  Tot=              2.8004
 Quadrupole moment (field-independent basis, Debye-Ang):
   XX=           -176.5614   YY=           -141.7590   ZZ=           -135.6546
   XY=             -2.4313   XZ=              4.8607   YZ=              0.1158

 Summary of Natural Population Analysis:

                                       Natural Population
                Natural  -----------------------------------------------
    Atom  No    Charge         Core      Valence    Rydberg      Total
 -----------------------------------------------------------------------
      C    1   -0.28404      0.99966     2.27961    0.00476     3.28404
      C    2   -0.19258      0.99960     2.18381    0.00917     3.19258
      C    3   -0.00232      0.99955     1.98919    0.01358     3.00232
      C    4   -0.29766      0.99963     2.29211    0.00592     3.29766
      N    5   -0.29770      0.99969     2.78319    0.01482     3.79770
      C    6   -0.17514      0.99961     2.16682    0.00871     3.17514
      C    7    0.09302      0.99951     1.88943    0.01804     2.90698
      C    8   -0.30160      0.99961     2.29463    0.00736     3.30160
      C    9   -0.20236      0.99957     2.19301    0.00978     3.20236
      C   10   -0.29008      0.99965     2.28517    0.00525     3.29008
      C   11   -0.04696      0.99956     2.03358    0.01382     3.04696
      C   12   -0.28420      0.99961     2.27724    0.00735     3.28420
      C   13   -0.28787      0.99962     2.28096    0.00730     3.28787
      C   14   -0.28608      0.99962     2.27920    0.00726     3.28608
      H   15    0.09593      0.00000     0.40295    0.00112     0.40407
      H   16    0.09980      0.00000     0.39921    0.00099     0.40020
      H   17    0.09581      0.00000     0.40291    0.00128     0.40419
      H   18    0.09406      0.00000     0.40435    0.00159     0.40594
      H   19    0.10003      0.00000     0.39838    0.00159     0.39997
      H   20    0.09336      0.00000     0.40429    0.00235     0.40664
      H   21    0.09428      0.00000     0.40456    0.00116     0.40572
      H   22    0.10301      0.00000     0.39602    0.00097     0.39699
      H   23    0.10212      0.00000     0.39693    0.00095     0.39788
      H   24    0.08137      0.00000     0.41718    0.00144     0.41863
      H   25    0.09357      0.00000     0.40494    0.00149     0.40643
      H   26    0.09568      0.00000     0.40315    0.00117     0.40432
      H   27    0.10208      0.00000     0.39665    0.00127     0.39792
      H   28    0.09985      0.00000     0.39909    0.00105     0.40015
      H   29    0.10299      0.00000     0.39599    0.00103     0.39701
      H   30    0.10113      0.00000     0.39779    0.00108     0.39887
      H   31    0.10044      0.00000     0.39795    0.00161     0.39956
      H   32    0.09448      0.00000     0.40468    0.00084     0.40552
      H   33    0.09890      0.00000     0.40031    0.00078     0.40110
      H   34    0.10431      0.00000     0.39413    0.00156     0.39569
      H   35    0.10404      0.00000     0.39499    0.00097     0.39596
      H   36    0.09491      0.00000     0.40428    0.00081     0.40509
      H   37    0.10278      0.00000     0.39610    0.00112     0.39722
      H   38    0.10047      0.00000     0.39850    0.00103     0.39953
      H   39    0.09900      0.00000     0.40008    0.00093     0.40100
      H   40    0.10170      0.00000     0.39723    0.00107     0.39830
      H   41    0.09951      0.00000     0.39947    0.00102     0.40049
      H   42    0.09952      0.00000     0.39956    0.00092     0.40048
      H   43    0.10041      0.00000     0.39869    0.00090     0.39959
 =======================================================================
   * Total *   -0.00000     13.99452    42.83829    0.16719    57.00000

 Normal termination of Gaussian 16 at Thu Dec 10 10:34:56 2020.
