 Gaussian 16, Revision A.03,

 -----------------------------------------------------------
 # opt freq B3LYP/6-31G(d) empiricaldispersion=gd3bj scf=xqc
 -----------------------------------------------------------

 -------------------------------
 CID_106201596_JID_3627_neutraal
 -------------------------------
 Symbolic Z-matrix:
 Charge =  0 Multiplicity = 1

 SCF Done:  E(RB3LYP) =  -560.580449973     A.U. after   13 cycles
 SCF Done:  E(RB3LYP) =  -560.583358669     A.U. after   13 cycles
 SCF Done:  E(RB3LYP) =  -560.583596636     A.U. after   11 cycles
 SCF Done:  E(RB3LYP) =  -560.583727950     A.U. after   10 cycles
 SCF Done:  E(RB3LYP) =  -560.583781684     A.U. after   11 cycles
 SCF Done:  E(RB3LYP) =  -560.583811309     A.U. after   10 cycles
 SCF Done:  E(RB3LYP) =  -560.583823850     A.U. after    9 cycles
 SCF Done:  E(RB3LYP) =  -560.583832682     A.U. after   10 cycles
 SCF Done:  E(RB3LYP) =  -560.583838127     A.U. after   11 cycles
 SCF Done:  E(RB3LYP) =  -560.583839010     A.U. after    8 cycles
 SCF Done:  E(RB3LYP) =  -560.584031139     A.U. after   11 cycles
 SCF Done:  E(RB3LYP) =  -560.584039326     A.U. after   11 cycles
 SCF Done:  E(RB3LYP) =  -560.584039349     A.U. after    7 cycles
 SCF Done:  E(RB3LYP) =  -560.584039346     A.U. after    8 cycles
 SCF Done:  E(RB3LYP) =  -560.584039413     A.U. after    7 cycles
 Optimization completed.
    -- Stationary point found.
 Normal termination of Gaussian 16 at Sun Dec 13 20:12:04 2020.

 --------------------------------------------------------------------
 #N Geom=AllCheck Guess=TCheck SCRF=Check GenChk RB3LYP/6-31G(d) Freq
 --------------------------------------------------------------------

 Structure from the checkpoint file:  "JID_3627.chk"
 -------------------------------
 CID_106201596_JID_3627_neutraal
 -------------------------------
 Charge =  0 Multiplicity = 1

 SCF Done:  E(RB3LYP) =  -560.584039413     A.U. after    1 cycles

  Exact polarizability: 132.520  -6.151 114.432  -3.803  -0.193 104.299
 Approx polarizability: 165.723 -12.228 173.391  -7.692   6.073 153.782

                      1                      2                      3
                      A                      A                      A
 Frequencies --     26.8158                37.3117                57.7220
 Red. masses --      4.2632                 5.1800                 2.3740
 Frc consts  --      0.0018                 0.0042                 0.0047
 IR Inten    --      2.4727                 1.7478                 0.3923

                      4                      5                      6
                      A                      A                      A
 Frequencies --     89.6251               125.2687               135.0319
 Red. masses --      3.5361                 3.0460                 3.8367
 Frc consts  --      0.0167                 0.0282                 0.0412
 IR Inten    --      3.3752                 0.0814                 1.8387

                      7                      8                      9
                      A                      A                      A
 Frequencies --    171.6633               185.3184               219.9117
 Red. masses --      3.5793                 3.5095                 3.2543
 Frc consts  --      0.0621                 0.0710                 0.0927
 IR Inten    --      3.3717                 4.0608                 3.7656

                     10                     11                     12
                      A                      A                      A
 Frequencies --    240.6955               250.1417               269.3833
 Red. masses --      1.1406                 1.8313                 1.4980
 Frc consts  --      0.0389                 0.0675                 0.0640
 IR Inten    --      0.4221                 2.3004                 0.6190

                     13                     14                     15
                      A                      A                      A
 Frequencies --    283.2971               328.5717               364.8827
 Red. masses --      1.5517                 2.9112                 2.5450
 Frc consts  --      0.0734                 0.1852                 0.1996
 IR Inten    --      0.2082                 2.1279                 0.0289

                     16                     17                     18
                      A                      A                      A
 Frequencies --    384.5720               395.1346               403.0068
 Red. masses --      2.1464                 2.8213                 2.7970
 Frc consts  --      0.1870                 0.2595                 0.2677
 IR Inten    --      0.3463                 2.8669                 0.1280

                     19                     20                     21
                      A                      A                      A
 Frequencies --    455.3225               557.5022               585.3958
 Red. masses --      3.1183                 2.6705                 5.3955
 Frc consts  --      0.3809                 0.4890                 1.0894
 IR Inten    --     10.4863                 5.4161                 0.3159

                     22                     23                     24
                      A                      A                      A
 Frequencies --    611.0947               717.7539               765.8314
 Red. masses --      4.7177                 3.5566                 1.5783
 Frc consts  --      1.0380                 1.0795                 0.5454
 IR Inten    --      0.2308                 1.4801                 2.2110

                     25                     26                     27
                      A                      A                      A
 Frequencies --    795.7111               811.7347               829.8550
 Red. masses --      1.2716                 1.2820                 1.2927
 Frc consts  --      0.4744                 0.4977                 0.5245
 IR Inten    --      2.7408                 0.9263                 0.3474

                     28                     29                     30
                      A                      A                      A
 Frequencies --    846.9850               893.0131               909.5857
 Red. masses --      1.9118                 3.0287                 2.2033
 Frc consts  --      0.8080                 1.4231                 1.0740
 IR Inten    --     15.4121                 5.8749                 1.3916

                     31                     32                     33
                      A                      A                      A
 Frequencies --    950.6096               957.1017               966.3065
 Red. masses --      2.9546                 2.0181                 1.5442
 Frc consts  --      1.5731                 1.0892                 0.8496
 IR Inten    --     15.0481                 3.5863                 0.6237

                     34                     35                     36
                      A                      A                      A
 Frequencies --   1005.5635              1008.3118              1031.5761
 Red. masses --      1.8401                 1.6427                 1.8594
 Frc consts  --      1.0963                 0.9840                 1.1658
 IR Inten    --      5.9079                 1.6109                 9.7825

                     37                     38                     39
                      A                      A                      A
 Frequencies --   1059.6609              1069.4979              1081.2037
 Red. masses --      1.4091                 1.9271                 2.0053
 Frc consts  --      0.9323                 1.2987                 1.3811
 IR Inten    --      4.3889                 3.3832                 5.0122

                     40                     41                     42
                      A                      A                      A
 Frequencies --   1089.0871              1094.1617              1141.9915
 Red. masses --      1.6613                 1.4419                 1.4942
 Frc consts  --      1.1610                 1.0170                 1.1481
 IR Inten    --      4.6041                 0.4663                41.9151

                     43                     44                     45
                      A                      A                      A
 Frequencies --   1146.2444              1198.2428              1209.4666
 Red. masses --      1.9183                 3.0391                 2.0747
 Frc consts  --      1.4850                 2.5709                 1.7881
 IR Inten    --     52.0518                24.6230                39.2791

                     46                     47                     48
                      A                      A                      A
 Frequencies --   1216.2663              1235.3320              1242.4881
 Red. masses --      1.3839                 2.0753                 1.9162
 Frc consts  --      1.2062                 1.8659                 1.7429
 IR Inten    --      0.3900                14.4418                 0.1524

                     49                     50                     51
                      A                      A                      A
 Frequencies --   1249.0282              1286.6272              1304.7681
 Red. masses --      2.3729                 1.2873                 1.2762
 Frc consts  --      2.1811                 1.2555                 1.2801
 IR Inten    --      8.1161                 7.8785                 7.3851

                     52                     53                     54
                      A                      A                      A
 Frequencies --   1320.3782              1351.9626              1359.0362
 Red. masses --      1.5310                 1.3824                 1.1498
 Frc consts  --      1.5726                 1.4887                 1.2513
 IR Inten    --      1.6012                 2.3800                 1.3936

                     55                     56                     57
                      A                      A                      A
 Frequencies --   1373.6564              1427.5569              1428.8430
 Red. masses --      1.2007                 1.2288                 1.2252
 Frc consts  --      1.3349                 1.4754                 1.4738
 IR Inten    --      9.1452                10.0969                18.4140

                     58                     59                     60
                      A                      A                      A
 Frequencies --   1445.7459              1449.6938              1457.6348
 Red. masses --      1.4217                 1.3314                 1.3189
 Frc consts  --      1.7509                 1.6485                 1.6511
 IR Inten    --      1.9575                 0.8342                 2.5124

                     61                     62                     63
                      A                      A                      A
 Frequencies --   1495.2403              1508.2884              1516.0429
 Red. masses --      1.0873                 1.0667                 1.0705
 Frc consts  --      1.4323                 1.4298                 1.4497
 IR Inten    --      0.6057                 0.6528                 3.2060

                     64                     65                     66
                      A                      A                      A
 Frequencies --   1519.0530              1522.6734              1529.4816
 Red. masses --      1.0604                 1.0720                 1.0496
 Frc consts  --      1.4417                 1.4644                 1.4466
 IR Inten    --      1.0111                 5.7984                 5.0216

                     67                     68                     69
                      A                      A                      A
 Frequencies --   1535.9792              1539.4067              1542.2819
 Red. masses --      1.2290                 1.1656                 1.0666
 Frc consts  --      1.7083                 1.6275                 1.4947
 IR Inten    --      1.2985                 0.1352                10.9073

                     70                     71                     72
                      A                      A                      A
 Frequencies --   1548.7379              2352.2262              2997.9090
 Red. masses --      1.0957                12.6891                 1.0707
 Frc consts  --      1.5485                41.3657                 5.6696
 IR Inten    --      1.8454                10.5116                52.9473

                     73                     74                     75
                      A                      A                      A
 Frequencies --   3027.9224              3057.9475              3060.1612
 Red. masses --      1.0658                 1.0437                 1.0480
 Frc consts  --      5.7573                 5.7503                 5.7824
 IR Inten    --     49.2990                 4.1230                15.9062

                     76                     77                     78
                      A                      A                      A
 Frequencies --   3062.7330              3065.0012              3072.6456
 Red. masses --      1.0880                 1.0436                 1.0600
 Frc consts  --      6.0128                 5.7761                 5.8961
 IR Inten    --      1.4457                23.4437                35.4547

                     79                     80                     81
                      A                      A                      A
 Frequencies --   3092.1521              3097.9410              3120.6882
 Red. masses --      1.0933                 1.1025                 1.1065
 Frc consts  --      6.1593                 6.2343                 6.3490
 IR Inten    --     54.6750                 1.9162                37.8782

                     82                     83                     84
                      A                      A                      A
 Frequencies --   3131.8457              3135.7706              3139.1418
 Red. masses --      1.1034                 1.1027                 1.1037
 Frc consts  --      6.3763                 6.3885                 6.4078
 IR Inten    --      1.9810                32.7947                26.1318

                     85                     86                     87
                      A                      A                      A
 Frequencies --   3140.0056              3142.8233              3147.3044
 Red. masses --      1.0506                 1.0650                 1.0819
 Frc consts  --      6.1028                 6.1981                 6.3142
 IR Inten    --     21.3264                17.3075                11.0349

                     88                     89                     90
                      A                      A                      A
 Frequencies --   3147.9931              3214.6747              3229.4942
 Red. masses --      1.1026                 1.1196                 1.1163
 Frc consts  --      6.4377                 6.8170                 6.8593
 IR Inten    --     20.2980                 1.5526                26.1470

 - Thermochemistry -
 -------------------
 Temperature   298.150 Kelvin.  Pressure   1.00000 Atm.
 Atom     1 has atomic number  6 and mass  12.00000

 Molecular mass:   181.14666 amu.
 Principal axes and moments of inertia in atomic units:
                           1         2         3
     Eigenvalues --  1514.345253902.174074553.04618
           X            0.99985  -0.01658  -0.00455
           Y            0.01636   0.99885  -0.04512
           Z            0.00529   0.04504   0.99897
 This molecule is an asymmetric top.
 Rotational symmetry number  1.
 Warning -- assumption of classical behavior for rotation
           may cause significant error
 Rotational temperatures (Kelvin)      0.05720     0.02220     0.01902
 Rotational constants (GHZ):           1.19176     0.46250     0.39638
 Zero-point vibrational energy     751253.3 (Joules/Mol)
                                  179.55386 (Kcal/Mol)
 Warning -- explicit consideration of  22 degrees of freedom as
           vibrations may cause significant error
 Vibrational temperatures:     38.58    53.68    83.05   128.95   180.23
          (Kelvin)            194.28   246.99   266.63   316.40   346.31
                              359.90   387.58   407.60   472.74   524.98
                              553.31   568.51   579.84   655.11   802.12
                              842.25   879.23  1032.69  1101.86  1144.85
                             1167.91  1193.98  1218.62  1284.85  1308.69
                             1367.72  1377.06  1390.30  1446.78  1450.74
                             1484.21  1524.62  1538.77  1555.61  1566.95
                             1574.25  1643.07  1649.19  1724.00  1740.15
                             1749.94  1777.37  1787.66  1797.07  1851.17
                             1877.27  1899.73  1945.17  1955.35  1976.39
                             2053.94  2055.79  2080.11  2085.79  2097.21
                             2151.32  2170.09  2181.25  2185.58  2190.79
                             2200.58  2209.93  2214.86  2219.00  2228.29
                             3384.33  4313.32  4356.50  4399.70  4402.89
                             4406.59  4409.85  4420.85  4448.92  4457.25
                             4489.97  4506.03  4511.67  4516.52  4517.77
                             4521.82  4528.27  4529.26  4625.20  4646.52

 Zero-point correction=                           0.286137 (Hartree/Particle)
 Thermal correction to Energy=                    0.300928
 Thermal correction to Enthalpy=                  0.301872
 Thermal correction to Gibbs Free Energy=         0.243582
 Sum of electronic and zero-point Energies=           -560.297902
 Sum of electronic and thermal Energies=              -560.283112
 Sum of electronic and thermal Enthalpies=            -560.282167
 Sum of electronic and thermal Free Energies=         -560.340457

                     E (Thermal)             CV                S
                      KCal/Mol        Cal/Mol-Kelvin    Cal/Mol-Kelvin
 Total                  188.835             54.780            122.682
 Electronic               0.000              0.000              0.000
 Translational            0.889              2.981             41.489
 Rotational               0.889              2.981             31.665
 Vibrational            187.058             48.819             49.528
 Vibration     1          0.593              1.984              6.052
 Vibration     2          0.594              1.982              5.397
 Vibration     3          0.596              1.974              4.534
 Vibration     4          0.602              1.957              3.668
 Vibration     5          0.610              1.928              3.017
 Vibration     6          0.613              1.918              2.873
 Vibration     7          0.626              1.877              2.417
 Vibration     8          0.631              1.860              2.274
 Vibration     9          0.647              1.811              1.960
 Vibration    10          0.658              1.778              1.798
 Vibration    11          0.663              1.763              1.730
 Vibration    12          0.674              1.730              1.600
 Vibration    13          0.682              1.705              1.514
 Vibration    14          0.712              1.618              1.267
 Vibration    15          0.738              1.545              1.101
 Vibration    16          0.754              1.503              1.021
 Vibration    17          0.762              1.481              0.981
 Vibration    18          0.768              1.464              0.952
 Vibration    19          0.814              1.349              0.780
 Vibration    20          0.913              1.123              0.529
 Vibration    21          0.942              1.063              0.475
 Vibration    22          0.970              1.008              0.431

 Optimization completed.
    -- Stationary point found.
 Normal termination of Gaussian 16 at Sun Dec 13 20:20:27 2020.

 ----------------------------------------------------------------------
 # B3LYP/6-311++G(d,p) empiricaldispersion=gd3bj scf=xqc pop=npa geom=c
 heck
 ----------------------------------------------------------------------

 ---------------------------------------
 CID_106201596_JID_3627_Energie_neutraal
 ---------------------------------------
 Structure from the checkpoint file:  "JID_3627.chk"
 Charge =  0 Multiplicity = 1

 SCF Done:  E(RB3LYP) =  -560.742605702     A.U. after   13 cycles
 Normal termination of Gaussian 16 at Sun Dec 13 20:24:14 2020.

 ----------------------------------------------------------------------
 # B3LYP/6-311++G(d,p) empiricaldispersion=gd3bj scf=xqc pop=npa geom=c
 heck
 ----------------------------------------------------------------------

 -------------------------------------
 CID_106201596_JID_3627_Energie_kation
 -------------------------------------
 Structure from the checkpoint file:  "JID_3627.chk"
 Charge =  1 Multiplicity = 2

 SCF Done:  E(UB3LYP) =  -560.411223350     A.U. after   24 cycles
 Normal termination of Gaussian 16 at Sun Dec 13 20:34:09 2020.
 Gaussian 16:  ES64L-G16RevA.03 25-Dec-2016

 ----------------------------------------------------------------------
 # B3LYP/6-311++G(d,p) empiricaldispersion=gd3bj scf=xqc pop=npa geom=c
 heck
 ----------------------------------------------------------------------

 ------------------------------------
 CID_106201596_JID_3627_Energie_anion
 ------------------------------------
 Structure from the checkpoint file:  "JID_3627.chk"
 Charge = -1 Multiplicity = 2

                         Standard orientation:
 ---------------------------------------------------------------------
 Center     Atomic      Atomic             Coordinates (Angstroms)
 Number     Number       Type             X           Y           Z
 ---------------------------------------------------------------------
      1          6           0       -2.950139   -0.377225    1.407914
      2          6           0       -2.393356   -0.181355   -0.018701
      3          6           0       -3.556087   -0.017549   -1.019738
      4          6           0       -1.451691    1.048204   -0.101755
      5          6           0       -0.243403    0.965076    0.839244
      6          8           0        0.748661    1.943705    0.585975
      7          6           0        1.422826    1.848881   -0.663309
      8          6           0        2.042787    0.486653   -0.996988
      9          6           0        2.949067   -0.061714    0.089582
     10          6           0        2.540124   -1.254449    0.923156
     11          6           0        3.638095   -1.389786   -0.102121
     12          6           0       -1.613369   -1.377402   -0.396046
     13          7           0       -0.973771   -2.299458   -0.695775
     14          1           0       -3.482536    0.529648    1.714501
     15          1           0       -3.650961   -1.216909    1.437946
     16          1           0       -2.154371   -0.573451    2.130999
     17          1           0       -4.143836    0.866327   -0.750386
     18          1           0       -3.181821    0.112777   -2.039643
     19          1           0       -4.215436   -0.890708   -1.002340
     20          1           0       -1.107284    1.135407   -1.137681
     21          1           0       -2.038332    1.948520    0.116533
     22          1           0       -0.555216    1.146177    1.872097
     23          1           0        0.190530   -0.040504    0.800184
     24          1           0        0.761623    2.156298   -1.489242
     25          1           0        2.215416    2.601576   -0.592717
     26          1           0        1.264699   -0.249802   -1.236958
     27          1           0        2.613845    0.633238   -1.925554
     28          1           0        3.528519    0.698486    0.611414
     29          1           0        2.806208   -1.266419    1.976581
     30          1           0        1.591755   -1.734453    0.694342
     31          1           0        3.411682   -1.949732   -1.006255
     32          1           0        4.663507   -1.495914    0.241369
 ---------------------------------------------------------------------

 SCF Done:  E(UB3LYP) =  -560.729232951     A.U. after   33 cycles
 SCF Done:  E(UB3LYP) =  -560.729232951     a.u. after    1 cycles

 The electronic state is 2-A.
 Alpha  occ. eigenvalues --  -19.02799 -14.21567 -10.13146 -10.12039 -10.11822
 Alpha  occ. eigenvalues --  -10.11344 -10.08975 -10.08352 -10.08121 -10.08072
 Alpha  occ. eigenvalues --  -10.07835 -10.07479 -10.07181  -0.93914  -0.81556
 Alpha  occ. eigenvalues --   -0.77263  -0.74503  -0.67300  -0.63845  -0.60376
 Alpha  occ. eigenvalues --   -0.57048  -0.53439  -0.51490  -0.50367  -0.47217
 Alpha  occ. eigenvalues --   -0.41451  -0.41119  -0.39929  -0.38512  -0.36620
 Alpha  occ. eigenvalues --   -0.36240  -0.34000  -0.33150  -0.32585  -0.30895
 Alpha  occ. eigenvalues --   -0.30042  -0.29377  -0.28644  -0.27923  -0.27494
 Alpha  occ. eigenvalues --   -0.27136  -0.26094  -0.25756  -0.25459  -0.23260
 Alpha  occ. eigenvalues --   -0.22850  -0.21189  -0.20573  -0.19362  -0.16319
 Alpha  occ. eigenvalues --    0.04471
 Alpha virt. eigenvalues --    0.06277   0.06956   0.07855   0.08401   0.08697
 Alpha virt. eigenvalues --    0.08812   0.10294   0.10485   0.10740   0.11470
 Alpha virt. eigenvalues --    0.11549   0.11830   0.12360   0.12422   0.12893

  Beta  occ. eigenvalues --  -19.02799 -14.21559 -10.13141 -10.12019 -10.11812
  Beta  occ. eigenvalues --  -10.11344 -10.08972 -10.08348 -10.08118 -10.08044
  Beta  occ. eigenvalues --  -10.07822 -10.07426 -10.07125  -0.93905  -0.81547
  Beta  occ. eigenvalues --   -0.77255  -0.74476  -0.67272  -0.63807  -0.60281
  Beta  occ. eigenvalues --   -0.56990  -0.53369  -0.51475  -0.50331  -0.47183
  Beta  occ. eigenvalues --   -0.41418  -0.41091  -0.39903  -0.38477  -0.36583
  Beta  occ. eigenvalues --   -0.36199  -0.33958  -0.33109  -0.32551  -0.30845
  Beta  occ. eigenvalues --   -0.29991  -0.29344  -0.28604  -0.27910  -0.27466
  Beta  occ. eigenvalues --   -0.27096  -0.26054  -0.25728  -0.25433  -0.23235
  Beta  occ. eigenvalues --   -0.22826  -0.21174  -0.20564  -0.19350  -0.16306
  Beta virt. eigenvalues --    0.06380   0.07283   0.07564   0.08116   0.09004
  Beta virt. eigenvalues --    0.09258   0.09620   0.10625   0.10793   0.11189
  Beta virt. eigenvalues --    0.11690   0.11812   0.12130   0.12535   0.12694

 Mulliken charges and spin densities:
               1          2
     1  C    1.064244  -1.673059
     2  C   -2.539205   3.697554
     3  C    0.987035  -1.471780
     4  C    0.917033  -1.238719
     5  C   -0.454245  -0.090651
     6  O   -0.055341   0.027129
     7  C    0.405723  -0.935812
     8  C   -0.272067   0.020868
     9  C    0.089546   0.075157
    10  C   -0.286819  -0.121303
    11  C   -0.308883  -0.071707
    12  C    1.668190  -2.259543
    13  N   -0.331914   0.065612
    14  H   -0.554457   0.742747
    15  H   -0.341013   0.502639
    16  H   -0.069115   0.238746
    17  H   -0.632524   0.808329
    18  H   -0.388147   0.549452
    19  H   -0.265917   0.427847
    20  H    0.146394  -0.006945
    21  H   -0.065064   0.280739
    22  H    0.006108   0.177088
    23  H    0.209240  -0.095266
    24  H   -0.292362   0.447401
    25  H   -0.108632   0.262437
    26  H    0.119344   0.068749
    27  H   -0.196026   0.357828
    28  H    0.123930   0.089502
    29  H    0.111810   0.023075
    30  H    0.152942  -0.003274
    31  H    0.112512   0.016079
    32  H    0.047681   0.089079
 Sum of Mulliken charges =  -1.00000   1.00000

 Dipole moment (field-independent basis, Debye):
    X=              8.0412    Y=             -1.5048    Z=              1.4575  Tot=              8.3096
 Quadrupole moment (field-independent basis, Debye-Ang):
   XX=           -160.9563   YY=           -128.4381   ZZ=           -120.2026
   XY=              1.3158   XZ=              4.2326   YZ=              0.1137

 Summary of Natural Population Analysis:

                                       Natural Population
                Natural  -----------------------------------------------
    Atom  No    Charge         Core      Valence    Rydberg      Total
 -----------------------------------------------------------------------
      C    1   -0.27683      0.99963     2.26936    0.00784     3.27683
      C    2   -0.09528      0.99950     2.08115    0.01463     3.09528
      C    3   -0.27356      0.99963     2.26611    0.00781     3.27356
      C    4   -0.19533      0.99959     2.18533    0.01040     3.19533
      C    5   -0.01355      0.99955     2.00143    0.01257     3.01355
      O    6   -0.29854      0.99989     3.28956    0.00909     4.29854
      C    7   -0.00684      0.99957     1.99400    0.01327     3.00684
      C    8   -0.21252      0.99961     2.20367    0.00924     3.21252
      C    9   -0.11691      0.99959     2.10575    0.01158     3.11691
      C   10   -0.19963      0.99962     2.19331    0.00671     3.19963
      C   11   -0.19850      0.99962     2.19252    0.00636     3.19850
      C   12    0.17169      0.99961     1.80705    0.02164     2.82831
      N   13   -0.19194      0.99979     2.68075    0.01141     3.69194
      H   14    0.10821      0.00000     0.38954    0.00225     0.39179
      H   15    0.10627      0.00000     0.39200    0.00173     0.39373
      H   16    0.10227      0.00000     0.39631    0.00143     0.39773
      H   17    0.10800      0.00000     0.38904    0.00296     0.39200
      H   18    0.10524      0.00000     0.39278    0.00198     0.39476
      H   19    0.10470      0.00000     0.39340    0.00190     0.39530
      H   20    0.10343      0.00000     0.39402    0.00255     0.39657
      H   21    0.10717      0.00000     0.39110    0.00173     0.39283
      H   22    0.09120      0.00000     0.40728    0.00152     0.40880
      H   23    0.08433      0.00000     0.41313    0.00254     0.41567
      H   24    0.08259      0.00000     0.41601    0.00140     0.41741
      H   25    0.08809      0.00000     0.41060    0.00131     0.41191
      H   26    0.10353      0.00000     0.39443    0.00203     0.39647
      H   27    0.10309      0.00000     0.39572    0.00119     0.39691
      H   28    0.10195      0.00000     0.39701    0.00104     0.39805
      H   29    0.09926      0.00000     0.39982    0.00092     0.40074
      H   30    0.10901      0.00000     0.38983    0.00116     0.39099
      H   31    0.10121      0.00000     0.39787    0.00091     0.39879
      H   32    0.09820      0.00000     0.40094    0.00086     0.40180
 =======================================================================
   * Total *   -0.00000     12.99520    36.83081    0.17399    50.00000

 Normal termination of Gaussian 16 at Sun Dec 13 20:46:38 2020.
