 Gaussian 16, Revision A.03,

 -----------------------------------------------------------
 # opt freq B3LYP/6-31G(d) empiricaldispersion=gd3bj scf=xqc
 -----------------------------------------------------------

 -------------------------------
 CID_106965768_JID_8301_neutraal
 -------------------------------
 Symbolic Z-matrix:
 Charge =  0 Multiplicity = 1

 SCF Done:  E(RB3LYP) =  -856.050403690     A.U. after   15 cycles
 SCF Done:  E(RB3LYP) =  -856.056289685     A.U. after   12 cycles
 SCF Done:  E(RB3LYP) =  -856.054206355     A.U. after   13 cycles
 SCF Done:  E(RB3LYP) =  -856.055124953     A.U. after   12 cycles
 SCF Done:  E(RB3LYP) =  -856.057388511     A.U. after    9 cycles
 SCF Done:  E(RB3LYP) =  -856.058323488     A.U. after   11 cycles
 SCF Done:  E(RB3LYP) =  -856.058513799     A.U. after   12 cycles
 SCF Done:  E(RB3LYP) =  -856.058817849     A.U. after   11 cycles
 SCF Done:  E(RB3LYP) =  -856.058984632     A.U. after   11 cycles
 SCF Done:  E(RB3LYP) =  -856.059077790     A.U. after   11 cycles
 SCF Done:  E(RB3LYP) =  -856.059180050     A.U. after   10 cycles
 SCF Done:  E(RB3LYP) =  -856.059183406     A.U. after    9 cycles
 SCF Done:  E(RB3LYP) =  -856.059184702     A.U. after    9 cycles
 SCF Done:  E(RB3LYP) =  -856.059185053     A.U. after    8 cycles
 SCF Done:  E(RB3LYP) =  -856.059185155     A.U. after    7 cycles
 Optimization completed.
    -- Stationary point found.
 Normal termination of Gaussian 16 at Fri Dec 11 19:58:27 2020.

 --------------------------------------------------------------------
 #N Geom=AllCheck Guess=TCheck SCRF=Check GenChk RB3LYP/6-31G(d) Freq
 --------------------------------------------------------------------

 Structure from the checkpoint file:  "JID_8301.chk"
 -------------------------------
 CID_106965768_JID_8301_neutraal
 -------------------------------
 Charge =  0 Multiplicity = 1

 SCF Done:  E(RB3LYP) =  -856.059185155     A.U. after    1 cycles

  Exact polarizability: 206.089   4.996 142.797   0.398  -0.214 118.438
 Approx polarizability: 235.301   5.777 223.476  -0.306   0.193 188.447

                      1                      2                      3
                      A                      A                      A
 Frequencies --     17.8858                25.8461                38.3816
 Red. masses --      3.8000                 3.5672                 3.6225
 Frc consts  --      0.0007                 0.0014                 0.0031
 IR Inten    --      1.2846                 0.8259                 0.1697

                      4                      5                      6
                      A                      A                      A
 Frequencies --     52.0970                72.2171                88.0010
 Red. masses --      5.8661                 3.0490                 3.7543
 Frc consts  --      0.0094                 0.0094                 0.0171
 IR Inten    --      4.1472                 1.4740                 1.1808

                      7                      8                      9
                      A                      A                      A
 Frequencies --     93.2873               101.3828               123.6619
 Red. masses --      2.2552                 2.6305                 3.7287
 Frc consts  --      0.0116                 0.0159                 0.0336
 IR Inten    --      1.8884                 1.1531                 1.1060

                     10                     11                     12
                      A                      A                      A
 Frequencies --    146.0690               146.8463               188.0010
 Red. masses --      2.3088                 3.9245                 2.2015
 Frc consts  --      0.0290                 0.0499                 0.0458
 IR Inten    --      1.4602                 0.7231                 1.6178

                     13                     14                     15
                      A                      A                      A
 Frequencies --    211.6805               221.8961               225.3564
 Red. masses --      1.2014                 1.0603                 1.1786
 Frc consts  --      0.0317                 0.0308                 0.0353
 IR Inten    --      0.9784                 0.3434                 0.1332

                     16                     17                     18
                      A                      A                      A
 Frequencies --    244.5007               251.1602               264.9908
 Red. masses --      1.7870                 1.7618                 2.3106
 Frc consts  --      0.0629                 0.0655                 0.0956
 IR Inten    --      4.8126                 0.0690                 1.8399

                     19                     20                     21
                      A                      A                      A
 Frequencies --    268.9446               317.1643               335.5922
 Red. masses --      2.0803                 2.8864                 3.7378
 Frc consts  --      0.0887                 0.1711                 0.2480
 IR Inten    --      3.0894                 0.5311                 3.5780

                     22                     23                     24
                      A                      A                      A
 Frequencies --    357.9592               370.0114               410.4030
 Red. masses --      3.8800                 4.0417                 4.4278
 Frc consts  --      0.2929                 0.3260                 0.4394
 IR Inten    --      8.6566                14.2388                 4.5013

                     25                     26                     27
                      A                      A                      A
 Frequencies --    425.0795               437.7041               459.0632
 Red. masses --      2.4060                 5.3271                 3.0121
 Frc consts  --      0.2561                 0.6013                 0.3740
 IR Inten    --      4.7771                 0.4922                 5.7520

                     28                     29                     30
                      A                      A                      A
 Frequencies --    496.1321               576.2883               633.8212
 Red. masses --      3.0854                 2.4675                 4.5230
 Frc consts  --      0.4475                 0.4828                 1.0706
 IR Inten    --      5.4053                46.5304                 5.1857

                     31                     32                     33
                      A                      A                      A
 Frequencies --    658.2322               674.1060               719.3953
 Red. masses --      2.1852                 4.6733                 4.4159
 Frc consts  --      0.5578                 1.2512                 1.3465
 IR Inten    --     74.7960                 9.4415                 2.7399

                     34                     35                     36
                      A                      A                      A
 Frequencies --    728.3651               757.1591               761.9605
 Red. masses --      3.6938                 3.5982                 4.0460
 Frc consts  --      1.1546                 1.2154                 1.3840
 IR Inten    --     37.2994                 5.9380                70.5717

                     37                     38                     39
                      A                      A                      A
 Frequencies --    791.4927               799.6978               837.8228
 Red. masses --      1.9840                 1.2247                 3.6482
 Frc consts  --      0.7323                 0.4615                 1.5088
 IR Inten    --     35.6601                12.5253                 3.9104

                     40                     41                     42
                      A                      A                      A
 Frequencies --    893.8576               898.4052               938.7612
 Red. masses --      2.1932                 1.5693                 2.2788
 Frc consts  --      1.0324                 0.7463                 1.1832
 IR Inten    --      3.8405                17.3891                 0.2349

                     43                     44                     45
                      A                      A                      A
 Frequencies --    981.5759               991.3782              1019.0170
 Red. masses --      5.4099                 9.6038                 2.4123
 Frc consts  --      3.0710                 5.5612                 1.4759
 IR Inten    --      7.4799                 0.4676                 0.4549

                     46                     47                     48
                      A                      A                      A
 Frequencies --   1028.4664              1052.5418              1076.6109
 Red. masses --      1.8876                 3.6243                 1.6883
 Frc consts  --      1.1764                 2.3657                 1.1529
 IR Inten    --     19.7479                 6.6974               123.4719

                     49                     50                     51
                      A                      A                      A
 Frequencies --   1090.8242              1098.8515              1104.9961
 Red. masses --      1.8591                 2.9533                 1.7805
 Frc consts  --      1.3034                 2.1010                 1.2809
 IR Inten    --     30.6981                49.4117                 5.5930

                     52                     53                     54
                      A                      A                      A
 Frequencies --   1123.6253              1128.6859              1150.6420
 Red. masses --      1.6893                 2.2540                 2.5691
 Frc consts  --      1.2566                 1.6918                 2.0040
 IR Inten    --     16.5347                13.2923                31.7715

                     55                     56                     57
                      A                      A                      A
 Frequencies --   1158.4445              1166.9286              1175.5790
 Red. masses --      2.2435                 1.3159                 1.8037
 Frc consts  --      1.7739                 1.0558                 1.4687
 IR Inten    --     39.7876                12.8250                25.4073

                     58                     59                     60
                      A                      A                      A
 Frequencies --   1209.7950              1220.4744              1239.3604
 Red. masses --      2.4051                 2.1516                 2.3337
 Frc consts  --      2.0740                 1.8883                 2.1120
 IR Inten    --     60.0317                17.0145                 7.4347

                     61                     62                     63
                      A                      A                      A
 Frequencies --   1261.9487              1326.7676              1346.3281
 Red. masses --      2.9915                 1.4458                 1.4872
 Frc consts  --      2.8068                 1.4995                 1.5883
 IR Inten    --     19.9913                 2.6642                94.7201

                     64                     65                     66
                      A                      A                      A
 Frequencies --   1360.1052              1380.2881              1396.1307
 Red. masses --      1.3026                 1.8328                 1.2392
 Frc consts  --      1.4197                 2.0573                 1.4231
 IR Inten    --      4.0376                 5.8397                57.3178

                     67                     68                     69
                      A                      A                      A
 Frequencies --   1407.5552              1428.0225              1432.6043
 Red. masses --      1.2491                 2.2468                 1.2756
 Frc consts  --      1.4580                 2.6995                 1.5424
 IR Inten    --      8.0350                30.9736                16.2975

                     70                     71                     72
                      A                      A                      A
 Frequencies --   1435.9371              1436.2471              1456.0377
 Red. masses --      1.2628                 1.2833                 2.0120
 Frc consts  --      1.5341                 1.5596                 2.5131
 IR Inten    --     25.6806                10.6531                99.2428

                     73                     74                     75
                      A                      A                      A
 Frequencies --   1481.1235              1490.4423              1496.9889
 Red. masses --      1.1613                 1.5953                 1.3308
 Frc consts  --      1.5010                 2.0880                 1.7571
 IR Inten    --      4.7930                44.6579                 4.9691

                     76                     77                     78
                      A                      A                      A
 Frequencies --   1503.3064              1508.8498              1516.0503
 Red. masses --      1.1588                 1.1388                 1.0507
 Frc consts  --      1.5429                 1.5275                 1.4229
 IR Inten    --     15.8670                12.1694                 6.3463

                     79                     80                     81
                      A                      A                      A
 Frequencies --   1521.2106              1522.3265              1526.0784
 Red. masses --      1.0659                 1.0847                 1.0792
 Frc consts  --      1.4532                 1.4811                 1.4808
 IR Inten    --      3.9331                 0.2790                16.0418

                     82                     83                     84
                      A                      A                      A
 Frequencies --   1532.9942              1534.1951              1537.0410
 Red. masses --      1.0801                 1.0636                 1.0525
 Frc consts  --      1.4955                 1.4750                 1.4651
 IR Inten    --      7.9237                 2.7319                 5.7323

                     85                     86                     87
                      A                      A                      A
 Frequencies --   1545.0738              1549.1099              1553.5413
 Red. masses --      1.0478                 1.0456                 1.1567
 Frc consts  --      1.4738                 1.4784                 1.6449
 IR Inten    --     10.0491                 9.5350                23.2293

                     88                     89                     90
                      A                      A                      A
 Frequencies --   1628.7481              1672.0242              1752.7187
 Red. masses --      8.9154                 7.1189                 9.4681
 Frc consts  --     13.9348                11.7259                17.1371
 IR Inten    --    147.1555               469.6290               240.6792

                     91                     92                     93
                      A                      A                      A
 Frequencies --   2980.6476              3034.5195              3034.8476
 Red. masses --      1.0568                 1.0814                 1.0475
 Frc consts  --      5.5317                 5.8668                 5.6846
 IR Inten    --     91.7567                 8.7324                48.5220

                     94                     95                     96
                      A                      A                      A
 Frequencies --   3057.7438              3068.0906              3069.9198
 Red. masses --      1.0368                 1.0348                 1.0677
 Frc consts  --      5.7114                 5.7390                 5.9286
 IR Inten    --     26.3443                14.7681                35.2644

                     97                     98                     99
                      A                      A                      A
 Frequencies --   3074.9933              3077.3126              3077.7536
 Red. masses --      1.0527                 1.0776                 1.0681
 Frc consts  --      5.8648                 6.0122                 5.9611
 IR Inten    --      9.0786                41.6533                11.6519

                    100                    101                    102
                      A                      A                      A
 Frequencies --   3094.8032              3117.5831              3124.3464
 Red. masses --      1.0973                 1.1017                 1.1019
 Frc consts  --      6.1924                 6.3087                 6.3373
 IR Inten    --     30.6527                24.6518                28.0802

                    103                    104                    105
                      A                      A                      A
 Frequencies --   3140.7591              3143.0856              3143.5385
 Red. masses --      1.1026                 1.0972                 1.1036
 Frc consts  --      6.4084                 6.3865                 6.4253
 IR Inten    --     20.0234                16.3092                24.3035

                    106                    107                    108
                      A                      A                      A
 Frequencies --   3146.6733              3154.7523              3166.3930
 Red. masses --      1.1019                 1.1026                 1.1023
 Frc consts  --      6.4283                 6.4655                 6.5117
 IR Inten    --     16.5347                19.5026                10.7527

                    109                    110                    111
                      A                      A                      A
 Frequencies --   3196.8880              3487.8988              3570.8835
 Red. masses --      1.0961                 1.0739                 1.0752
 Frc consts  --      6.5999                 7.6976                 8.0776
 IR Inten    --      1.5569                 0.0347                34.7967

 - Thermochemistry -
 -------------------
 Temperature   298.150 Kelvin.  Pressure   1.00000 Atm.
 Atom     1 has atomic number  6 and mass  12.00000

 Molecular mass:   255.16953 amu.
 Principal axes and moments of inertia in atomic units:
                           1         2         3
     Eigenvalues --  1724.82279********************
           X            0.99994   0.01001  -0.00376
           Y           -0.00999   0.99994   0.00420
           Z            0.00380  -0.00417   0.99998
 This molecule is an asymmetric top.
 Rotational symmetry number  1.
 Warning -- assumption of classical behavior for rotation
           may cause significant error
 Rotational temperatures (Kelvin)      0.05022     0.00776     0.00720
 Rotational constants (GHZ):           1.04633     0.16170     0.15010
 Zero-point vibrational energy     882734.6 (Joules/Mol)
                                  210.97864 (Kcal/Mol)
 Warning -- explicit consideration of  29 degrees of freedom as
           vibrations may cause significant error
 Vibrational temperatures:     25.73    37.19    55.22    74.96   103.90
          (Kelvin)            126.61   134.22   145.87   177.92   210.16
                              211.28   270.49   304.56   319.26   324.24
                              351.78   361.36   381.26   386.95   456.33
                              482.84   515.02   532.36   590.48   611.59
                              629.76   660.49   713.82   829.15   911.93
                              947.05   969.89  1035.05  1047.95  1089.38
                             1096.29  1138.78  1150.59  1205.44  1286.06
                             1292.60  1350.67  1412.27  1426.37  1466.14
                             1479.73  1514.37  1549.00  1569.45  1581.00
                             1589.84  1616.65  1623.93  1655.52  1666.74
                             1678.95  1691.40  1740.63  1755.99  1783.16
                             1815.66  1908.92  1937.07  1956.89  1985.93
                             2008.72  2025.16  2054.61  2061.20  2065.99
                             2066.44  2094.91  2131.01  2144.41  2153.83
                             2162.92  2170.90  2181.26  2188.68  2190.29
                             2195.69  2205.64  2207.36  2211.46  2223.02
                             2228.82  2235.20  2343.41  2405.67  2521.77
                             4288.49  4366.00  4366.47  4399.41  4414.30
                             4416.93  4424.23  4427.57  4428.20  4452.73
                             4485.51  4495.24  4518.85  4522.20  4522.85
                             4527.36  4538.98  4555.73  4599.61  5018.31
                             5137.70

 Zero-point correction=                           0.336216 (Hartree/Particle)
 Thermal correction to Energy=                    0.356393
 Thermal correction to Enthalpy=                  0.357337
 Thermal correction to Gibbs Free Energy=         0.285343
 Sum of electronic and zero-point Energies=           -855.722969
 Sum of electronic and thermal Energies=              -855.702793
 Sum of electronic and thermal Enthalpies=            -855.701848
 Sum of electronic and thermal Free Energies=         -855.773842

                     E (Thermal)             CV                S
                      KCal/Mol        Cal/Mol-Kelvin    Cal/Mol-Kelvin
 Total                  223.640             72.620            151.523
 Electronic               0.000              0.000              0.000
 Translational            0.889              2.981             42.510
 Rotational               0.889              2.981             33.803
 Vibrational            221.862             66.658             75.210
 Vibration     1          0.593              1.986              6.856
 Vibration     2          0.593              1.985              6.125
 Vibration     3          0.594              1.982              5.341
 Vibration     4          0.596              1.977              4.736
 Vibration     5          0.598              1.967              4.092
 Vibration     6          0.601              1.958              3.704
 Vibration     7          0.602              1.954              3.590
 Vibration     8          0.604              1.948              3.428
 Vibration     9          0.610              1.929              3.042
 Vibration    10          0.617              1.907              2.723
 Vibration    11          0.617              1.906              2.713
 Vibration    12          0.633              1.856              2.247
 Vibration    13          0.643              1.823              2.029
 Vibration    14          0.648              1.808              1.944
 Vibration    15          0.650              1.802              1.916
 Vibration    16          0.660              1.772              1.770
 Vibration    17          0.663              1.761              1.722
 Vibration    18          0.671              1.737              1.629
 Vibration    19          0.673              1.730              1.603
 Vibration    20          0.704              1.641              1.325
 Vibration    21          0.717              1.604              1.233
 Vibration    22          0.733              1.559              1.131
 Vibration    23          0.742              1.534              1.080
 Vibration    24          0.775              1.448              0.925
 Vibration    25          0.787              1.416              0.875
 Vibration    26          0.798              1.388              0.834
 Vibration    27          0.817              1.341              0.769
 Vibration    28          0.852              1.259              0.668
 Vibration    29          0.933              1.083              0.492

                           ! Non-Optimized Parameters !
 Normal termination of Gaussian 16 at Fri Dec 11 20:13:38 2020.

 ----------------------------------------------------------------------
 # B3LYP/6-311++G(d,p) empiricaldispersion=gd3bj scf=xqc pop=npa geom=c
 heck
 ----------------------------------------------------------------------

 ---------------------------------------
 CID_106965768_JID_8301_Energie_neutraal
 ---------------------------------------
 Structure from the checkpoint file:  "JID_8301.chk"
 Charge =  0 Multiplicity = 1

 SCF Done:  E(RB3LYP) =  -856.305532338     A.U. after   16 cycles
 Normal termination of Gaussian 16 at Fri Dec 11 20:20:24 2020.

 ----------------------------------------------------------------------
 # B3LYP/6-311++G(d,p) empiricaldispersion=gd3bj scf=xqc pop=npa geom=c
 heck
 ----------------------------------------------------------------------

 -------------------------------------
 CID_106965768_JID_8301_Energie_kation
 -------------------------------------
 Structure from the checkpoint file:  "JID_8301.chk"
 Charge =  1 Multiplicity = 2

 SCF Done:  E(UB3LYP) =  -856.010575515     A.U. after   27 cycles
 Normal termination of Gaussian 16 at Fri Dec 11 20:36:18 2020.
 Gaussian 16:  ES64L-G16RevA.03 25-Dec-2016

 ----------------------------------------------------------------------
 # B3LYP/6-311++G(d,p) empiricaldispersion=gd3bj scf=xqc pop=npa geom=c
 heck
 ----------------------------------------------------------------------

 ------------------------------------
 CID_106965768_JID_8301_Energie_anion
 ------------------------------------
 Structure from the checkpoint file:  "JID_8301.chk"
 Charge = -1 Multiplicity = 2

                         Standard orientation:
 ---------------------------------------------------------------------
 Center     Atomic      Atomic             Coordinates (Angstroms)
 Number     Number       Type             X           Y           Z
 ---------------------------------------------------------------------
      1          6           0       -5.792743    0.797943    0.242309
      2          6           0       -4.983370   -0.285526   -0.472036
      3          7           0       -3.593655   -0.367488   -0.003073
      4          6           0       -3.389735   -1.113456    1.234748
      5          6           0       -2.715857    0.536834   -0.545523
      6          8           0       -3.068345    1.349433   -1.395984
      7          6           0       -1.242533    0.541174   -0.104880
      8          6           0       -1.058724    1.292575    1.221386
      9          7           0       -0.695004   -0.831297   -0.061284
     10          6           0        0.649683   -1.043408   -0.195236
     11          7           0        1.243451   -2.086230   -0.703318
     12          7           0        2.617945   -1.845604   -0.536332
     13          6           0        2.741264   -0.695106    0.033233
     14          8           0        1.512643   -0.113674    0.288856
     15          6           0        3.978094    0.068322    0.390855
     16          6           0        5.210570   -0.844237    0.303541
     17          7           0        4.024073    1.279965   -0.438186
     18          6           0        4.994143    2.276540    0.000842
     19          1           0       -5.823277    0.632242    1.325054
     20          1           0       -6.824748    0.804620   -0.125168
     21          1           0       -5.351067    1.778876    0.047887
     22          1           0       -5.433228   -1.272961   -0.319986
     23          1           0       -4.955315   -0.081156   -1.543469
     24          1           0       -2.329623   -1.234001    1.445335
     25          1           0       -3.870994   -0.613095    2.085852
     26          1           0       -3.834002   -2.109310    1.130163
     27          1           0       -0.744464    1.114545   -0.893622
     28          1           0       -1.530035    0.766850    2.055916
     29          1           0        0.003584    1.413473    1.442029
     30          1           0       -1.509499    2.286080    1.133049
     31          1           0       -1.209308   -1.502705   -0.621527
     32          1           0        3.862204    0.416249    1.427017
     33          1           0        5.319411   -1.241566   -0.710231
     34          1           0        6.113579   -0.285331    0.565133
     35          1           0        5.120048   -1.695396    0.984879
     36          1           0        4.212702    1.008100   -1.401960
     37          1           0        6.042311    1.933117    0.035131
     38          1           0        4.942732    3.139513   -0.670195
     39          1           0        4.722185    2.620438    1.005656
 ---------------------------------------------------------------------

 SCF Done:  E(UB3LYP) =  -856.296994810     A.U. after   33 cycles
 SCF Done:  E(UB3LYP) =  -856.296994811     a.u. after    1 cycles

 The electronic state is 2-A.
 Alpha  occ. eigenvalues --  -19.12465 -19.00965 -14.26960 -14.26678 -14.25311
 Alpha  occ. eigenvalues --  -14.24093 -14.22426 -10.21560 -10.19454 -10.17796
 Alpha  occ. eigenvalues --  -10.14847 -10.14114 -10.12062 -10.11725 -10.10655
 Alpha  occ. eigenvalues --  -10.08578 -10.08322 -10.07840  -1.07668  -0.96367
 Alpha  occ. eigenvalues --   -0.89330  -0.88203  -0.85602  -0.83596  -0.74982
 Alpha  occ. eigenvalues --   -0.69799  -0.67522  -0.66576  -0.62852  -0.60698
 Alpha  occ. eigenvalues --   -0.58812  -0.57499  -0.55327  -0.53291  -0.50835
 Alpha  occ. eigenvalues --   -0.46985  -0.45229  -0.44424  -0.42901  -0.42292
 Alpha  occ. eigenvalues --   -0.40252  -0.39438  -0.38262  -0.37857  -0.37496
 Alpha  occ. eigenvalues --   -0.36216  -0.35306  -0.34123  -0.33442  -0.33031
 Alpha  occ. eigenvalues --   -0.32473  -0.31749  -0.31586  -0.30670  -0.30548
 Alpha  occ. eigenvalues --   -0.29665  -0.28983  -0.28805  -0.28092  -0.28035
 Alpha  occ. eigenvalues --   -0.26576  -0.26064  -0.24379  -0.23573  -0.19893
 Alpha  occ. eigenvalues --   -0.18374  -0.16812  -0.15497  -0.14949   0.03556
 Alpha virt. eigenvalues --    0.04700   0.06289   0.06878   0.07067   0.07245
 Alpha virt. eigenvalues --    0.07348   0.08000   0.08593   0.08971   0.09499
 Alpha virt. eigenvalues --    0.09818   0.10163   0.10359   0.10734   0.10915

  Beta  occ. eigenvalues --  -19.12454 -19.00957 -14.26957 -14.26675 -14.25307
  Beta  occ. eigenvalues --  -14.24092 -14.22415 -10.21549 -10.19449 -10.17786
  Beta  occ. eigenvalues --  -10.14844 -10.14102 -10.12044 -10.11674 -10.10616
  Beta  occ. eigenvalues --  -10.08555 -10.08303 -10.07814  -1.07652  -0.96354
  Beta  occ. eigenvalues --   -0.89320  -0.88189  -0.85585  -0.83575  -0.74964
  Beta  occ. eigenvalues --   -0.69775  -0.67487  -0.66548  -0.62786  -0.60658
  Beta  occ. eigenvalues --   -0.58769  -0.57441  -0.55280  -0.53248  -0.50812
  Beta  occ. eigenvalues --   -0.46953  -0.45199  -0.44404  -0.42860  -0.42256
  Beta  occ. eigenvalues --   -0.40212  -0.39403  -0.38217  -0.37828  -0.37469
  Beta  occ. eigenvalues --   -0.36191  -0.35277  -0.34090  -0.33413  -0.32983
  Beta  occ. eigenvalues --   -0.32431  -0.31714  -0.31547  -0.30641  -0.30507
  Beta  occ. eigenvalues --   -0.29632  -0.28953  -0.28766  -0.28054  -0.28007
  Beta  occ. eigenvalues --   -0.26546  -0.26039  -0.24358  -0.23555  -0.19884
  Beta  occ. eigenvalues --   -0.18360  -0.16778  -0.15478  -0.14928
  Beta virt. eigenvalues --    0.05513   0.05832   0.06775   0.07278   0.07355
  Beta virt. eigenvalues --    0.07563   0.07852   0.08178   0.08735   0.09232
  Beta virt. eigenvalues --    0.09743   0.10035   0.10384   0.10786   0.10791

 Mulliken charges and spin densities:
               1          2
     1  C    0.514866  -0.975235
     2  C   -0.643127   0.556103
     3  N   -0.036099   0.142354
     4  C    1.025420  -1.447201
     5  C   -1.059069   0.528910
     6  O   -0.292015  -0.001337
     7  C   -0.009999  -0.016359
     8  C    0.475035  -0.900807
     9  N   -0.064416   0.004872
    10  C    0.599911  -0.431289
    11  N   -0.144922   0.008449
    12  N    0.012952   0.000951
    13  C    0.248974  -0.633230
    14  O    0.013217  -0.004710
    15  C   -1.355961   1.201491
    16  C    0.410181  -1.106210
    17  N   -0.073587   0.102756
    18  C    0.715843  -1.050982
    19  H   -0.108738   0.245832
    20  H   -0.167392   0.307206
    21  H    0.083464   0.095393
    22  H   -0.291700   0.438302
    23  H    0.086060   0.093232
    24  H    0.083046   0.127546
    25  H   -0.419277   0.593265
    26  H   -0.257017   0.415139
    27  H    0.192265   0.070147
    28  H   -0.055056   0.226291
    29  H    0.001457   0.193380
    30  H    0.034262   0.111768
    31  H    0.239246   0.063307
    32  H   -0.193089   0.374920
    33  H    0.087152   0.088395
    34  H   -0.156295   0.307040
    35  H    0.046201   0.119004
    36  H    0.136713   0.070828
    37  H   -0.233557   0.352554
    38  H   -0.155245   0.290730
    39  H   -0.289703   0.437196
 Sum of Mulliken charges =  -1.00000   1.00000

 Dipole moment (field-independent basis, Debye):
    X=              0.7553    Y=             -0.1492    Z=             -2.2757  Tot=              2.4024
 Quadrupole moment (field-independent basis, Debye-Ang):
   XX=           -238.1033   YY=           -159.8047   ZZ=           -148.3412
   XY=             -9.1402   XZ=              3.9872   YZ=             -0.3338

 Summary of Natural Population Analysis:

                                       Natural Population
                Natural  -----------------------------------------------
    Atom  No    Charge         Core      Valence    Rydberg      Total
 -----------------------------------------------------------------------
      C    1   -0.29344      0.99966     2.28890    0.00489     3.29344
      C    2   -0.08630      0.99962     2.07536    0.01132     3.08630
      N    3   -0.25419      0.99965     2.74355    0.01099     3.75419
      C    4   -0.18255      0.99962     2.17484    0.00810     3.18255
      C    5    0.34369      0.99960     1.63350    0.02321     2.65631
      O    6   -0.32201      0.99988     3.31691    0.00522     4.32201
      C    7   -0.04601      0.99956     2.03425    0.01221     3.04601
      C    8   -0.28988      0.99964     2.28437    0.00588     3.28988
      N    9   -0.32583      0.99965     2.81667    0.00950     3.82583
      C   10    0.34573      0.99960     1.63598    0.01869     2.65427
      N   11   -0.19726      0.99967     2.68503    0.01255     3.69726
      N   12   -0.15837      0.99965     2.64682    0.01190     3.65837
      C   13    0.25400      0.99956     1.72704    0.01940     2.74600
      O   14   -0.24341      0.99985     3.23663    0.00693     4.24341
      C   15   -0.03941      0.99956     2.02666    0.01320     3.03941
      C   16   -0.29367      0.99965     2.28675    0.00726     3.29367
      N   17   -0.33136      0.99975     2.82101    0.01060     3.83136
      C   18   -0.17783      0.99966     2.17112    0.00706     3.17783
      H   19    0.09960      0.00000     0.39925    0.00114     0.40040
      H   20    0.09998      0.00000     0.39921    0.00081     0.40002
      H   21    0.10541      0.00000     0.39366    0.00093     0.39459
      H   22    0.09524      0.00000     0.40347    0.00129     0.40476
      H   23    0.10682      0.00000     0.39208    0.00110     0.39318
      H   24    0.11018      0.00000     0.38813    0.00169     0.38982
      H   25    0.09756      0.00000     0.40016    0.00229     0.40244
      H   26    0.09903      0.00000     0.39940    0.00157     0.40097
      H   27    0.10640      0.00000     0.39164    0.00196     0.39360
      H   28    0.10233      0.00000     0.39647    0.00119     0.39767
      H   29    0.11159      0.00000     0.38701    0.00140     0.38841
      H   30    0.10567      0.00000     0.39342    0.00091     0.39433
      H   31    0.20043      0.00000     0.29647    0.00309     0.29957
      H   32    0.10529      0.00000     0.39295    0.00176     0.39471
      H   33    0.10332      0.00000     0.39537    0.00131     0.39668
      H   34    0.10184      0.00000     0.39724    0.00091     0.39816
      H   35    0.10607      0.00000     0.39298    0.00096     0.39393
      H   36    0.17070      0.00000     0.32658    0.00272     0.32930
      H   37    0.08014      0.00000     0.41743    0.00242     0.41986
      H   38    0.09629      0.00000     0.40258    0.00113     0.40371
      H   39    0.09422      0.00000     0.40405    0.00173     0.40578
 =======================================================================
   * Total *   -0.00000     17.99383    50.77495    0.23122    69.00000

 Normal termination of Gaussian 16 at Fri Dec 11 20:55:25 2020.
