 Gaussian 16, Revision A.03,

 -----------------------------------------------------------
 # opt freq B3LYP/6-31G(d) empiricaldispersion=gd3bj scf=xqc
 -----------------------------------------------------------

 -----------------------------
 CID_54082084_JID_446_neutraal
 -----------------------------
 Symbolic Z-matrix:
 Charge =  0 Multiplicity = 1

 SCF Done:  E(RB3LYP) =  -510.519369030     A.U. after   15 cycles
 SCF Done:  E(RB3LYP) =  -510.522818200     A.U. after   14 cycles
 SCF Done:  E(RB3LYP) =  -510.518483982     A.U. after   15 cycles
 SCF Done:  E(RB3LYP) =  -510.524100214     A.U. after   14 cycles
 SCF Done:  E(RB3LYP) =  -510.524424372     A.U. after   13 cycles
 SCF Done:  E(RB3LYP) =  -510.524772007     A.U. after   14 cycles
 SCF Done:  E(RB3LYP) =  -510.524970268     A.U. after   14 cycles
 SCF Done:  E(RB3LYP) =  -510.525111922     A.U. after   14 cycles
 SCF Done:  E(RB3LYP) =  -510.525159591     A.U. after   13 cycles
 SCF Done:  E(RB3LYP) =  -510.525181432     A.U. after   13 cycles
 SCF Done:  E(RB3LYP) =  -510.533120391     A.U. after   11 cycles
 SCF Done:  E(RB3LYP) =  -510.533146701     A.U. after   11 cycles
 SCF Done:  E(RB3LYP) =  -510.533159150     A.U. after   11 cycles
 SCF Done:  E(RB3LYP) =  -510.533164309     A.U. after   10 cycles
 SCF Done:  E(RB3LYP) =  -510.533166601     A.U. after   10 cycles
 SCF Done:  E(RB3LYP) =  -510.533166805     A.U. after    8 cycles
 Optimization completed.
    -- Stationary point found.
 Normal termination of Gaussian 16 at Tue Dec  8 10:47:36 2020.

 --------------------------------------------------------------------
 #N Geom=AllCheck Guess=TCheck SCRF=Check GenChk RB3LYP/6-31G(d) Freq
 --------------------------------------------------------------------

 Structure from the checkpoint file:  "JID_446.chk"
 -----------------------------
 CID_54082084_JID_446_neutraal
 -----------------------------
 Charge =  0 Multiplicity = 1

 SCF Done:  E(RB3LYP) =  -510.533166805     A.U. after    1 cycles

  Exact polarizability:  90.900  -1.894  71.921  -4.360   1.476  70.106
 Approx polarizability: 128.589 -10.969 103.721 -16.231   2.620 130.530

                      1                      2                      3
                      A                      A                      A
 Frequencies --     59.8944                80.5021               120.1364
 Red. masses --      1.9643                 4.9832                 5.6356
 Frc consts  --      0.0042                 0.0190                 0.0479
 IR Inten    --      1.0128                 0.6612                 2.9986

                      4                      5                      6
                      A                      A                      A
 Frequencies --    200.8527               212.9441               348.2067
 Red. masses --      3.4868                 5.9129                 4.3213
 Frc consts  --      0.0829                 0.1580                 0.3087
 IR Inten    --      7.7395                 2.0767                 3.1791

                      7                      8                      9
                      A                      A                      A
 Frequencies --    368.3241               446.6850               520.6248
 Red. masses --      2.8914                 3.8003                 3.4391
 Frc consts  --      0.2311                 0.4468                 0.5492
 IR Inten    --      2.9909                12.2335                37.1768

                     10                     11                     12
                      A                      A                      A
 Frequencies --    580.6172               647.5836               680.8912
 Red. masses --      3.4987                 4.0936                 3.1547
 Frc consts  --      0.6949                 1.0115                 0.8617
 IR Inten    --     40.3275                67.4523                62.7002

                     13                     14                     15
                      A                      A                      A
 Frequencies --    693.6230               772.1864               799.3812
 Red. masses --      3.0706                 2.0744                 4.8856
 Frc consts  --      0.8704                 0.7288                 1.8394
 IR Inten    --     20.1463               170.2173                20.1180

                     16                     17                     18
                      A                      A                      A
 Frequencies --    839.2763               866.5590               885.1967
 Red. masses --      1.8960                 1.9957                 2.2507
 Frc consts  --      0.7869                 0.8830                 1.0391
 IR Inten    --     30.5104                15.8242                32.4147

                     19                     20                     21
                      A                      A                      A
 Frequencies --    921.9279               942.3127               963.0573
 Red. masses --      2.2509                 1.9725                 1.9326
 Frc consts  --      1.1272                 1.0320                 1.0561
 IR Inten    --      8.2943                39.6935                41.0430

                     22                     23                     24
                      A                      A                      A
 Frequencies --    990.1319              1042.5409              1062.7097
 Red. masses --      1.4839                 2.7780                 2.7738
 Frc consts  --      0.8571                 1.7790                 1.8457
 IR Inten    --     13.5395                33.1872                 1.0009

                     25                     26                     27
                      A                      A                      A
 Frequencies --   1082.2431              1098.9576              1121.6265
 Red. masses --      2.5868                 1.3621                 1.6160
 Frc consts  --      1.7851                 0.9692                 1.1978
 IR Inten    --     14.1676                 2.8555                10.4482

                     28                     29                     30
                      A                      A                      A
 Frequencies --   1162.4867              1234.2207              1252.4246
 Red. masses --      1.9430                 1.3535                 1.3683
 Frc consts  --      1.5470                 1.2148                 1.2646
 IR Inten    --     10.1013                15.9158                 1.8326

                     31                     32                     33
                      A                      A                      A
 Frequencies --   1278.5732              1309.0532              1337.6583
 Red. masses --      1.4209                 1.6383                 1.4003
 Frc consts  --      1.3686                 1.6541                 1.4762
 IR Inten    --      4.5491                28.6346                12.4072

                     34                     35                     36
                      A                      A                      A
 Frequencies --   1367.8620              1401.6808              1406.9602
 Red. masses --      1.5507                 4.0233                 1.9451
 Frc consts  --      1.7094                 4.6572                 2.2686
 IR Inten    --     21.5338               157.2958                61.9649

                     37                     38                     39
                      A                      A                      A
 Frequencies --   1459.1092              1464.4699              1510.9200
 Red. masses --      1.2010                 1.3639                 2.0574
 Frc consts  --      1.5065                 1.7235                 2.7673
 IR Inten    --     15.2593                61.3896                79.0773

                     40                     41                     42
                      A                      A                      A
 Frequencies --   1534.5433              1561.8658              1621.6845
 Red. masses --      1.1046                 1.1063                 9.3870
 Frc consts  --      1.5326                 1.5900                14.5449
 IR Inten    --      6.5874                 1.5878               214.7144

                     43                     44                     45
                      A                      A                      A
 Frequencies --   3036.7963              3077.5030              3085.6087
 Red. masses --      1.0642                 1.0896                 1.0768
 Frc consts  --      5.7825                 6.0801                 6.0403
 IR Inten    --     50.5072                32.4503                38.7960

                     46                     47                     48
                      A                      A                      A
 Frequencies --   3139.4116              3160.9172              3252.3684
 Red. masses --      1.1048                 1.0545                 1.1176
 Frc consts  --      6.4154                 6.2078                 6.9655
 IR Inten    --     27.7681                 2.3681                 0.6722

                     49                     50                     51
                      A                      A                      A
 Frequencies --   3267.2172              3471.3280              3532.4892
 Red. masses --      1.0921                 1.0741                 1.0750
 Frc consts  --      6.8686                 7.6255                 7.9036
 IR Inten    --      0.5927                 0.1737                15.4187

 - Thermochemistry -
 -------------------
 Temperature   298.150 Kelvin.  Pressure   1.00000 Atm.
 Atom     1 has atomic number  6 and mass  12.00000

 Molecular mass:   143.06948 amu.
 Principal axes and moments of inertia in atomic units:
                           1         2         3
     Eigenvalues --   757.894371735.891851851.51055
           X            0.99934   0.03348   0.01415
           Y           -0.03377   0.99922   0.02039
           Z           -0.01346  -0.02085   0.99969
 This molecule is an asymmetric top.
 Rotational symmetry number  1.
 Warning -- assumption of classical behavior for rotation
           may cause significant error
 Rotational temperatures (Kelvin)      0.11428     0.04990     0.04678
 Rotational constants (GHZ):           2.38126     1.03966     0.97474
 Zero-point vibrational energy     408382.0 (Joules/Mol)
                                   97.60565 (Kcal/Mol)
 Warning -- explicit consideration of  10 degrees of freedom as
           vibrations may cause significant error
 Vibrational temperatures:     86.17   115.82   172.85   288.98   306.38
          (Kelvin)            500.99   529.94   642.68   749.06   835.38
                              931.73   979.65   997.97  1111.00  1150.13
                             1207.53  1246.79  1273.60  1326.45  1355.78
                             1385.62  1424.58  1499.98  1529.00  1557.11
                             1581.15  1613.77  1672.56  1775.77  1801.96
                             1839.58  1883.44  1924.59  1968.05  2016.71
                             2024.30  2099.33  2107.05  2173.88  2207.87
                             2247.18  2333.24  4369.27  4427.84  4439.50
                             4516.91  4547.85  4679.43  4700.80  4994.47
                             5082.46

 Zero-point correction=                           0.155545 (Hartree/Particle)
 Thermal correction to Energy=                    0.164277
 Thermal correction to Enthalpy=                  0.165221
 Thermal correction to Gibbs Free Energy=         0.121103
 Sum of electronic and zero-point Energies=           -510.377622
 Sum of electronic and thermal Energies=              -510.368890
 Sum of electronic and thermal Enthalpies=            -510.367945
 Sum of electronic and thermal Free Energies=         -510.412063

                     E (Thermal)             CV                S
                      KCal/Mol        Cal/Mol-Kelvin    Cal/Mol-Kelvin
 Total                  103.086             32.872             92.854
 Electronic               0.000              0.000              0.000
 Translational            0.889              2.981             40.786
 Rotational               0.889              2.981             29.278
 Vibrational            101.308             26.910             22.790
 Vibration     1          0.597              1.973              4.461
 Vibration     2          0.600              1.962              3.879
 Vibration     3          0.609              1.932              3.098
 Vibration     4          0.638              1.839              2.125
 Vibration     5          0.644              1.821              2.018
 Vibration     6          0.726              1.579              1.174
 Vibration     7          0.741              1.537              1.087
 Vibration     8          0.806              1.368              0.806
 Vibration     9          0.876              1.204              0.609
 Vibration    10          0.937              1.073              0.484

 Optimization completed.
    -- Stationary point found.
 Normal termination of Gaussian 16 at Tue Dec  8 10:51:40 2020.

 ----------------------------------------------------------------------
 # B3LYP/6-311++G(d,p) empiricaldispersion=gd3bj scf=xqc pop=npa geom=c
 heck
 ----------------------------------------------------------------------

 -------------------------------------
 CID_54082084_JID_446_Energie_neutraal
 -------------------------------------
 Structure from the checkpoint file:  "JID_446.chk"
 Charge =  0 Multiplicity = 1

 SCF Done:  E(RB3LYP) =  -510.688607220     A.U. after   15 cycles
 Normal termination of Gaussian 16 at Tue Dec  8 10:54:39 2020.

 ----------------------------------------------------------------------
 # B3LYP/6-311++G(d,p) empiricaldispersion=gd3bj scf=xqc pop=npa geom=c
 heck
 ----------------------------------------------------------------------

 -----------------------------------
 CID_54082084_JID_446_Energie_kation
 -----------------------------------
 Structure from the checkpoint file:  "JID_446.chk"
 Charge =  1 Multiplicity = 2

 SCF Done:  E(UB3LYP) =  -510.367548385     A.U. after   25 cycles
 Normal termination of Gaussian 16 at Tue Dec  8 10:59:28 2020.
 Gaussian 16:  ES64L-G16RevA.03 25-Dec-2016

 ----------------------------------------------------------------------
 # B3LYP/6-311++G(d,p) empiricaldispersion=gd3bj scf=xqc pop=npa geom=c
 heck
 ----------------------------------------------------------------------

 ----------------------------------
 CID_54082084_JID_446_Energie_anion
 ----------------------------------
 Structure from the checkpoint file:  "JID_446.chk"
 Charge = -1 Multiplicity = 2

                         Standard orientation:
 ---------------------------------------------------------------------
 Center     Atomic      Atomic             Coordinates (Angstroms)
 Number     Number       Type             X           Y           Z
 ---------------------------------------------------------------------
      1          6           0       -1.777258   -1.329201    0.335503
      2          6           0       -2.238475   -0.430034   -0.850969
      3          7           0       -1.692951    0.920184   -0.585646
      4          6           0       -0.565065    0.650258    0.258964
      5          7           0       -0.906397   -0.434069    1.120617
      6          6           0        0.398661    1.709309    0.609209
      7          6           0        0.817351    0.751633   -0.492384
      8          7           0        1.816170   -0.248125   -0.204570
      9          8           0        2.447315   -0.710666   -1.155052
     10          8           0        1.950403   -0.621128    0.973697
     11          1           0       -2.613086   -1.671633    0.955469
     12          1           0       -1.247136   -2.216243   -0.035725
     13          1           0       -1.817823   -0.797346   -1.792060
     14          1           0       -3.323873   -0.383944   -0.962791
     15          1           0       -2.365703    1.451869   -0.032866
     16          1           0       -0.093079   -0.887155    1.529803
     17          1           0        0.192891    2.727881    0.294318
     18          1           0        0.930669    1.596555    1.548636
     19          1           0        0.826352    1.056647   -1.528683
 ---------------------------------------------------------------------

 SCF Done:  E(UB3LYP) =  -510.698406606     A.U. after   28 cycles

 The electronic state is 2-A.
 Alpha  occ. eigenvalues --  -18.94667 -18.94534 -14.31137 -14.18786 -14.17554
 Alpha  occ. eigenvalues --  -10.11180 -10.08232 -10.07853 -10.07364 -10.05376
 Alpha  occ. eigenvalues --   -1.02235  -0.85547  -0.84682  -0.73464  -0.72541
 Alpha  occ. eigenvalues --   -0.60752  -0.56556  -0.49403  -0.46641  -0.42886
 Alpha  occ. eigenvalues --   -0.39632  -0.37779  -0.36348  -0.34858  -0.34275
 Alpha  occ. eigenvalues --   -0.31281  -0.31110  -0.28855  -0.27110  -0.25853
 Alpha  occ. eigenvalues --   -0.24777  -0.20968  -0.19081  -0.13863  -0.13223
 Alpha  occ. eigenvalues --   -0.12411  -0.10360  -0.09135   0.04770
 Alpha virt. eigenvalues --    0.07535   0.09214   0.10195   0.10486   0.12186
 Alpha virt. eigenvalues --    0.12703   0.13004   0.14073   0.15043   0.16706
 Alpha virt. eigenvalues --    0.17154   0.18193   0.19145   0.19426   0.20305

  Beta  occ. eigenvalues --  -18.94311 -18.94039 -14.30257 -14.18765 -14.17549
  Beta  occ. eigenvalues --  -10.11091 -10.08214 -10.07842 -10.07441 -10.05330
  Beta  occ. eigenvalues --   -1.01033  -0.85248  -0.84070  -0.73418  -0.72430
  Beta  occ. eigenvalues --   -0.60514  -0.55860  -0.49341  -0.46442  -0.42519
  Beta  occ. eigenvalues --   -0.39474  -0.37314  -0.36004  -0.34513  -0.31509
  Beta  occ. eigenvalues --   -0.30908  -0.30683  -0.28681  -0.26974  -0.25782
  Beta  occ. eigenvalues --   -0.24705  -0.20829  -0.18698  -0.13187  -0.12263
  Beta  occ. eigenvalues --   -0.10948  -0.09934  -0.08701
  Beta virt. eigenvalues --    0.07974   0.09460   0.10234   0.10585   0.12222
  Beta virt. eigenvalues --    0.12415   0.12822   0.13968   0.14171   0.15113
  Beta virt. eigenvalues --    0.16634   0.17315   0.18130   0.19352   0.19483

 Mulliken charges and spin densities:
               1          2
     1  C   -0.234347  -0.064329
     2  C    0.081001  -0.272496
     3  N   -0.217768   0.153368
     4  C    0.300440  -0.581338
     5  N   -0.199570   0.141786
     6  C   -0.160607  -0.744007
     7  C   -0.220218   0.384585
     8  N   -0.114644   0.287719
     9  O   -0.216744   0.186995
    10  O   -0.295803   0.142957
    11  H   -0.072727   0.209567
    12  H    0.054967   0.071777
    13  H    0.126510   0.009440
    14  H   -0.338375   0.501128
    15  H   -0.166346   0.406715
    16  H    0.202505   0.088080
    17  H   -0.002328   0.124297
    18  H    0.217593  -0.048376
    19  H    0.256462   0.002134
 Sum of Mulliken charges =  -1.00000   1.00000

 Dipole moment (field-independent basis, Debye):
    X=             -2.3762    Y=              1.0145    Z=             -0.1300  Tot=              2.5870
 Quadrupole moment (field-independent basis, Debye-Ang):
   XX=           -105.1742   YY=            -73.9207   ZZ=            -76.7796
   XY=             12.1374   XZ=              3.4694   YZ=             -0.1653

 Summary of Natural Population Analysis:

                                       Natural Population
                Natural  -----------------------------------------------
    Atom  No    Charge         Core      Valence    Rydberg      Total
 -----------------------------------------------------------------------
      C    1   -0.09550      0.99964     2.08558    0.01028     3.09550
      C    2   -0.09490      0.99964     2.08474    0.01053     3.09490
      N    3   -0.33624      0.99972     2.82294    0.01358     3.83624
      C    4    0.16660      0.99957     1.81596    0.01788     2.83340
      N    5   -0.35078      0.99969     2.83874    0.01235     3.85078
      C    6   -0.19980      0.99955     2.18974    0.01051     3.19980
      C    7   -0.06330      0.99953     2.04871    0.01507     3.06330
      N    8    0.33285      0.99972     2.14177    0.02566     3.16715
      O    9   -0.19165      0.99990     3.18426    0.00749     4.19165
      O   10   -0.23727      0.99990     3.23030    0.00708     4.23727
      H   11    0.08614      0.00000     0.41225    0.00161     0.41386
      H   12    0.08651      0.00000     0.41216    0.00133     0.41349
      H   13    0.09032      0.00000     0.40843    0.00125     0.40968
      H   14    0.09421      0.00000     0.40431    0.00148     0.40579
      H   15    0.17653      0.00000     0.31768    0.00579     0.32347
      H   16    0.20303      0.00000     0.29451    0.00246     0.29697
      H   17    0.10456      0.00000     0.39447    0.00097     0.39544
      H   18    0.11847      0.00000     0.38019    0.00134     0.38153
      H   19    0.11022      0.00000     0.38864    0.00114     0.38978
 =======================================================================
   * Total *    0.00000      9.99685    27.85535    0.14780    38.00000

 Normal termination of Gaussian 16 at Tue Dec  8 11:03:35 2020.
