 Gaussian 16, Revision A.03,

 -----------------------------------------------------------
 # opt freq B3LYP/6-31G(d) empiricaldispersion=gd3bj scf=xqc
 -----------------------------------------------------------

 -------------------------------
 CID_126995629_JID_2817_neutraal
 -------------------------------
 Symbolic Z-matrix:
 Charge =  0 Multiplicity = 1

 SCF Done:  E(RB3LYP) =  -485.368798812     A.U. after   13 cycles
 SCF Done:  E(RB3LYP) =  -485.370864727     A.U. after   11 cycles
 SCF Done:  E(RB3LYP) =  -485.371069354     A.U. after   11 cycles
 SCF Done:  E(RB3LYP) =  -485.371220969     A.U. after   10 cycles
 SCF Done:  E(RB3LYP) =  -485.371249779     A.U. after   10 cycles
 SCF Done:  E(RB3LYP) =  -485.371262272     A.U. after   10 cycles
 SCF Done:  E(RB3LYP) =  -485.371266251     A.U. after    9 cycles
 SCF Done:  E(RB3LYP) =  -485.371268742     A.U. after    8 cycles
 SCF Done:  E(RB3LYP) =  -485.371269456     A.U. after    7 cycles
 SCF Done:  E(RB3LYP) =  -485.371269625     A.U. after    7 cycles
 SCF Done:  E(RB3LYP) =  -485.371269674     A.U. after    7 cycles
 SCF Done:  E(RB3LYP) =  -485.371269684     A.U. after    6 cycles
 Optimization completed.
    -- Stationary point found.
 Normal termination of Gaussian 16 at Wed Dec  9 18:09:58 2020.

 --------------------------------------------------------------------
 #N Geom=AllCheck Guess=TCheck SCRF=Check GenChk RB3LYP/6-31G(d) Freq
 --------------------------------------------------------------------

 Structure from the checkpoint file:  "JID_2817.chk"
 -------------------------------
 CID_126995629_JID_2817_neutraal
 -------------------------------
 Charge =  0 Multiplicity = 1

 SCF Done:  E(RB3LYP) =  -485.371269684     A.U. after    1 cycles

  Exact polarizability: 146.304  -2.626 122.055   2.444  -6.406  92.342
 Approx polarizability: 184.045  -5.346 188.368   2.585 -15.029 136.518

                      1                      2                      3
                      A                      A                      A
 Frequencies --     55.7003                60.2985                89.7747
 Red. masses --      3.0679                 3.0508                 2.6141
 Frc consts  --      0.0056                 0.0065                 0.0124
 IR Inten    --      0.1420                 0.0868                 0.0074

                      4                      5                      6
                      A                      A                      A
 Frequencies --    109.0104               123.0540               145.0547
 Red. masses --      2.7799                 1.0303                 1.0358
 Frc consts  --      0.0195                 0.0092                 0.0128
 IR Inten    --      0.0062                 0.7847                 0.0652

                      7                      8                      9
                      A                      A                      A
 Frequencies --    196.5169               229.4835               241.5973
 Red. masses --      2.5690                 1.0646                 2.3568
 Frc consts  --      0.0585                 0.0330                 0.0811
 IR Inten    --      0.3716                 0.0522                 2.4030

                     10                     11                     12
                      A                      A                      A
 Frequencies --    284.6806               313.3938               329.4251
 Red. masses --      2.4444                 1.9968                 2.4170
 Frc consts  --      0.1167                 0.1156                 0.1545
 IR Inten    --      0.0694                 0.4891                 2.2646

                     13                     14                     15
                      A                      A                      A
 Frequencies --    347.0063               353.2898               371.7669
 Red. masses --      2.2019                 2.5794                 2.2077
 Frc consts  --      0.1562                 0.1897                 0.1798
 IR Inten    --      2.2658                 0.0428                 0.9648

                     16                     17                     18
                      A                      A                      A
 Frequencies --    442.4516               479.6606               499.8565
 Red. masses --      2.3285                 3.1270                 3.2300
 Frc consts  --      0.2686                 0.4239                 0.4755
 IR Inten    --      0.8903                 0.6327                 8.5082

                     19                     20                     21
                      A                      A                      A
 Frequencies --    537.6830               551.3807               653.3922
 Red. masses --      3.2896                 2.9232                 2.4629
 Frc consts  --      0.5603                 0.5236                 0.6195
 IR Inten    --      0.2327                 2.5478                 3.2988

                     22                     23                     24
                      A                      A                      A
 Frequencies --    692.4027               712.5726               790.5474
 Red. masses --      2.2283                 3.0253                 2.1183
 Frc consts  --      0.6294                 0.9050                 0.7800
 IR Inten    --      2.7746                11.7760                 1.9898

                     25                     26                     27
                      A                      A                      A
 Frequencies --    865.7106               880.7064               924.6715
 Red. masses --      1.8521                 2.2180                 1.8929
 Frc consts  --      0.8178                 1.0136                 0.9536
 IR Inten    --      0.7575                 3.2975                 0.6457

                     28                     29                     30
                      A                      A                      A
 Frequencies --    933.2744               949.4088               965.8311
 Red. masses --      1.3582                 1.6228                 1.7119
 Frc consts  --      0.6970                 0.8618                 0.9409
 IR Inten    --     35.3455                 0.7795                 2.7979

                     31                     32                     33
                      A                      A                      A
 Frequencies --    985.8037              1015.4717              1025.6738
 Red. masses --      1.4639                 1.4614                 1.3405
 Frc consts  --      0.8382                 0.8879                 0.8309
 IR Inten    --     11.3893                 6.9252                 4.0207

                     34                     35                     36
                      A                      A                      A
 Frequencies --   1030.7315              1049.3332              1079.3754
 Red. masses --      1.4889                 1.7178                 1.7127
 Frc consts  --      0.9320                 1.1144                 1.1756
 IR Inten    --      8.6210                 5.9341                 7.1988

                     37                     38                     39
                      A                      A                      A
 Frequencies --   1089.6738              1114.1316              1135.7709
 Red. masses --      1.9160                 2.0286                 2.3546
 Frc consts  --      1.3404                 1.4836                 1.7896
 IR Inten    --      6.2590                14.3509                54.2213

                     40                     41                     42
                      A                      A                      A
 Frequencies --   1157.6148              1174.4994              1196.0511
 Red. masses --      2.7805                 2.6233                 2.4440
 Frc consts  --      2.1954                 2.1321                 2.0599
 IR Inten    --      3.2360                 2.1985                41.0637

                     43                     44                     45
                      A                      A                      A
 Frequencies --   1225.0115              1253.5672              1266.5505
 Red. masses --      1.9543                 1.5580                 1.8971
 Frc consts  --      1.7279                 1.4425                 1.7930
 IR Inten    --     14.2461                 6.5347                 4.2512

                     46                     47                     48
                      A                      A                      A
 Frequencies --   1285.5908              1328.2104              1342.2254
 Red. masses --      1.3011                 1.3172                 1.2832
 Frc consts  --      1.2670                 1.3691                 1.3621
 IR Inten    --     10.7764                 5.1614                 5.0581

                     49                     50                     51
                      A                      A                      A
 Frequencies --   1358.5963              1397.7229              1408.5787
 Red. masses --      1.4263                 1.6833                 1.2707
 Frc consts  --      1.5511                 1.9376                 1.4854
 IR Inten    --      1.9002                 1.9141                 6.5368

                     52                     53                     54
                      A                      A                      A
 Frequencies --   1409.7702              1423.3706              1429.9461
 Red. masses --      1.3682                 1.4510                 1.2324
 Frc consts  --      1.6021                 1.7320                 1.4847
 IR Inten    --     20.6635                21.3026                12.3761

                     55                     56                     57
                      A                      A                      A
 Frequencies --   1436.0057              1451.5660              1480.6438
 Red. masses --      1.3643                 1.2197                 1.1966
 Frc consts  --      1.6575                 1.5142                 1.5457
 IR Inten    --      0.7558                 3.6707                 5.9773

                     58                     59                     60
                      A                      A                      A
 Frequencies --   1504.4678              1505.1996              1510.6011
 Red. masses --      1.0773                 1.0808                 1.0521
 Frc consts  --      1.4367                 1.4427                 1.4145
 IR Inten    --      1.1435                 3.0821                 1.4954

                     61                     62                     63
                      A                      A                      A
 Frequencies --   1515.1352              1517.0051              1518.3226
 Red. masses --      1.0482                 1.0573                 1.0596
 Frc consts  --      1.4178                 1.4336                 1.4392
 IR Inten    --      6.1916                 3.8829                 8.7251

                     64                     65                     66
                      A                      A                      A
 Frequencies --   1519.5466              1531.4621              1533.6130
 Red. masses --      1.0839                 1.0673                 1.0658
 Frc consts  --      1.4746                 1.4749                 1.4769
 IR Inten    --      1.5833                 8.5940                 3.8120

                     67                     68                     69
                      A                      A                      A
 Frequencies --   1734.2546              1760.5863              2975.7555
 Red. masses --      4.6133                 6.7608                 1.0738
 Frc consts  --      8.1750                12.3470                 5.6025
 IR Inten    --      3.6363                 0.6678                57.2673

                     70                     71                     72
                      A                      A                      A
 Frequencies --   3004.0369              3021.0827              3023.7471
 Red. masses --      1.0630                 1.0773                 1.0440
 Frc consts  --      5.6520                 5.7931                 5.6242
 IR Inten    --     33.4042                 9.8187                61.2399

                     73                     74                     75
                      A                      A                      A
 Frequencies --   3028.3021              3038.2617              3051.8676
 Red. masses --      1.0441                 1.0834                 1.0849
 Frc consts  --      5.6416                 5.8923                 5.9534
 IR Inten    --     34.7494                85.2696                11.5622

                     76                     77                     78
                      A                      A                      A
 Frequencies --   3058.3030              3063.3542              3064.6167
 Red. masses --      1.0437                 1.0880                 1.0900
 Frc consts  --      5.7515                 6.0157                 6.0318
 IR Inten    --     14.4504                13.0958                49.8745

                     79                     80                     81
                      A                      A                      A
 Frequencies --   3066.3109              3087.7187              3121.4086
 Red. masses --      1.0994                 1.0995                 1.1016
 Frc consts  --      6.0902                 6.1764                 6.3239
 IR Inten    --     32.1482                42.3910                33.5244

                     82                     83                     84
                      A                      A                      A
 Frequencies --   3140.4495              3145.6488              3149.0318
 Red. masses --      1.0964                 1.0708                 1.1004
 Frc consts  --      6.3710                 6.2428                 6.4290
 IR Inten    --     12.9690                30.7835                31.8988

                     85                     86                     87
                      A                      A                      A
 Frequencies --   3155.7500              3157.0909              3231.1101
 Red. masses --      1.0786                 1.0918                 1.1153
 Frc consts  --      6.3290                 6.4115                 6.8603
 IR Inten    --      3.5914                39.9487                22.7640

 - Thermochemistry -
 -------------------
 Temperature   298.150 Kelvin.  Pressure   1.00000 Atm.
 Atom     1 has atomic number  6 and mass  12.00000

 Molecular mass:   165.15175 amu.
 Principal axes and moments of inertia in atomic units:
                           1         2         3
     Eigenvalues --  1084.923363108.194783415.78743
           X            0.99999   0.00323   0.00188
           Y           -0.00319   0.99983  -0.01813
           Z           -0.00194   0.01812   0.99983
 This molecule is an asymmetric top.
 Rotational symmetry number  1.
 Warning -- assumption of classical behavior for rotation
           may cause significant error
 Rotational temperatures (Kelvin)      0.07983     0.02787     0.02536
 Rotational constants (GHZ):           1.66347     0.58064     0.52835
 Zero-point vibrational energy     738186.4 (Joules/Mol)
                                  176.43079 (Kcal/Mol)
 Warning -- explicit consideration of  20 degrees of freedom as
           vibrations may cause significant error
 Vibrational temperatures:     80.14    86.76   129.17   156.84   177.05
          (Kelvin)            208.70   282.74   330.18   347.60   409.59
                              450.90   473.97   499.26   508.31   534.89
                              636.59   690.12   719.18   773.61   793.31
                              940.09   996.21  1025.23  1137.42  1245.56
                             1267.14  1330.40  1342.77  1365.99  1389.62
                             1418.35  1461.04  1475.72  1482.99  1509.76
                             1552.98  1567.80  1602.99  1634.12  1665.55
                             1689.84  1720.85  1762.52  1803.60  1822.28
                             1849.68  1911.00  1931.16  1954.72  2011.01
                             2026.63  2028.34  2047.91  2057.37  2066.09
                             2088.48  2130.32  2164.59  2165.65  2173.42
                             2179.94  2182.63  2184.53  2186.29  2203.43
                             2206.53  2495.21  2533.09  4281.45  4322.14
                             4346.66  4350.50  4357.05  4371.38  4390.96
                             4400.22  4407.48  4409.30  4411.74  4442.54
                             4491.01  4518.41  4525.89  4530.75  4540.42
                             4542.35  4648.85

 Zero-point correction=                           0.281160 (Hartree/Particle)
 Thermal correction to Energy=                    0.294677
 Thermal correction to Enthalpy=                  0.295622
 Thermal correction to Gibbs Free Energy=         0.241600
 Sum of electronic and zero-point Energies=           -485.090109
 Sum of electronic and thermal Energies=              -485.076592
 Sum of electronic and thermal Enthalpies=            -485.075648
 Sum of electronic and thermal Free Energies=         -485.129670

                     E (Thermal)             CV                S
                      KCal/Mol        Cal/Mol-Kelvin    Cal/Mol-Kelvin
 Total                  184.913             51.103            113.699
 Electronic               0.000              0.000              0.000
 Translational            0.889              2.981             41.213
 Rotational               0.889              2.981             30.822
 Vibrational            183.135             45.141             41.663
 Vibration     1          0.596              1.975              4.604
 Vibration     2          0.597              1.973              4.447
 Vibration     3          0.602              1.956              3.665
 Vibration     4          0.606              1.942              3.286
 Vibration     5          0.610              1.930              3.052
 Vibration     6          0.616              1.908              2.736
 Vibration     7          0.636              1.845              2.165
 Vibration     8          0.652              1.796              1.883
 Vibration     9          0.658              1.777              1.791
 Vibration    10          0.683              1.702              1.505
 Vibration    11          0.701              1.648              1.344
 Vibration    12          0.712              1.617              1.263
 Vibration    13          0.725              1.581              1.180
 Vibration    14          0.729              1.569              1.151
 Vibration    15          0.743              1.530              1.072
 Vibration    16          0.802              1.378              0.819
 Vibration    17          0.836              1.295              0.711
 Vibration    18          0.855              1.250              0.658
 Vibration    19          0.893              1.167              0.570
 Vibration    20          0.907              1.137              0.541

                           ! Non-Optimized Parameters !
 Normal termination of Gaussian 16 at Wed Dec  9 18:20:15 2020.

 ----------------------------------------------------------------------
 # B3LYP/6-311++G(d,p) empiricaldispersion=gd3bj scf=xqc pop=npa geom=c
 heck
 ----------------------------------------------------------------------

 ---------------------------------------
 CID_126995629_JID_2817_Energie_neutraal
 ---------------------------------------
 Structure from the checkpoint file:  "JID_2817.chk"
 Charge =  0 Multiplicity = 1

 SCF Done:  E(RB3LYP) =  -485.504147686     A.U. after   14 cycles
 Normal termination of Gaussian 16 at Wed Dec  9 18:23:33 2020.

 ----------------------------------------------------------------------
 # B3LYP/6-311++G(d,p) empiricaldispersion=gd3bj scf=xqc pop=npa geom=c
 heck
 ----------------------------------------------------------------------

 -------------------------------------
 CID_126995629_JID_2817_Energie_kation
 -------------------------------------
 Structure from the checkpoint file:  "JID_2817.chk"
 Charge =  1 Multiplicity = 2

 SCF Done:  E(UB3LYP) =  -485.230369782     A.U. after   26 cycles
 Normal termination of Gaussian 16 at Wed Dec  9 18:31:43 2020.
 Gaussian 16:  ES64L-G16RevA.03 25-Dec-2016

 ----------------------------------------------------------------------
 # B3LYP/6-311++G(d,p) empiricaldispersion=gd3bj scf=xqc pop=npa geom=c
 heck
 ----------------------------------------------------------------------

 ------------------------------------
 CID_126995629_JID_2817_Energie_anion
 ------------------------------------
 Structure from the checkpoint file:  "JID_2817.chk"
 Charge = -1 Multiplicity = 2

                         Standard orientation:
 ---------------------------------------------------------------------
 Center     Atomic      Atomic             Coordinates (Angstroms)
 Number     Number       Type             X           Y           Z
 ---------------------------------------------------------------------
      1          6           0        3.286941   -0.597814    0.789517
      2          6           0        1.963570   -0.394395    0.098360
      3          6           0        1.467401    0.792748   -0.290170
      4          6           0        0.099652    0.900713   -0.950917
      5          7           0       -0.761785   -0.265349   -0.832070
      6          6           0       -0.001823   -1.482242   -1.077677
      7          6           0        1.182977   -1.674477   -0.121437
      8          6           0       -1.675193   -0.291368    0.325093
      9          6           0       -1.084385    0.141338    1.685210
     10          6           0       -2.896363    0.540303    0.004656
     11          6           0       -4.152517    0.104754    0.078054
     12          6           0        2.165163    2.121309   -0.164638
     13          1           0        3.957778   -1.215099    0.175697
     14          1           0        3.141783   -1.144315    1.732066
     15          1           0        3.807306    0.332354    1.025372
     16          1           0        0.248375    1.122887   -2.021709
     17          1           0       -0.424646    1.775702   -0.547287
     18          1           0       -0.680707   -2.341293   -1.037256
     19          1           0        0.380719   -1.424270   -2.106356
     20          1           0        0.835900   -2.064209    0.848248
     21          1           0        1.856912   -2.447430   -0.520324
     22          1           0       -2.002953   -1.333518    0.421670
     23          1           0       -0.763413    1.188519    1.666144
     24          1           0       -1.850653    0.045310    2.461856
     25          1           0       -0.221948   -0.467536    1.966680
     26          1           0       -2.702120    1.571610   -0.291910
     27          1           0       -4.998848    0.746315   -0.152168
     28          1           0       -4.384470   -0.917791    0.370431
     29          1           0        2.148438    2.652383   -1.126703
     30          1           0        1.644728    2.769574    0.555096
     31          1           0        3.207780    2.043036    0.148626
 ---------------------------------------------------------------------

 SCF Done:  E(UB3LYP) =  -485.486919218     A.U. after   33 cycles
 SCF Done:  E(UB3LYP) =  -485.486919218     a.u. after    1 cycles

 The electronic state is 2-A.
 Alpha  occ. eigenvalues --  -14.19625 -10.10465 -10.08984 -10.08830 -10.07751
 Alpha  occ. eigenvalues --  -10.06777 -10.06512 -10.06321 -10.06157 -10.05717
 Alpha  occ. eigenvalues --  -10.05594 -10.05548  -0.82819  -0.71785  -0.68849
 Alpha  occ. eigenvalues --   -0.66294  -0.63037  -0.60334  -0.58160  -0.53802
 Alpha  occ. eigenvalues --   -0.52043  -0.48829  -0.45833  -0.40369  -0.38386
 Alpha  occ. eigenvalues --   -0.36966  -0.35441  -0.34717  -0.34328  -0.32736
 Alpha  occ. eigenvalues --   -0.31668  -0.30364  -0.30028  -0.29109  -0.28916
 Alpha  occ. eigenvalues --   -0.28343  -0.27347  -0.26619  -0.26204  -0.24905
 Alpha  occ. eigenvalues --   -0.24574  -0.22542  -0.21849  -0.16910  -0.12497
 Alpha  occ. eigenvalues --   -0.10426   0.04682
 Alpha virt. eigenvalues --    0.06740   0.07042   0.07940   0.08360   0.08792
 Alpha virt. eigenvalues --    0.09120   0.09575   0.10025   0.10594   0.10772
 Alpha virt. eigenvalues --    0.11370   0.12634   0.12901   0.13268   0.13425

  Beta  occ. eigenvalues --  -14.19621 -10.10455 -10.08965 -10.08815 -10.07745
  Beta  occ. eigenvalues --  -10.06758 -10.06511 -10.06318 -10.06133 -10.05675
  Beta  occ. eigenvalues --  -10.05569 -10.05509  -0.82806  -0.71764  -0.68827
  Beta  occ. eigenvalues --   -0.66259  -0.63006  -0.60280  -0.58104  -0.53744
  Beta  occ. eigenvalues --   -0.51986  -0.48778  -0.45788  -0.40340  -0.38351
  Beta  occ. eigenvalues --   -0.36922  -0.35405  -0.34682  -0.34285  -0.32707
  Beta  occ. eigenvalues --   -0.31628  -0.30331  -0.29986  -0.29076  -0.28881
  Beta  occ. eigenvalues --   -0.28304  -0.27309  -0.26575  -0.26173  -0.24869
  Beta  occ. eigenvalues --   -0.24536  -0.22518  -0.21821  -0.16879  -0.12475
  Beta  occ. eigenvalues --   -0.10390
  Beta virt. eigenvalues --    0.06741   0.07446   0.07791   0.08436   0.08875
  Beta virt. eigenvalues --    0.09127   0.09366   0.09999   0.10410   0.11063
  Beta virt. eigenvalues --    0.11193   0.11892   0.13009   0.13331   0.13523

 Mulliken charges and spin densities:
               1          2
     1  C    1.443468  -1.714966
     2  C   -0.294316   1.096101
     3  C   -1.153699   0.922895
     4  C   -0.474574  -0.253319
     5  N    0.306641   0.030419
     6  C   -0.240319  -0.245211
     7  C    0.139070  -0.573851
     8  C   -0.775573   0.287935
     9  C    1.005279  -1.595032
    10  C   -0.665741   1.180063
    11  C    0.484446  -1.092998
    12  C    1.749281  -2.369432
    13  H   -0.236436   0.380098
    14  H   -0.276566   0.424268
    15  H   -0.333094   0.466009
    16  H   -0.090431   0.307175
    17  H    0.364548  -0.208357
    18  H   -0.247663   0.410437
    19  H    0.014441   0.126948
    20  H   -0.070309   0.219444
    21  H   -0.094993   0.272625
    22  H   -0.134036   0.278127
    23  H   -0.277340   0.435537
    24  H    0.134378   0.014763
    25  H    0.152272  -0.025153
    26  H   -0.366454   0.505138
    27  H   -0.029196   0.154141
    28  H   -0.223719   0.331412
    29  H   -0.215779   0.364584
    30  H   -0.290765   0.441594
    31  H   -0.302818   0.428606
 Sum of Mulliken charges =  -1.00000   1.00000

 Dipole moment (field-independent basis, Debye):
    X=             -3.2241    Y=             -0.7582    Z=             -0.8026  Tot=              3.4079
 Quadrupole moment (field-independent basis, Debye-Ang):
   XX=           -147.3709   YY=           -121.7027   ZZ=           -112.4113
   XY=             -3.8204   XZ=             -3.7959   YZ=             -0.2143

 Summary of Natural Population Analysis:

                                       Natural Population
                Natural  -----------------------------------------------
    Atom  No    Charge         Core      Valence    Rydberg      Total
 -----------------------------------------------------------------------
      C    1   -0.29274      0.99962     2.28732    0.00580     3.29274
      C    2   -0.01682      0.99942     2.00622    0.01118     3.01682
      C    3   -0.02400      0.99942     2.01338    0.01121     3.02400
      C    4   -0.09415      0.99956     2.08206    0.01253     3.09415
      N    5   -0.27761      0.99972     2.76386    0.01404     3.77761
      C    6   -0.07728      0.99961     2.06598    0.01168     3.07728
      C    7   -0.20793      0.99959     2.19937    0.00898     3.20793
      C    8   -0.02019      0.99956     2.00642    0.01422     3.02019
      C    9   -0.29443      0.99964     2.28860    0.00619     3.29443
      C   10   -0.07225      0.99953     2.06190    0.01082     3.07225
      C   11   -0.19667      0.99956     2.19060    0.00651     3.19667
      C   12   -0.29511      0.99962     2.28936    0.00613     3.29511
      H   13    0.10155      0.00000     0.39695    0.00150     0.39845
      H   14    0.10184      0.00000     0.39665    0.00151     0.39816
      H   15    0.10345      0.00000     0.39541    0.00114     0.39655
      H   16    0.09783      0.00000     0.40094    0.00123     0.40217
      H   17    0.09728      0.00000     0.40101    0.00171     0.40272
      H   18    0.09529      0.00000     0.40348    0.00123     0.40471
      H   19    0.09210      0.00000     0.40663    0.00126     0.40790
      H   20    0.09786      0.00000     0.40055    0.00159     0.40214
      H   21    0.10123      0.00000     0.39735    0.00142     0.39877
      H   22    0.09548      0.00000     0.40221    0.00231     0.40452
      H   23    0.09898      0.00000     0.39968    0.00134     0.40102
      H   24    0.10038      0.00000     0.39867    0.00095     0.39962
      H   25    0.10434      0.00000     0.39419    0.00147     0.39566
      H   26    0.09236      0.00000     0.40629    0.00135     0.40764
      H   27    0.09141      0.00000     0.40744    0.00115     0.40859
      H   28    0.08932      0.00000     0.40930    0.00138     0.41068
      H   29    0.10139      0.00000     0.39715    0.00146     0.39861
      H   30    0.10200      0.00000     0.39648    0.00152     0.39800
      H   31    0.10508      0.00000     0.39365    0.00127     0.39492
 =======================================================================
   * Total *    0.00000     11.99485    33.85908    0.14607    46.00000

 Normal termination of Gaussian 16 at Wed Dec  9 18:40:45 2020.
