 Gaussian 16, Revision A.03,

 -----------------------------------------------------------
 # opt freq B3LYP/6-31G(d) empiricaldispersion=gd3bj scf=xqc
 -----------------------------------------------------------

 ------------------------------
 CID_65404122_JID_7171_neutraal
 ------------------------------
 Symbolic Z-matrix:
 Charge =  0 Multiplicity = 1

 SCF Done:  E(RB3LYP) =  -748.753655692     A.U. after   15 cycles
 SCF Done:  E(RB3LYP) =  -748.759143892     A.U. after   12 cycles
 SCF Done:  E(RB3LYP) =  -748.759789417     A.U. after   12 cycles
 SCF Done:  E(RB3LYP) =  -748.759906275     A.U. after   11 cycles
 SCF Done:  E(RB3LYP) =  -748.759946420     A.U. after   10 cycles
 SCF Done:  E(RB3LYP) =  -748.759984784     A.U. after   10 cycles
 SCF Done:  E(RB3LYP) =  -748.760045584     A.U. after   11 cycles
 SCF Done:  E(RB3LYP) =  -748.760124248     A.U. after   12 cycles
 SCF Done:  E(RB3LYP) =  -748.760131764     A.U. after   11 cycles
 SCF Done:  E(RB3LYP) =  -748.760132300     A.U. after   11 cycles
 SCF Done:  E(RB3LYP) =  -748.760755940     A.U. after   10 cycles
 SCF Done:  E(RB3LYP) =  -748.760755970     A.U. after    7 cycles
 SCF Done:  E(RB3LYP) =  -748.760755967     A.U. after    7 cycles
 SCF Done:  E(RB3LYP) =  -748.760755952     A.U. after    7 cycles
 SCF Done:  E(RB3LYP) =  -748.760755945     A.U. after    6 cycles
 Optimization completed.
    -- Stationary point found.
 Normal termination of Gaussian 16 at Fri Dec 11 12:22:23 2020.

 --------------------------------------------------------------------
 #N Geom=AllCheck Guess=TCheck SCRF=Check GenChk RB3LYP/6-31G(d) Freq
 --------------------------------------------------------------------

 Structure from the checkpoint file:  "JID_7171.chk"
 ------------------------------
 CID_65404122_JID_7171_neutraal
 ------------------------------
 Charge =  0 Multiplicity = 1

 SCF Done:  E(RB3LYP) =  -748.760755945     A.U. after    1 cycles

  Exact polarizability: 189.434  -6.696 142.263   5.795   2.507 127.686
 Approx polarizability: 225.990 -14.518 209.655  17.811  14.088 209.351

                      1                      2                      3
                      A                      A                      A
 Frequencies --      8.5440                11.2708                29.9487
 Red. masses --      3.2880                 3.6987                 5.6256
 Frc consts  --      0.0001                 0.0003                 0.0030
 IR Inten    --      0.0907                 0.3963                 0.5370

                      4                      5                      6
                      A                      A                      A
 Frequencies --     53.7314                70.9818                82.5609
 Red. masses --      3.9085                 4.5437                 2.2756
 Frc consts  --      0.0066                 0.0135                 0.0091
 IR Inten    --      0.3274                 0.0513                 0.4544

                      7                      8                      9
                      A                      A                      A
 Frequencies --    113.9382               137.5650               150.4074
 Red. masses --      2.5970                 2.8095                 2.3659
 Frc consts  --      0.0199                 0.0313                 0.0315
 IR Inten    --      0.3113                 0.4007                 1.0231

                     10                     11                     12
                      A                      A                      A
 Frequencies --    200.6214               224.5598               232.2096
 Red. masses --      2.3061                 1.6190                 1.3905
 Frc consts  --      0.0547                 0.0481                 0.0442
 IR Inten    --      0.1804                 0.0718                 4.4467

                     13                     14                     15
                      A                      A                      A
 Frequencies --    255.0766               261.4510               277.6472
 Red. masses --      1.9411                 1.8421                 1.3817
 Frc consts  --      0.0744                 0.0742                 0.0628
 IR Inten    --      3.9928                 1.6098                26.1123

                     16                     17                     18
                      A                      A                      A
 Frequencies --    304.5810               329.4833               367.6694
 Red. masses --      2.6272                 2.4455                 2.8446
 Frc consts  --      0.1436                 0.1564                 0.2266
 IR Inten    --      6.4444                12.9102                 3.0451

                     19                     20                     21
                      A                      A                      A
 Frequencies --    375.0231               397.9107               425.7357
 Red. masses --      3.7785                 2.7411                 2.0932
 Frc consts  --      0.3131                 0.2557                 0.2235
 IR Inten    --      2.6830                 0.1574                 0.3540

                     22                     23                     24
                      A                      A                      A
 Frequencies --    436.8542               473.2452               546.1524
 Red. masses --      2.6151                 3.5783                 2.5127
 Frc consts  --      0.2940                 0.4722                 0.4416
 IR Inten    --      6.8962                 0.7757                 0.5429

                     25                     26                     27
                      A                      A                      A
 Frequencies --    565.9002               646.1646               667.6619
 Red. masses --      2.2719                 3.5325                 3.6369
 Frc consts  --      0.4287                 0.8690                 0.9552
 IR Inten    --      8.8474                 1.9709                 0.8673

                     28                     29                     30
                      A                      A                      A
 Frequencies --    703.4138               761.8084               781.5730
 Red. masses --      4.4843                 3.3455                 1.9090
 Frc consts  --      1.3073                 1.1439                 0.6871
 IR Inten    --      2.8582                 2.1341                 0.9571

                     31                     32                     33
                      A                      A                      A
 Frequencies --    787.4896               798.7705               819.0295
 Red. masses --      1.3801                 1.6449                 3.0753
 Frc consts  --      0.5043                 0.6183                 1.2155
 IR Inten    --      1.7021                32.9036                 6.6091

                     34                     35                     36
                      A                      A                      A
 Frequencies --    830.5329               880.2221               905.2680
 Red. masses --      2.4343                 2.1148                 1.5782
 Frc consts  --      0.9893                 0.9654                 0.7620
 IR Inten    --      0.8827                 2.2705               143.6635

                     37                     38                     39
                      A                      A                      A
 Frequencies --    912.5476               926.0791               942.8519
 Red. masses --      6.8938                 3.2509                 1.7414
 Frc consts  --      3.3824                 1.6426                 0.9121
 IR Inten    --     33.8099                 1.0838                 0.7632

                     40                     41                     42
                      A                      A                      A
 Frequencies --    950.3624               961.4720               968.5588
 Red. masses --      1.8475                 1.9674                 1.8034
 Frc consts  --      0.9832                 1.0716                 0.9967
 IR Inten    --      8.4104                 3.0684                 4.9321

                     43                     44                     45
                      A                      A                      A
 Frequencies --    977.1523              1010.8178              1022.9821
 Red. masses --      2.2910                 1.6991                 3.0458
 Frc consts  --      1.2888                 1.0229                 1.8780
 IR Inten    --     23.9761                 1.0667                 2.4331

                     46                     47                     48
                      A                      A                      A
 Frequencies --   1028.4394              1044.9108              1057.6510
 Red. masses --      1.9006                 2.0909                 2.2293
 Frc consts  --      1.1844                 1.3451                 1.4693
 IR Inten    --      3.1979                 1.8701                 2.1641

                     49                     50                     51
                      A                      A                      A
 Frequencies --   1065.9265              1080.2629              1086.6502
 Red. masses --      2.6486                 1.5312                 2.1982
 Frc consts  --      1.7731                 1.0528                 1.5293
 IR Inten    --      2.2582                 2.9957                 1.1799

                     52                     53                     54
                      A                      A                      A
 Frequencies --   1105.4945              1147.9462              1162.3330
 Red. masses --      2.6455                 1.8157                 1.7506
 Frc consts  --      1.9049                 1.4097                 1.3935
 IR Inten    --     14.6521                 3.0543                11.4549

                     55                     56                     57
                      A                      A                      A
 Frequencies --   1163.4483              1183.6523              1187.3347
 Red. masses --      1.8468                 1.3160                 1.9380
 Frc consts  --      1.4729                 1.0863                 1.6097
 IR Inten    --     11.0073                 1.0788                 9.2518

                     58                     59                     60
                      A                      A                      A
 Frequencies --   1217.6455              1248.9994              1250.5913
 Red. masses --      1.4039                 1.5255                 1.5474
 Frc consts  --      1.2264                 1.4021                 1.4259
 IR Inten    --     11.2209                 1.1390                 3.5193

                     61                     62                     63
                      A                      A                      A
 Frequencies --   1278.0862              1289.7331              1308.0783
 Red. masses --      1.6189                 1.6592                 1.4128
 Frc consts  --      1.5581                 1.6261                 1.4243
 IR Inten    --     13.4822                10.8599                46.9890

                     64                     65                     66
                      A                      A                      A
 Frequencies --   1314.4177              1317.1316              1323.4956
 Red. masses --      1.2811                 1.2865                 1.3417
 Frc consts  --      1.3041                 1.3150                 1.3847
 IR Inten    --      6.4801                 5.1263                 8.2074

                     67                     68                     69
                      A                      A                      A
 Frequencies --   1334.3966              1361.4649              1364.2634
 Red. masses --      1.3071                 1.5970                 1.4352
 Frc consts  --      1.3713                 1.7441                 1.5738
 IR Inten    --     20.5727                 9.3279                 5.8963

                     70                     71                     72
                      A                      A                      A
 Frequencies --   1371.2615              1383.4590              1390.8511
 Red. masses --      1.3686                 1.4281                 1.6300
 Frc consts  --      1.5163                 1.6104                 1.8577
 IR Inten    --      2.5165                 7.9609                11.7563

                     73                     74                     75
                      A                      A                      A
 Frequencies --   1406.1037              1414.9718              1427.6392
 Red. masses --      1.2902                 1.6044                 2.6827
 Frc consts  --      1.5030                 1.8925                 3.2215
 IR Inten    --      5.8893                 0.8943                37.7924

                     76                     77                     78
                      A                      A                      A
 Frequencies --   1435.0043              1441.9193              1447.3169
 Red. masses --      1.3848                 1.2496                 1.2730
 Frc consts  --      1.6801                 1.5308                 1.5712
 IR Inten    --     27.7428                 3.7325                13.5953

                     79                     80                     81
                      A                      A                      A
 Frequencies --   1506.8923              1515.3987              1519.7772
 Red. masses --      1.1185                 1.0724                 1.0733
 Frc consts  --      1.4965                 1.4510                 1.4606
 IR Inten    --      4.3944                 1.2985                 2.3891

                     82                     83                     84
                      A                      A                      A
 Frequencies --   1520.1096              1524.5239              1531.0010
 Red. masses --      1.0828                 1.0829                 1.0567
 Frc consts  --      1.4742                 1.4829                 1.4593
 IR Inten    --      8.0347                 5.4904                 2.2678

                     85                     86                     87
                      A                      A                      A
 Frequencies --   1535.4317              1536.4799              1538.5632
 Red. masses --      1.0557                 1.1144                 1.0943
 Frc consts  --      1.4664                 1.5501                 1.5262
 IR Inten    --      3.6024                 2.1712                 4.4535

                     88                     89                     90
                      A                      A                      A
 Frequencies --   1542.1725              1559.2455              1633.1871
 Red. masses --      1.0513                 6.5639                10.0997
 Frc consts  --      1.4731                 9.4024                15.8720
 IR Inten    --      3.9129                 6.6930               114.4023

                     91                     92                     93
                      A                      A                      A
 Frequencies --   1697.8531              3005.3423              3024.5006
 Red. masses --      1.0925                 1.0827                 1.0612
 Frc consts  --      1.8556                 5.7619                 5.7194
 IR Inten    --     22.6914                15.1609                25.8990

                     94                     95                     96
                      A                      A                      A
 Frequencies --   3033.9230              3044.0124              3048.7465
 Red. masses --      1.0628                 1.0366                 1.0666
 Frc consts  --      5.7637                 5.6591                 5.8412
 IR Inten    --     22.6367                28.1343                22.9920

                     97                     98                     99
                      A                      A                      A
 Frequencies --   3049.1761              3056.5417              3058.2075
 Red. masses --      1.0407                 1.0699                 1.1007
 Frc consts  --      5.7011                 5.8891                 6.0653
 IR Inten    --     26.4934                18.6908                27.1479

                    100                    101                    102
                      A                      A                      A
 Frequencies --   3065.4448              3068.9021              3069.4900
 Red. masses --      1.0849                 1.0738                 1.0983
 Frc consts  --      6.0065                 5.9587                 6.0970
 IR Inten    --     16.0320                33.2793                33.3958

                    103                    104                    105
                      A                      A                      A
 Frequencies --   3074.6914              3085.2900              3101.9890
 Red. masses --      1.0705                 1.0609                 1.1014
 Frc consts  --      5.9625                 5.9501                 6.2439
 IR Inten    --     15.2976                17.6680                41.9330

                    106                    107                    108
                      A                      A                      A
 Frequencies --   3108.4736              3112.7040              3115.0844
 Red. masses --      1.1017                 1.0981                 1.1026
 Frc consts  --      6.2721                 6.2687                 6.3039
 IR Inten    --     49.8628                36.0563                47.0617

                    109                    110                    111
                      A                      A                      A
 Frequencies --   3117.1056              3129.4911              3134.4542
 Red. masses --      1.1030                 1.1025                 1.0971
 Frc consts  --      6.3141                 6.3619                 6.3505
 IR Inten    --     45.3299                33.1038                16.5623

                    112                    113                    114
                      A                      A                      A
 Frequencies --   3134.9155              3458.7942              3544.4918
 Red. masses --      1.1037                 1.0493                 1.0920
 Frc consts  --      6.3909                 7.3958                 8.0831
 IR Inten    --      9.5559                 2.0306                 0.2174

 - Thermochemistry -
 -------------------
 Temperature   298.150 Kelvin.  Pressure   1.00000 Atm.
 Atom     1 has atomic number  6 and mass  12.00000

 Molecular mass:   237.18411 amu.
 Principal axes and moments of inertia in atomic units:
                           1         2         3
     Eigenvalues --  1718.394289312.11973**********
           X            0.99995   0.00939  -0.00144
           Y           -0.00941   0.99985  -0.01470
           Z            0.00130   0.01471   0.99989
 This molecule is an asymmetric top.
 Rotational symmetry number  1.
 Warning -- assumption of classical behavior for rotation
           may cause significant error
 Rotational temperatures (Kelvin)      0.05040     0.00930     0.00854
 Rotational constants (GHZ):           1.05025     0.19381     0.17793
 Zero-point vibrational energy     939254.6 (Joules/Mol)
                                  224.48725 (Kcal/Mol)
 Warning -- explicit consideration of  25 degrees of freedom as
           vibrations may cause significant error
 Vibrational temperatures:     12.29    16.22    43.09    77.31   102.13
          (Kelvin)            118.79   163.93   197.93   216.40   288.65
                              323.09   334.10   367.00   376.17   399.47
                              438.22   474.05   528.99   539.57   572.50
                              612.54   628.54   680.89   785.79   814.20
                              929.69   960.62  1012.06  1096.07  1124.51
                             1133.02  1149.25  1178.40  1194.95  1266.44
                             1302.48  1312.95  1332.42  1356.55  1367.36
                             1383.34  1393.54  1405.90  1454.34  1471.84
                             1479.69  1503.39  1521.72  1533.63  1554.26
                             1563.45  1590.56  1651.64  1672.34  1673.94
                             1703.01  1708.31  1751.92  1797.03  1799.32
                             1838.88  1855.64  1882.03  1891.15  1895.06
                             1904.21  1919.90  1958.84  1962.87  1972.94
                             1990.49  2001.12  2023.07  2035.83  2054.05
                             2064.65  2074.60  2082.37  2168.08  2180.32
                             2186.62  2187.10  2193.45  2202.77  2209.14
                             2210.65  2213.65  2218.84  2243.41  2349.79
                             2442.83  4324.02  4351.58  4365.14  4379.65
                             4386.47  4387.08  4397.68  4400.08  4410.49
                             4415.47  4416.31  4423.80  4439.04  4463.07
                             4472.40  4478.49  4481.91  4484.82  4502.64
                             4509.78  4510.44  4976.43  5099.73

 Zero-point correction=                           0.357743 (Hartree/Particle)
 Thermal correction to Energy=                    0.375553
 Thermal correction to Enthalpy=                  0.376497
 Thermal correction to Gibbs Free Energy=         0.308077
 Sum of electronic and zero-point Energies=           -748.403013
 Sum of electronic and thermal Energies=              -748.385203
 Sum of electronic and thermal Enthalpies=            -748.384259
 Sum of electronic and thermal Free Energies=         -748.452679

                     E (Thermal)             CV                S
                      KCal/Mol        Cal/Mol-Kelvin    Cal/Mol-Kelvin
 Total                  235.663             66.643            144.002
 Electronic               0.000              0.000              0.000
 Translational            0.889              2.981             42.292
 Rotational               0.889              2.981             33.451
 Vibrational            233.885             60.681             68.259
 Vibration     1          0.593              1.987              8.324
 Vibration     2          0.593              1.987              7.773
 Vibration     3          0.594              1.984              5.833
 Vibration     4          0.596              1.976              4.675
 Vibration     5          0.598              1.968              4.126
 Vibration     6          0.600              1.961              3.829
 Vibration     7          0.607              1.938              3.201
 Vibration     8          0.614              1.916              2.837
 Vibration     9          0.618              1.902              2.667
 Vibration    10          0.638              1.839              2.127
 Vibration    11          0.649              1.804              1.922
 Vibration    12          0.653              1.792              1.862
 Vibration    13          0.665              1.754              1.695
 Vibration    14          0.669              1.743              1.652
 Vibration    15          0.679              1.715              1.548
 Vibration    16          0.695              1.665              1.392
 Vibration    17          0.712              1.617              1.263
 Vibration    18          0.740              1.539              1.089
 Vibration    19          0.746              1.523              1.059
 Vibration    20          0.764              1.475              0.970
 Vibration    21          0.788              1.414              0.873
 Vibration    22          0.797              1.390              0.837
 Vibration    23          0.830              1.309              0.729
 Vibration    24          0.901              1.148              0.552
 Vibration    25          0.922              1.105              0.512

 Optimization completed.
    -- Stationary point found.
 Normal termination of Gaussian 16 at Fri Dec 11 12:36:33 2020.

 ----------------------------------------------------------------------
 # B3LYP/6-311++G(d,p) empiricaldispersion=gd3bj scf=xqc pop=npa geom=c
 heck
 ----------------------------------------------------------------------

 --------------------------------------
 CID_65404122_JID_7171_Energie_neutraal
 --------------------------------------
 Structure from the checkpoint file:  "JID_7171.chk"
 Charge =  0 Multiplicity = 1

 SCF Done:  E(RB3LYP) =  -748.969374717     A.U. after   14 cycles
 Normal termination of Gaussian 16 at Fri Dec 11 12:45:42 2020.

 ----------------------------------------------------------------------
 # B3LYP/6-311++G(d,p) empiricaldispersion=gd3bj scf=xqc pop=npa geom=c
 heck
 ----------------------------------------------------------------------

 ------------------------------------
 CID_65404122_JID_7171_Energie_kation
 ------------------------------------
 Structure from the checkpoint file:  "JID_7171.chk"
 Charge =  1 Multiplicity = 2

 SCF Done:  E(UB3LYP) =  -748.640703503     A.U. after   28 cycles
 Normal termination of Gaussian 16 at Fri Dec 11 13:08:13 2020.
 Gaussian 16:  ES64L-G16RevA.03 25-Dec-2016

 ----------------------------------------------------------------------
 # B3LYP/6-311++G(d,p) empiricaldispersion=gd3bj scf=xqc pop=npa geom=c
 heck
 ----------------------------------------------------------------------

 -----------------------------------
 CID_65404122_JID_7171_Energie_anion
 -----------------------------------
 Structure from the checkpoint file:  "JID_7171.chk"
 Charge = -1 Multiplicity = 2

                         Standard orientation:
 ---------------------------------------------------------------------
 Center     Atomic      Atomic             Coordinates (Angstroms)
 Number     Number       Type             X           Y           Z
 ---------------------------------------------------------------------
      1          6           0       -4.939523   -2.214494    0.120491
      2          6           0       -4.444183   -0.927257    0.785486
      3          6           0       -3.825215    0.070467   -0.196146
      4          6           0       -3.389672    1.400081    0.444268
      5          6           0       -2.420802    1.995160   -0.582989
      6          6           0       -1.585992    0.779776   -1.046812
      7          6           0       -2.544537   -0.450298   -0.902537
      8          6           0       -0.343125    0.577908   -0.231940
      9          7           0        0.021858    1.367632    0.748452
     10          8           0        1.217901    0.776839    1.215160
     11          6           0        1.432579   -0.312281    0.453008
     12          7           0        0.512525   -0.488669   -0.451153
     13          6           0        2.669559   -1.105785    0.685963
     14          6           0        3.678277   -0.970811   -0.477501
     15          6           0        4.027314    0.497514   -0.806147
     16          6           0        4.636319    1.294981    0.350850
     17          7           0        4.821950   -1.833190   -0.160117
     18          1           0       -5.695363   -1.995855   -0.643973
     19          1           0       -5.391346   -2.893339    0.852230
     20          1           0       -4.119491   -2.752000   -0.369416
     21          1           0       -5.279549   -0.442953    1.309513
     22          1           0       -3.698255   -1.172022    1.555426
     23          1           0       -4.574536    0.301384   -0.968452
     24          1           0       -4.236388    2.056623    0.672055
     25          1           0       -2.856294    1.207660    1.384482
     26          1           0       -1.802969    2.803687   -0.185642
     27          1           0       -2.982779    2.387539   -1.439150
     28          1           0       -1.259577    0.888083   -2.087192
     29          1           0       -2.063547   -1.234785   -0.308663
     30          1           0       -2.766325   -0.892133   -1.877754
     31          1           0        3.125585   -0.780967    1.626503
     32          1           0        2.411088   -2.163309    0.787365
     33          1           0        3.196437   -1.400015   -1.364029
     34          1           0        4.725507    0.488257   -1.654332
     35          1           0        3.123290    1.007316   -1.164339
     36          1           0        5.522065    0.796512    0.763788
     37          1           0        4.951786    2.286956    0.011800
     38          1           0        3.917233    1.440845    1.163220
     39          1           0        5.469381   -1.840090   -0.947229
     40          1           0        5.340499   -1.442284    0.626265
 ---------------------------------------------------------------------

 SCF Done:  E(UB3LYP) =  -748.958476149     A.U. after   33 cycles
 SCF Done:  E(UB3LYP) =  -748.958476149     a.u. after    1 cycles

 The electronic state is 2-A.
 Alpha  occ. eigenvalues --  -19.12934 -14.27458 -14.22998 -14.20422 -10.19091
 Alpha  occ. eigenvalues --  -10.15185 -10.11888 -10.10328 -10.10118 -10.08306
 Alpha  occ. eigenvalues --  -10.08151 -10.07931 -10.07876 -10.07679 -10.07544
 Alpha  occ. eigenvalues --  -10.07524 -10.06934  -1.07437  -0.85226  -0.80937
 Alpha  occ. eigenvalues --   -0.79104  -0.75535  -0.69287  -0.68657  -0.65723
 Alpha  occ. eigenvalues --   -0.63814  -0.61456  -0.57159  -0.55247  -0.52904
 Alpha  occ. eigenvalues --   -0.52287  -0.48519  -0.47047  -0.46737  -0.42436
 Alpha  occ. eigenvalues --   -0.41766  -0.40901  -0.39397  -0.38145  -0.36712
 Alpha  occ. eigenvalues --   -0.36251  -0.35496  -0.34831  -0.33346  -0.32537
 Alpha  occ. eigenvalues --   -0.32420  -0.31879  -0.30868  -0.30008  -0.28940
 Alpha  occ. eigenvalues --   -0.27215  -0.26877  -0.26438  -0.26053  -0.25303
 Alpha  occ. eigenvalues --   -0.24991  -0.24971  -0.24351  -0.24163  -0.23324
 Alpha  occ. eigenvalues --   -0.22993  -0.22382  -0.21083  -0.19375  -0.15868
 Alpha  occ. eigenvalues --    0.03827
 Alpha virt. eigenvalues --    0.04961   0.06009   0.06339   0.07170   0.07568
 Alpha virt. eigenvalues --    0.07685   0.07874   0.08872   0.09255   0.09636
 Alpha virt. eigenvalues --    0.09899   0.10433   0.10764   0.10985   0.11532

  Beta  occ. eigenvalues --  -19.12913 -14.27431 -14.23000 -14.20377 -10.19077
  Beta  occ. eigenvalues --  -10.15176 -10.11882 -10.10318 -10.10114 -10.08294
  Beta  occ. eigenvalues --  -10.08144 -10.07917 -10.07865 -10.07658 -10.07523
  Beta  occ. eigenvalues --  -10.07519 -10.06904  -1.07403  -0.85209  -0.80881
  Beta  occ. eigenvalues --   -0.79059  -0.75509  -0.69252  -0.68611  -0.65685
  Beta  occ. eigenvalues --   -0.63788  -0.61423  -0.57101  -0.55212  -0.52868
  Beta  occ. eigenvalues --   -0.52250  -0.48466  -0.47005  -0.46700  -0.42406
  Beta  occ. eigenvalues --   -0.41702  -0.40857  -0.39352  -0.38113  -0.36682
  Beta  occ. eigenvalues --   -0.36205  -0.35470  -0.34794  -0.33314  -0.32504
  Beta  occ. eigenvalues --   -0.32390  -0.31844  -0.30827  -0.29972  -0.28909
  Beta  occ. eigenvalues --   -0.27180  -0.26839  -0.26410  -0.26015  -0.25274
  Beta  occ. eigenvalues --   -0.24957  -0.24942  -0.24317  -0.24135  -0.23301
  Beta  occ. eigenvalues --   -0.22964  -0.22351  -0.21068  -0.19269  -0.15820
  Beta virt. eigenvalues --    0.05641   0.06222   0.06240   0.06727   0.07475
  Beta virt. eigenvalues --    0.07918   0.08075   0.08249   0.09234   0.09360
  Beta virt. eigenvalues --    0.09859   0.10122   0.10538   0.10998   0.11144

 Mulliken charges and spin densities:
               1          2
     1  C    0.311154  -0.942570
     2  C   -0.855664   0.582778
     3  C    0.670239  -0.425764
     4  C   -0.445880   0.119490
     5  C   -0.100720  -0.645010
     6  C    0.462463   0.287236
     7  C   -0.214953  -0.588188
     8  C   -0.284232  -0.208570
     9  N   -0.405348   0.129316
    10  O    0.285095  -0.008494
    11  C    0.264960  -0.618157
    12  N    0.015042   0.118042
    13  C   -0.408309   0.239787
    14  C    1.256089  -1.585765
    15  C   -1.146080   1.069363
    16  C    0.849137  -1.484414
    17  N   -0.397352   0.109506
    18  H   -0.120980   0.254215
    19  H   -0.095114   0.227580
    20  H   -0.006749   0.153702
    21  H   -0.058876   0.197955
    22  H    0.120983   0.004850
    23  H   -0.093600   0.286235
    24  H   -0.016205   0.169420
    25  H    0.085799   0.062729
    26  H    0.189707   0.004191
    27  H   -0.285484   0.442443
    28  H   -0.061457   0.316722
    29  H    0.198683  -0.032219
    30  H    0.010782   0.164985
    31  H    0.094274   0.085279
    32  H    0.081022   0.142675
    33  H    0.149890   0.072934
    34  H   -0.553421   0.753020
    35  H    0.113734   0.040007
    36  H   -0.171312   0.306784
    37  H   -0.208081   0.342187
    38  H    0.019709   0.145947
    39  H   -0.169756   0.408544
    40  H   -0.079187   0.301229
 Sum of Mulliken charges =  -1.00000   1.00000

 Dipole moment (field-independent basis, Debye):
    X=             -3.9812    Y=              0.6482    Z=              2.7618  Tot=              4.8885
 Quadrupole moment (field-independent basis, Debye-Ang):
   XX=           -245.0954   YY=           -148.9878   ZZ=           -138.7412
   XY=              2.5999   XZ=              0.3444   YZ=             -1.7579

 Summary of Natural Population Analysis:

                                       Natural Population
                Natural  -----------------------------------------------
    Atom  No    Charge         Core      Valence    Rydberg      Total
 -----------------------------------------------------------------------
      C    1   -0.28421      0.99967     2.28035    0.00418     3.28421
      C    2   -0.18607      0.99962     2.17745    0.00900     3.18607
      C    3   -0.11143      0.99959     2.10061    0.01122     3.11143
      C    4   -0.18984      0.99962     2.18133    0.00889     3.18984
      C    5   -0.18952      0.99963     2.18071    0.00918     3.18952
      C    6   -0.13098      0.99955     2.12017    0.01126     3.13098
      C    7   -0.18445      0.99961     2.17536    0.00948     3.18445
      C    8    0.18865      0.99961     1.79311    0.01863     2.81135
      N    9   -0.09490      0.99966     2.58376    0.01149     3.59490
      O   10   -0.17079      0.99985     3.16323    0.00771     4.17079
      C   11    0.29561      0.99961     1.68529    0.01949     2.70439
      N   12   -0.27164      0.99966     2.76359    0.00838     3.77164
      C   13   -0.22562      0.99956     2.21674    0.00933     3.22562
      C   14   -0.00580      0.99960     1.99365    0.01255     3.00580
      C   15   -0.20071      0.99962     2.19188    0.00921     3.20071
      C   16   -0.29336      0.99966     2.28744    0.00626     3.29336
      N   17   -0.42208      0.99977     2.91179    0.01052     3.92208
      H   18    0.09701      0.00000     0.40175    0.00124     0.40299
      H   19    0.09671      0.00000     0.40244    0.00084     0.40329
      H   20    0.09748      0.00000     0.40150    0.00101     0.40252
      H   21    0.09537      0.00000     0.40363    0.00100     0.40463
      H   22    0.09252      0.00000     0.40631    0.00116     0.40748
      H   23    0.09507      0.00000     0.40320    0.00173     0.40493
      H   24    0.09978      0.00000     0.39941    0.00082     0.40022
      H   25    0.09762      0.00000     0.40103    0.00135     0.40238
      H   26    0.10926      0.00000     0.38958    0.00116     0.39074
      H   27    0.09862      0.00000     0.40028    0.00109     0.40138
      H   28    0.11423      0.00000     0.38450    0.00128     0.38577
      H   29    0.10237      0.00000     0.39642    0.00122     0.39763
      H   30    0.10504      0.00000     0.39391    0.00104     0.39496
      H   31    0.11005      0.00000     0.38867    0.00128     0.38995
      H   32    0.12169      0.00000     0.37717    0.00114     0.37831
      H   33    0.09643      0.00000     0.40171    0.00186     0.40357
      H   34    0.10019      0.00000     0.39795    0.00186     0.39981
      H   35    0.09858      0.00000     0.40016    0.00126     0.40142
      H   36    0.09566      0.00000     0.40270    0.00165     0.40434
      H   37    0.10247      0.00000     0.39664    0.00089     0.39753
      H   38    0.09845      0.00000     0.40023    0.00132     0.40155
      H   39    0.17944      0.00000     0.31784    0.00272     0.32056
      H   40    0.17308      0.00000     0.32458    0.00235     0.32692
 =======================================================================
   * Total *    0.00000     16.99388    47.79808    0.20804    65.00000

 Normal termination of Gaussian 16 at Fri Dec 11 13:33:49 2020.
